INSANE! Membrane UpperLeaflet>loPI:POPI:DPPI:PYPI:ERGO=180.0:5.0:3.0:2.0:10.0 LowerLeaflet>PSPI:POPI:POPS:YOPS:POPE:YOPE:POPC:YOPC:ERGO=6.0:14.0:21.0:9.0:9.0:21.0:12.0:48.0:60.0
49261
    1loPI    C1    1   8.292   5.264  10.369 -0.2896  0.3239 -0.0687
    1loPI    C2    2   8.221   5.538  10.652  0.1469  0.2977  0.0730
    1loPI    C3    3   8.321   5.165  10.755  0.1909  0.2559 -0.1173
    1loPI   PO4    4   8.416   5.395  10.176 -0.4009  0.1220 -0.0977
    1loPI   GL1    5   8.525   5.195   9.732 -0.0653 -0.2350  0.3106
    1loPI   GL2    6   8.798   5.246   9.514 -0.2696  0.0131 -0.2507
    1loPI   C1A    7   8.363   5.354   9.289 -0.0757  0.1259  0.0260
    1loPI   C2A    8   8.402   5.419   8.776  0.0215 -0.1296  0.2384
    1loPI   C3A    9   8.575   5.540   8.374 -0.0523 -0.2581  0.0656
    1loPI   C4A   10   8.657   5.487   7.973  0.2725  0.0153  0.3906
    1loPI   C5A   11   8.844   5.362   7.629  0.0275  0.3536  0.0924
    1loPI   C6A   12   8.950   5.061   7.295  0.0418  0.2974 -0.1117
    1loPI   C1B   13   8.825   5.270   9.110  0.0672 -0.2827 -0.0240
    1loPI   C2B   14   8.868   5.354   8.739 -0.2450 -0.0753 -0.1251
    1loPI   C3B   15   9.066   5.468   8.396  0.0585  0.1929 -0.2144
    1loPI   C4B   16   9.181   5.598   7.959 -0.0275  0.2016  0.2837
    2loPI    C1   17   1.448   8.040  10.612 -0.1142 -0.2085 -0.0481
    2loPI    C2   18   1.426   8.435  10.674  0.0998 -0.2178  0.0964
    2loPI    C3   19   1.399   8.182  10.983 -0.4565 -0.3387 -0.0397
    2loPI   PO4   20   1.332   8.020  10.385  0.0659  0.0129  0.0685
    2loPI   GL1   21   1.268   8.021  10.028  0.2821 -0.0528 -0.0274
    2loPI   GL2   22   1.487   8.179   9.885  0.2330  0.4854 -0.0908
    2loPI   C1A   23   1.024   7.883   9.770  0.4076  0.0019  0.2938
    2loPI   C2A   24   0.984   7.736   9.275  0.2107 -0.0855  0.0504
    2loPI   C3A   25   0.934   7.747   8.854  0.1495  0.2255 -0.0655
    2loPI   C4A   26   0.936   7.733   8.398 -0.0860  0.1422  0.0150
    2loPI   C5A   27   0.918   7.950   8.049  0.0453  0.4847 -0.0592
    2loPI   C6A   28   1.104   8.000   7.685 -0.3426  0.0162  0.0604
    2loPI   C1B   29   1.313   8.033   9.411 -0.1086 -0.0603 -0.1207
    2loPI   C2B   30   1.344   8.036   9.009  0.0019 -0.0545  0.2382
    2loPI   C3B   31   1.365   8.055   8.557 -0.0028  0.1019 -0.4851
    2loPI   C4B   32   1.391   8.142   8.125  0.1955  0.2711  0.0902
    3loPI    C1   33   6.621  17.595  10.596  0.2030 -0.2152 -0.1603
    3loPI    C2   34   6.565  17.326  10.887 -0.0523 -0.0431 -0.0466
    3loPI    C3   35   6.818  17.630  10.943  0.0343 -0.1098 -0.0737
    3loPI   PO4   36   6.327  17.635  10.493 -0.1692 -0.0398 -0.2445
    3loPI   GL1   37   6.198  17.813  10.070  0.0627 -0.3164 -0.3856
    3loPI   GL2   38   6.060  17.525  10.043 -0.0444 -0.1696 -0.0037
    3loPI   C1A   39   6.097  17.964   9.645  0.0034 -0.1437  0.0980
    3loPI   C2A   40   5.995  18.000   9.208 -0.0980 -0.0528 -0.1071
    3loPI   C3A   41   6.116  18.038   8.795  0.0187 -0.1196  0.0543
    3loPI   C4A   42   6.086  17.926   8.419 -0.1494  0.1785 -0.0680
    3loPI   C5A   43   5.663  17.875   8.164  0.1426  0.2948 -0.0579
    3loPI   C6A   44   5.324  17.562   8.059 -0.2622  0.0901  0.1280
    3loPI   C1B   45   6.070  17.438   9.597 -0.0912 -0.1225 -0.0300
    3loPI   C2B   46   6.002  17.486   9.192 -0.3470 -0.1754 -0.3142
    3loPI   C3B   47   6.154  17.466   8.895  0.4397 -0.0222 -0.0681
    3loPI   C4B   48   6.130  17.424   8.523 -0.0344  0.0589 -0.2239
    4loPI    C1   49   0.949   6.452  10.885  0.1657  0.1527  0.0710
    4loPI    C2   50   0.943   6.053  10.918  0.0675  0.0985 -0.4975
    4loPI    C3   51   0.657   6.272  11.091  0.0987 -0.0769 -0.2173
    4loPI   PO4   52   0.988   6.517  10.600  0.1935 -0.0071 -0.4367
    4loPI   GL1   53   0.857   6.224  10.276 -0.1510 -0.1770 -0.1655
    4loPI   GL2   54   1.186   6.356  10.140  0.1021  0.0342 -0.1932
    4loPI   C1A   55   0.493   6.069   9.980  0.0573  0.2742  0.1518
    4loPI   C2A   56   0.481   5.956   9.567 -0.1770  0.3003 -0.4613
    4loPI   C3A   57   0.560   5.886   9.123  0.0787 -0.0248 -0.4530
    4loPI   C4A   58   0.479   6.000   8.683  0.0531 -0.3105  0.1281
    4loPI   C5A   59   0.476   5.688   8.420  0.3144  0.0781  0.0348
    4loPI   C6A   60   0.561   5.366   8.263 -0.2717 -0.4084 -0.0758
    4loPI   C1B   61   0.947   6.186   9.741  0.2936 -0.0833 -0.3396
    4loPI   C2B   62   1.034   6.227   9.323  0.1071  0.1878 -0.1708
    4loPI   C3B   63   0.986   6.174   8.896  0.3140  0.0696 -0.0948
    4loPI   C4B   64   1.094   6.254   8.473 -0.2010  0.2000  0.0570
    5loPI    C1   65  14.578  10.128  11.180 -0.0614  0.0843  0.0159
    5loPI    C2   66  14.927  10.219  11.353 -0.1584  0.4856  0.0100
    5loPI    C3   67  14.601  10.164  11.578 -0.1253  0.2562  0.0046
    5loPI   PO4   68  14.631  10.320  10.928  0.0582  0.2349  0.1195
    5loPI   GL1   69  14.997  10.496  10.468  0.0925 -0.0625 -0.2571
    5loPI   GL2   70  14.726  10.404  10.383 -0.1579  0.0154  0.1133
    5loPI   C1A   71  15.226  10.637  10.135 -0.0688 -0.2951 -0.1233
    5loPI   C2A   72  15.214  10.603   9.740  0.0654 -0.0088  0.0047
    5loPI   C3A   73  15.245  10.576   9.314  0.1597  0.0024 -0.0077
    5loPI   C4A   74  15.161  10.714   8.845 -0.0409  0.1628 -0.0958
    5loPI   C5A   75  15.152  10.808   8.416  0.1326  0.1784  0.1189
    5loPI   C6A   76  15.544  10.843   8.100 -0.1828  0.3376 -0.1515
    5loPI   C1B   77  14.750  10.409   9.931 -0.0853 -0.2222 -0.0786
    5loPI   C2B   78  14.848  10.310   9.454  0.1563 -0.2468 -0.0931
    5loPI   C3B   79  14.763  10.426   9.092 -0.1354  0.1906 -0.1124
    5loPI   C4B   80  14.754  10.520   8.654 -0.2790 -0.1274 -0.1067
    6loPI    C1   81  14.081   8.744  10.861 -0.0050 -0.0458 -0.0544
    6loPI    C2   82  13.944   8.887  11.208  0.0346  0.2215 -0.1467
    6loPI    C3   83  14.218   8.596  11.206 -0.1362  0.0558  0.0424
    6loPI   PO4   84  13.923   8.786  10.706  0.1553 -0.1414  0.0474
    6loPI   GL1   85  13.890   8.764  10.268  0.1275  0.0683 -0.2559
    6loPI   GL2   86  13.956   9.006  10.069 -0.0218 -0.2447 -0.0240
    6loPI   C1A   87  13.856   8.755   9.732 -0.0315  0.1192  0.7000
    6loPI   C2A   88  13.967   8.840   9.403 -0.1606 -0.2075 -0.4339
    6loPI   C3A   89  13.890   8.839   8.946 -0.2356 -0.1578  0.2438
    6loPI   C4A   90  13.769   8.872   8.415 -0.2659 -0.2260  0.1676
    6loPI   C5A   91  13.764   9.124   8.016 -0.2064  0.0031 -0.0866
    6loPI   C6A   92  13.310   9.041   7.677  0.1538  0.1649  0.0234
    6loPI   C1B   93  13.790   9.271   9.768 -0.0970 -0.1607  0.2032
    6loPI   C2B   94  13.906   9.340   9.350 -0.4458 -0.1415 -0.0141
    6loPI   C3B   95  13.796   9.330   8.963  0.2432 -0.2981 -0.4134
    6loPI   C4B   96  13.778   9.394   8.600  0.0254 -0.1806 -0.0401
    7loPI    C1   97  12.277  12.105  10.735  0.0854  0.1202 -0.0841
    7loPI    C2   98  12.133  12.242  11.082 -0.1368  0.2057 -0.2080
    7loPI    C3   99  12.204  11.852  11.036  0.1152  0.2227  0.0101
    7loPI   PO4  100  12.434  12.351  10.592  0.1176  0.1052 -0.1271
    7loPI   GL1  101  12.594  12.595  10.257  0.1604  0.1423  0.0373
    7loPI   GL2  102  12.793  12.785  10.277 -0.1270 -0.3065  0.0356
    7loPI   C1A  103  12.517  12.727   9.838 -0.3400 -0.0189  0.2283
    7loPI   C2A  104  12.627  12.715   9.403 -0.3453  0.3993 -0.1030
    7loPI   C3A  105  12.567  12.633   9.047 -0.1073 -0.1211 -0.3574
    7loPI   C4A  106  12.510  12.690   8.685  0.3641 -0.1945 -0.2309
    7loPI   C5A  107  12.474  12.528   8.251 -0.2740 -0.3840  0.1097
    7loPI   C6A  108  12.369  12.551   7.782 -0.0379  0.2318  0.0746
    7loPI   C1B  109  13.007  12.985   9.998  0.1520 -0.1094 -0.0716
    7loPI   C2B  110  12.981  13.046   9.543 -0.1115 -0.2815  0.1498
    7loPI   C3B  111  12.960  12.974   9.077  0.1756 -0.0207  0.1397
    7loPI   C4B  112  12.975  12.936   8.657  0.2244 -0.2988  0.0853
    8loPI    C1  113  10.344  15.200  10.688  0.1466 -0.1562  0.0009
    8loPI    C2  114  10.606  15.338  10.956  0.1888  0.3288 -0.2793
    8loPI    C3  115  10.217  15.422  10.995  0.1111 -0.1103 -0.0467
    8loPI   PO4  116  10.474  15.167  10.542  0.0661  0.1942  0.1778
    8loPI   GL1  117  10.553  15.081  10.186 -0.3369  0.1108 -0.1034
    8loPI   GL2  118  10.703  14.821  10.103  0.1319 -0.1451 -0.0421
    8loPI   C1A  119  10.530  15.349   9.880  0.3961  0.1183  0.0370
    8loPI   C2A  120  10.652  15.443   9.477 -0.2210 -0.0143  0.1319
    8loPI   C3A  121  10.756  15.315   9.100  0.1553  0.1921  0.4764
    8loPI   C4A  122  10.698  15.346   8.640 -0.1177 -0.0687 -0.2767
    8loPI   C5A  123  10.668  15.441   8.303 -0.0344  0.1018  0.0560
    8loPI   C6A  124  10.365  15.178   7.978 -0.0655  0.2030  0.3014
    8loPI   C1B  125  10.700  14.810   9.626  0.1367 -0.1876 -0.0713
    8loPI   C2B  126  10.709  14.818   9.205 -0.0577 -0.4573 -0.1973
    8loPI   C3B  127  10.714  14.853   8.737  0.0351  0.2594  0.1685
    8loPI   C4B  128  10.737  14.904   8.266  0.0281 -0.1403 -0.3249
    9loPI    C1  129  17.742   5.116  10.613 -0.1059 -0.0355 -0.0232
    9loPI    C2  130  17.783   5.069  11.008 -0.1159  0.0555 -0.0113
    9loPI    C3  131  17.681   5.426  10.858 -0.0112  0.0473 -0.1031
    9loPI   PO4  132  17.854   4.926  10.525  0.3722 -0.1672 -0.0869
    9loPI   GL1  133  18.047   4.933  10.118  0.0691  0.0256  0.0710
    9loPI   GL2  134  18.316   5.123  10.148  0.0617  0.4107 -0.0102
    9loPI   C1A  135  17.890   4.931   9.723  0.2350  0.0190  0.0575
    9loPI   C2A  136  17.952   4.890   9.276 -0.2471  0.0311 -0.1488
    9loPI   C3A  137  17.971   5.026   8.805 -0.1051 -0.0000 -0.0862
    9loPI   C4A  138  17.888   4.804   8.369  0.1225  0.1283 -0.3355
    9loPI   C5A  139  17.683   4.679   7.932  0.0833 -0.0464 -0.5467
    9loPI   C6A  140  17.643   4.579   7.529  0.2955  0.2077  0.1129
    9loPI   C1B  141  18.434   5.163   9.736  0.0222  0.1800 -0.2177
    9loPI   C2B  142  18.409   5.213   9.320 -0.0591 -0.1451 -0.0447
    9loPI   C3B  143  18.460   5.168   8.897 -0.1717  0.2151  0.1991
    9loPI   C4B  144  18.394   5.107   8.441 -0.1064 -0.0743  0.0465
   10loPI    C1  145  15.128   2.878  10.921  0.1366  0.1619 -0.1233
   10loPI    C2  146  14.876   3.185  10.968  0.0058  0.0723 -0.2319
   10loPI    C3  147  15.195   3.149  11.207 -0.1621  0.1085  0.0003
   10loPI   PO4  148  15.203   2.806  10.718  0.0960  0.0959  0.0168
   10loPI   GL1  149  15.220   2.832  10.266  0.0676 -0.0889  0.0630
   10loPI   GL2  150  15.062   2.489  10.275 -0.4325 -0.1796  0.1176
   10loPI   C1A  151  15.208   2.882   9.860  0.0310 -0.0462  0.1382
   10loPI   C2A  152  15.085   2.834   9.371 -0.2893  0.1212  0.0851
   10loPI   C3A  153  15.277   2.758   8.998 -0.1690  0.0712 -0.1818
   10loPI   C4A  154  15.274   2.734   8.660  0.1743 -0.1850  0.1501
   10loPI   C5A  155  15.537   2.659   8.295 -0.4692  0.1720  0.1318
   10loPI   C6A  156  15.862   2.727   8.044  0.2309 -0.1283 -0.1220
   10loPI   C1B  157  15.145   2.338   9.925  0.3849 -0.3513 -0.0389
   10loPI   C2B  158  15.122   2.329   9.471  0.0033  0.1279 -0.3923
   10loPI   C3B  159  15.246   2.238   9.080  0.0247 -0.0603  0.1390
   10loPI   C4B  160  15.355   2.215   8.775 -0.1538  0.2543 -0.1403
   11loPI    C1  161  17.395   2.554  10.965 -0.0651 -0.2012  0.0676
   11loPI    C2  162  17.330   2.949  10.965  0.1569 -0.1635  0.0801
   11loPI    C3  163  17.376   2.754  11.311 -0.0486 -0.2174  0.0779
   11loPI   PO4  164  17.232   2.479  10.840 -0.1279  0.3658  0.1809
   11loPI   GL1  165  17.063   2.552  10.416 -0.0872 -0.1979  0.2851
   11loPI   GL2  166  16.931   2.278  10.386  0.0076 -0.0849  0.1277
   11loPI   C1A  167  17.033   2.869  10.041 -0.0893 -0.1445 -0.1099
   11loPI   C2A  168  17.006   2.905   9.582 -0.0174 -0.0765 -0.1149
   11loPI   C3A  169  17.045   2.815   9.150  0.1097  0.1191 -0.0710
   11loPI   C4A  170  17.087   2.777   8.735 -0.0366  0.1130 -0.0524
   11loPI   C5A  171  17.220   2.642   8.421  0.2077 -0.0413 -0.1401
   11loPI   C6A  172  17.628   2.608   8.273 -0.0210 -0.0050  0.2210
   11loPI   C1B  173  17.024   2.329   9.940 -0.1656  0.3520 -0.2498
   11loPI   C2B  174  16.970   2.286   9.537 -0.2381  0.0068 -0.2360
   11loPI   C3B  175  17.019   2.295   9.240  0.0729 -0.1738 -0.0020
   11loPI   C4B  176  17.089   2.293   8.846 -0.0325 -0.3306  0.3004
   12loPI    C1  177  15.135   4.102  10.752  0.1354 -0.3553  0.1848
   12loPI    C2  178  15.399   4.238  11.019  0.1155  0.1562 -0.0440
   12loPI    C3  179  15.060   4.067  11.143  0.1623  0.2756  0.2578
   12loPI   PO4  180  15.092   4.268  10.581  0.2448 -0.0842  0.0423
   12loPI   GL1  181  15.169   4.464  10.164 -0.2226  0.2349 -0.0960
   12loPI   GL2  182  15.430   4.624  10.043  0.0526  0.2278 -0.2508
   12loPI   C1A  183  15.004   4.393   9.777 -0.0184  0.0313 -0.1340
   12loPI   C2A  184  15.156   4.273   9.407 -0.0089 -0.1085 -0.2120
   12loPI   C3A  185  15.277   4.297   9.084 -0.3057  0.3787 -0.1188
   12loPI   C4A  186  15.275   4.403   8.645  0.0319 -0.2909 -0.2289
   12loPI   C5A  187  15.534   4.360   8.268  0.0901 -0.2144 -0.1530
   12loPI   C6A  188  15.538   4.500   7.837  0.4257 -0.1420  0.1644
   12loPI   C1B  189  15.493   4.598   9.607 -0.5616  0.0034 -0.2149
   12loPI   C2B  190  15.608   4.655   9.184 -0.0059  0.0957 -0.0636
   12loPI   C3B  191  15.711   4.644   8.752  0.4013  0.3029 -0.2688
   12loPI   C4B  192  15.870   4.727   8.377  0.0774  0.1605 -0.1395
   13loPI    C1  193   4.051   5.694  10.991  0.0994 -0.0076  0.1622
   13loPI    C2  194   3.928   6.075  10.985 -0.0564 -0.0583  0.0650
   13loPI    C3  195   3.782   5.823  11.258  0.1186 -0.0260  0.1905
   13loPI   PO4  196   4.034   5.644  10.736  0.1491 -0.0198 -0.0546
   13loPI   GL1  197   4.302   5.661  10.380 -0.3329  0.1145  0.0472
   13loPI   GL2  198   4.245   5.368  10.282 -0.0852 -0.0606 -0.0485
   13loPI   C1A  199   4.214   5.890  10.086 -0.0117  0.2504  0.3013
   13loPI   C2A  200   4.314   5.962   9.701  0.1363 -0.1709  0.0407
   13loPI   C3A  201   4.247   5.935   9.285  0.2576 -0.4488  0.0238
   13loPI   C4A  202   4.165   5.882   8.798  0.1222  0.0188  0.3244
   13loPI   C5A  203   4.111   5.829   8.360 -0.1059  0.0550  0.0774
   13loPI   C6A  204   4.208   6.126   7.983  0.1768 -0.1133 -0.1701
   13loPI   C1B  205   4.225   5.433   9.879 -0.2386  0.2239  0.0820
   13loPI   C2B  206   4.189   5.418   9.404 -0.2038 -0.0849  0.0624
   13loPI   C3B  207   4.137   5.352   8.956  0.2589  0.0093 -0.0713
   13loPI   C4B  208   4.107   5.217   8.379 -0.4620  0.0486  0.3014
   14loPI    C1  209  10.047   5.117   9.982  0.0236 -0.1971 -0.0620
   14loPI    C2  210  10.335   5.206  10.245  0.1001  0.0409 -0.2219
   14loPI    C3  211   9.978   5.384  10.271  0.0498 -0.0654 -0.1760
   14loPI   PO4  212  10.124   5.077   9.794 -0.1931  0.0036  0.0683
   14loPI   GL1  213   9.994   4.908   9.408 -0.1829  0.1887  0.0302
   14loPI   GL2  214   9.964   4.536   9.318  0.3521  0.1025 -0.1159
   14loPI   C1A  215  10.266   4.876   9.053  0.3402 -0.0865 -0.0788
   14loPI   C2A  216  10.269   5.031   8.689 -0.2887 -0.1174  0.0116
   14loPI   C3A  217  10.156   5.348   8.416  0.2387  0.2280 -0.0023
   14loPI   C4A  218  10.157   5.458   7.974  0.0633  0.1105 -0.0291
   14loPI   C5A  219  10.447   5.708   7.842 -0.0609 -0.2978 -0.0039
   14loPI   C6A  220  10.883   5.639   7.759  0.0260  0.0871 -0.0668
   14loPI   C1B  221   9.893   4.580   8.905  0.0984 -0.1219 -0.3401
   14loPI   C2B  222   9.598   4.451   8.602 -0.2511 -0.1858 -0.0354
   14loPI   C3B  223   9.418   4.360   8.213  0.1287  0.1146  0.1139
   14loPI   C4B  224   9.096   4.157   7.980 -0.0341  0.0217 -0.0979
   15loPI    C1  225  11.317   0.448  10.238 -0.1790 -0.2547 -0.0405
   15loPI    C2  226  11.450   0.505  10.611 -0.1441  0.0015 -0.0902
   15loPI    C3  227  11.205   0.200  10.531  0.1859 -0.3104  0.0574
   15loPI   PO4  228  11.547   0.474  10.117  0.1471 -0.0268 -0.0844
   15loPI   GL1  229  11.714   0.293   9.798 -0.1764 -0.0432  0.0270
   15loPI   GL2  230  11.405   0.187   9.711  0.0416  0.0368 -0.3224
   15loPI   C1A  231  12.042   0.401   9.450 -0.0256  0.0102 -0.0818
   15loPI   C2A  232  12.042   0.508   9.054 -0.3730  0.2147 -0.0484
   15loPI   C3A  233  12.023   0.416   8.678 -0.1762 -0.1971  0.2479
   15loPI   C4A  234  12.034   0.404   8.211  0.0729 -0.0625 -0.1786
   15loPI   C5A  235  12.159   0.330   7.851 -0.1922 -0.0917  0.1793
   15loPI   C6A  236  12.449  -0.011   7.725  0.2590  0.2033 -0.2301
   15loPI   C1B  237  11.604   0.127   9.356  0.1515  0.3349 -0.2459
   15loPI   C2B  238  11.590   0.183   8.870 -0.2867  0.2549 -0.3541
   15loPI   C3B  239  11.549   0.132   8.403  0.0910 -0.0004 -0.0001
   15loPI   C4B  240  11.611   0.106   7.965  0.1586  0.4957  0.0790
   16loPI    C1  241   5.186  12.140  10.707 -0.1849 -0.0786  0.1106
   16loPI    C2  242   4.928  12.396  10.875 -0.1569 -0.0545  0.1171
   16loPI    C3  243   5.104  12.113  11.098 -0.0448  0.0396  0.1492
   16loPI   PO4  244   5.122  12.043  10.552 -0.2007 -0.0925  0.0801
   16loPI   GL1  245   4.964  11.948  10.216  0.2669 -0.0877 -0.2120
   16loPI   GL2  246   5.197  11.733  10.091 -0.1060  0.2305  0.1205
   16loPI   C1A  247   4.878  11.965   9.756 -0.2126 -0.3424 -0.1643
   16loPI   C2A  248   4.774  11.865   9.359 -0.1814 -0.0441 -0.0548
   16loPI   C3A  249   4.756  11.864   8.931  0.1428 -0.0456  0.1185
   16loPI   C4A  250   4.622  12.030   8.424  0.4407  0.0768 -0.1653
   16loPI   C5A  251   4.561  12.398   8.119 -0.0255 -0.1605 -0.2955
   16loPI   C6A  252   4.563  12.304   7.707  0.4875  0.1708  0.0204
   16loPI   C1B  253   5.235  11.661   9.645 -0.2324 -0.0553 -0.3596
   16loPI   C2B  254   5.181  11.639   9.258  0.0030 -0.2378 -0.1985
   16loPI   C3B  255   5.193  11.634   8.776 -0.1483 -0.1334  0.3083
   16loPI   C4B  256   5.022  11.726   8.373 -0.2102 -0.0715 -0.6213
   17loPI    C1  257   5.858   9.508  10.788 -0.2036 -0.2396  0.1364
   17loPI    C2  258   5.817   9.835  11.015 -0.2460 -0.1121 -0.0516
   17loPI    C3  259   6.152   9.617  11.037 -0.0499  0.1674 -0.2096
   17loPI   PO4  260   5.588   9.548  10.540  0.3455  0.0773 -0.1101
   17loPI   GL1  261   5.622   9.428  10.134  0.1022  0.0210 -0.0727
   17loPI   GL2  262   5.343   9.669   9.974  0.1506 -0.0368  0.2537
   17loPI   C1A  263   5.712   9.193   9.740  0.5071  0.0940 -0.0806
   17loPI   C2A  264   5.705   9.284   9.289 -0.1326  0.1059  0.0519
   17loPI   C3A  265   5.599   9.330   8.894 -0.0508  0.2531 -0.0599
   17loPI   C4A  266   5.420   9.274   8.529 -0.1827  0.0727 -0.1777
   17loPI   C5A  267   5.423   9.383   8.057  0.1583 -0.1294 -0.4422
   17loPI   C6A  268   5.264   9.473   7.642  0.0934 -0.1216 -0.1273
   17loPI   C1B  269   5.353   9.567   9.515 -0.1690  0.0597 -0.0730
   17loPI   C2B  270   5.121   9.538   9.117 -0.2419  0.3746  0.3013
   17loPI   C3B  271   5.047   9.519   8.702  0.3071 -0.1346  0.3025
   17loPI   C4B  272   5.044   9.685   8.291 -0.2136  0.0179 -0.0678
   18loPI    C1  273  17.443  10.185  10.728  0.3084  0.4023 -0.3441
   18loPI    C2  274  17.325  10.096  11.100 -0.0179  0.0994 -0.5136
   18loPI    C3  275  17.645  10.329  11.041  0.0670  0.1097 -0.0465
   18loPI   PO4  276  17.382   9.923  10.574  0.2406 -0.1471 -0.1052
   18loPI   GL1  277  17.449   9.890  10.153  0.0147 -0.4173  0.0534
   18loPI   GL2  278  17.749  10.051  10.173  0.2419  0.1618  0.0295
   18loPI   C1A  279  17.492   9.991   9.728 -0.3258 -0.1734  0.2393
   18loPI   C2A  280  17.536   9.922   9.177 -0.0508  0.2308  0.1317
   18loPI   C3A  281  17.474   9.911   8.655 -0.0355  0.0506  0.0632
   18loPI   C4A  282  17.441  10.182   8.203 -0.1815 -0.3718  0.0167
   18loPI   C5A  283  17.625  10.576   8.094  0.2338 -0.0567  0.1819
   18loPI   C6A  284  17.582  10.813   7.800 -0.1957 -0.2734  0.2090
   18loPI   C1B  285  17.984  10.205   9.810 -0.2185 -0.0321  0.1409
   18loPI   C2B  286  17.979  10.141   9.350  0.0816  0.0042  0.1077
   18loPI   C3B  287  17.875  10.133   8.921 -0.0846  0.0936  0.0059
   18loPI   C4B  288  17.917  10.128   8.480  0.3205 -0.1336  0.0041
   19loPI    C1  289   2.555   0.242  11.089  0.2352  0.1851 -0.0301
   19loPI    C2  290   2.758   0.411  11.390  0.0265  0.0070  0.2152
   19loPI    C3  291   2.464   0.151  11.468 -0.1027  0.0398 -0.1422
   19loPI   PO4  292   2.761   0.238  10.845  0.0892 -0.1286  0.0695
   19loPI   GL1  293   2.759   0.543  10.472 -0.0455  0.2012  0.1299
   19loPI   GL2  294   2.973   0.506  10.245 -0.1210  0.0804 -0.0683
   19loPI   C1A  295   2.467   0.566  10.130 -0.1571 -0.0861 -0.1611
   19loPI   C2A  296   2.508   0.693   9.692  0.0746  0.1396 -0.0279
   19loPI   C3A  297   2.420   0.652   9.258  0.0094 -0.0390 -0.1316
   19loPI   C4A  298   2.394   0.658   8.824 -0.1420 -0.1165  0.1901
   19loPI   C5A  299   2.495   0.587   8.387 -0.0701  0.1570  0.1177
   19loPI   C6A  300   2.729   0.237   8.167  0.0066  0.0079  0.3429
   19loPI   C1B  301   2.906   0.369   9.932  0.0302 -0.1566 -0.0499
   19loPI   C2B  302   2.982   0.489   9.489 -0.1597  0.2173 -0.1428
   19loPI   C3B  303   2.852   0.507   9.109 -0.0435  0.0703  0.4542
   19loPI   C4B  304   2.897   0.355   8.660 -0.0607  0.1484  0.0429
   20loPI    C1  305  14.878   7.213  10.532  0.0708  0.2316  0.0614
   20loPI    C2  306  14.677   7.423  10.807  0.0842  0.1192  0.1582
   20loPI    C3  307  14.667   7.024  10.815  0.0009  0.1154 -0.0672
   20loPI   PO4  308  14.848   7.373  10.324 -0.0473 -0.1429  0.1110
   20loPI   GL1  309  15.114   7.297  10.048  0.0338  0.1410 -0.0431
   20loPI   GL2  310  14.933   6.996   9.873  0.3061  0.0247 -0.1852
   20loPI   C1A  311  15.369   7.434   9.652 -0.3183  0.1956  0.3393
   20loPI   C2A  312  15.247   7.517   9.206  0.3453  0.0796 -0.3263
   20loPI   C3A  313  15.266   7.584   8.787  0.3575  0.0317 -0.0627
   20loPI   C4A  314  15.331   7.559   8.384  0.2608 -0.0299  0.1292
   20loPI   C5A  315  15.182   7.477   7.877 -0.1590 -0.2340  0.0425
   20loPI   C6A  316  15.358   7.091   7.658  0.0241  0.1073  0.0314
   20loPI   C1B  317  14.868   7.302   9.620  0.0278 -0.0558 -0.0157
   20loPI   C2B  318  14.820   7.250   9.215  0.0107 -0.3426 -0.1159
   20loPI   C3B  319  14.841   7.357   8.795 -0.1763  0.0259  0.0017
   20loPI   C4B  320  14.896   7.285   8.457 -0.0458  0.2719 -0.1109
   21loPI    C1  321  10.081   1.120  10.301 -0.1129 -0.0788  0.2707
   21loPI    C2  322  10.328   1.266  10.023 -0.4846 -0.0903 -0.0753
   21loPI    C3  323  10.384   1.358  10.409  0.2231 -0.3225 -0.1079
   21loPI   PO4  324   9.987   0.923  10.142  0.0735  0.1279  0.4025
   21loPI   GL1  325  10.188   0.979   9.653 -0.1593  0.0051  0.0023
   21loPI   GL2  326  10.428   0.751   9.728  0.3143  0.0077 -0.1092
   21loPI   C1A  327  10.299   1.021   9.223 -0.0298  0.2789 -0.2008
   21loPI   C2A  328  10.284   1.071   8.833  0.1243  0.4484  0.0932
   21loPI   C3A  329  10.167   1.082   8.391  0.0314  0.3069  0.0396
   21loPI   C4A  330  10.189   0.895   8.051 -0.1942 -0.1112 -0.2488
   21loPI   C5A  331  10.329   0.722   7.654  0.2672 -0.0675 -0.0699
   21loPI   C6A  332  10.549   0.431   7.426 -0.2467  0.1107 -0.1024
   21loPI   C1B  333  10.698   0.732   9.379  0.0845 -0.1029  0.1072
   21loPI   C2B  334  10.767   0.727   8.928  0.2792  0.1020  0.0794
   21loPI   C3B  335  10.605   0.698   8.475 -0.1430 -0.0923 -0.1624
   21loPI   C4B  336  10.720   0.670   7.962  0.3295 -0.0494  0.1036
   22loPI    C1  337   8.826   4.084   9.811 -0.0554 -0.1733  0.0555
   22loPI    C2  338   9.065   4.161  10.122 -0.1692 -0.0249  0.1077
   22loPI    C3  339   8.940   3.787  10.054 -0.1852 -0.0499  0.2708
   22loPI   PO4  340   8.970   4.180   9.536  0.0384 -0.0759  0.1158
   22loPI   GL1  341   8.826   4.314   9.166 -0.0644  0.0389  0.1213
   22loPI   GL2  342   8.653   3.974   9.189 -0.0300 -0.0015  0.0677
   22loPI   C1A  343   8.621   4.380   8.815  0.3026 -0.0753  0.4116
   22loPI   C2A  344   8.593   4.063   8.460  0.2548 -0.3237  0.1260
   22loPI   C3A  345   8.631   3.856   8.093  0.0138  0.2857 -0.1667
   22loPI   C4A  346   8.756   3.758   7.811  0.4861  0.0992  0.1813
   22loPI   C5A  347   8.942   3.950   7.457 -0.1272 -0.1263  0.1295
   22loPI   C6A  348   9.365   4.063   7.334  0.0829  0.0771  0.0349
   22loPI   C1B  349   8.545   3.645   8.988 -0.0983  0.4005 -0.3602
   22loPI   C2B  350   8.567   3.591   8.576 -0.2688  0.1481 -0.3381
   22loPI   C3B  351   8.461   3.444   8.139  0.4490 -0.1292  0.1712
   22loPI   C4B  352   8.267   3.169   7.920  0.1106 -0.0529 -0.1205
   23loPI    C1  353  16.816  11.828  10.577 -0.1778 -0.2655  0.0562
   23loPI    C2  354  16.513  12.089  10.576 -0.0204 -0.0806  0.0597
   23loPI    C3  355  16.567  11.847  10.889 -0.0080  0.0713  0.1759
   23loPI   PO4  356  16.991  11.962  10.446 -0.1804  0.0335  0.0437
   23loPI   GL1  357  17.052  12.138  10.069  0.0822 -0.3240  0.0055
   23loPI   GL2  358  16.707  11.981  10.055 -0.1393 -0.1806  0.0247
   23loPI   C1A  359  17.100  12.245   9.721 -0.2812  0.0647 -0.0278
   23loPI   C2A  360  17.036  12.261   9.294  0.1221  0.0621  0.2902
   23loPI   C3A  361  17.031  12.232   8.936 -0.0470  0.0284  0.2644
   23loPI   C4A  362  16.984  12.199   8.491 -0.2147  0.1081  0.1483
   23loPI   C5A  363  17.426  12.228   8.193 -0.3518 -0.0394  0.1202
   23loPI   C6A  364  17.841  12.122   8.176 -0.1026 -0.1358 -0.0447
   23loPI   C1B  365  16.630  11.952   9.576 -0.1245  0.2858  0.1271
   23loPI   C2B  366  16.601  11.930   9.149 -0.2229  0.1409 -0.1273
   23loPI   C3B  367  16.566  11.945   8.720 -0.1735 -0.0648 -0.1898
   23loPI   C4B  368  16.499  12.194   8.431 -0.5772  0.1753  0.0879
   24loPI    C1  369   0.146   8.630  11.075 -0.1650 -0.1906 -0.1154
   24loPI    C2  370  -0.184   8.684  11.294 -0.0542 -0.0937  0.0294
   24loPI    C3  371   0.174   8.780  11.445  0.0228 -0.0185 -0.1974
   24loPI   PO4  372   0.117   8.838  10.809  0.0705  0.1725  0.2092
   24loPI   GL1  373  -0.011   8.908  10.343  0.1744 -0.1839  0.1349
   24loPI   GL2  374   0.032   8.550  10.303  0.3087 -0.0319  0.3099
   24loPI   C1A  375   0.017   8.865   9.835 -0.2196 -0.1744 -0.1442
   24loPI   C2A  376   0.065   8.870   9.385 -0.0885 -0.1090  0.0155
   24loPI   C3A  377   0.018   8.834   8.974  0.1612  0.0016  0.0451
   24loPI   C4A  378   0.059   8.820   8.633 -0.2269 -0.1725 -0.2527
   24loPI   C5A  379   0.024   8.639   8.307 -0.0665  0.2110  0.1097
   24loPI   C6A  380  -0.402   8.613   7.998 -0.2054 -0.1644 -0.0092
   24loPI   C1B  381   0.054   8.376   9.918 -0.0478  0.2253 -0.0307
   24loPI   C2B  382   0.061   8.432   9.551  0.2686  0.1606 -0.2482
   24loPI   C3B  383  -0.009   8.308   9.090 -0.0666 -0.1654 -0.0040
   24loPI   C4B  384  -0.023   8.284   8.650 -0.1005  0.3480  0.1413
   25loPI    C1  385   4.033   1.049  10.700  0.0722  0.0145 -0.1883
   25loPI    C2  386   4.275   1.366  10.675  0.1075 -0.0228 -0.3295
   25loPI    C3  387   4.312   1.066  10.413  0.1785 -0.2164 -0.1012
   25loPI   PO4  388   3.740   1.174  10.771  0.1028  0.2026  0.3138
   25loPI   GL1  389   3.439   0.873  10.628  0.0296  0.0086 -0.0520
   25loPI   GL2  390   3.132   0.939  10.483  0.0140  0.0587 -0.3353
   25loPI   C1A  391   3.400   0.716  10.135 -0.1135  0.3117  0.1523
   25loPI   C2A  392   3.379   0.740   9.654 -0.1093 -0.1622  0.0508
   25loPI   C3A  393   3.284   0.776   9.192  0.0657 -0.2105 -0.4310
   25loPI   C4A  394   3.257   0.684   8.772 -0.0924  0.0087 -0.2358
   25loPI   C5A  395   3.048   0.764   8.355 -0.0105  0.0945  0.1931
   25loPI   C6A  396   2.738   0.845   7.878  0.0791  0.1247 -0.1546
   25loPI   C1B  397   2.890   0.941  10.004 -0.3815  0.0718 -0.0160
   25loPI   C2B  398   2.914   1.034   9.592 -0.1943  0.3034 -0.3433
   25loPI   C3B  399   2.909   1.063   9.201  0.0827 -0.3149 -0.1584
   25loPI   C4B  400   2.807   0.969   8.832 -0.1057  0.1904 -0.1961
   26loPI    C1  401   6.566  11.277  10.882 -0.0882  0.0137 -0.1509
   26loPI    C2  402   6.661  11.552  11.157 -0.3115 -0.1298  0.0736
   26loPI    C3  403   6.903  11.240  11.095 -0.1686 -0.0009 -0.0250
   26loPI   PO4  404   6.485  11.398  10.630 -0.1356 -0.1908 -0.2668
   26loPI   GL1  405   6.419  11.710  10.244  0.1101  0.2525 -0.0243
   26loPI   GL2  406   6.215  11.392  10.173  0.1142  0.2229 -0.1959
   26loPI   C1A  407   6.595  11.799   9.846  0.0128 -0.0779 -0.3724
   26loPI   C2A  408   6.558  11.810   9.395  0.4213  0.0727  0.1059
   26loPI   C3A  409   6.485  11.888   8.987  0.4403 -0.2152  0.0219
   26loPI   C4A  410   6.552  11.744   8.513  0.2611  0.1617  0.1618
   26loPI   C5A  411   6.386  11.607   8.217  0.1503 -0.2064 -0.0847
   26loPI   C6A  412   6.674  11.377   7.950 -0.1480  0.1440 -0.0078
   26loPI   C1B  413   6.062  11.517   9.756  0.0737  0.0129  0.2225
   26loPI   C2B  414   6.076  11.596   9.226  0.3132  0.0216  0.0524
   26loPI   C3B  415   6.118  11.580   8.782  0.0971  0.2981  0.1201
   26loPI   C4B  416   5.933  11.635   8.430  0.4851 -0.1098 -0.0657
   27loPI    C1  417   5.861  12.350  10.852  0.2744  0.1409 -0.0276
   27loPI    C2  418   6.131  12.189  11.099  0.2461  0.0687 -0.0436
   27loPI    C3  419   5.947  12.529  11.199  0.3081  0.0928 -0.0111
   27loPI   PO4  420   5.659  12.084  10.761  0.2135  0.1714 -0.1942
   27loPI   GL1  421   5.566  12.032  10.272  0.3005 -0.3956 -0.3292
   27loPI   GL2  422   5.513  12.303  10.200  0.0845 -0.1072 -0.4481
   27loPI   C1A  423   5.686  11.925   9.948 -0.0753  0.2475 -0.0166
   27loPI   C2A  424   5.769  11.900   9.534  0.0621 -0.2222  0.0330
   27loPI   C3A  425   5.657  11.870   9.051  0.2058  0.1718 -0.0654
   27loPI   C4A  426   5.598  11.950   8.636 -0.1606 -0.1513  0.1767
   27loPI   C5A  427   5.391  12.035   8.228 -0.1560  0.1037  0.3126
   27loPI   C6A  428   4.978  12.069   8.023 -0.0736 -0.1390 -0.1343
   27loPI   C1B  429   5.256  12.240   9.851  0.0583  0.1434 -0.2946
   27loPI   C2B  430   5.307  12.176   9.486  0.2011 -0.1061 -0.1258
   27loPI   C3B  431   5.214  12.126   9.128  0.1566 -0.0183 -0.0723
   27loPI   C4B  432   5.088  12.178   8.682  0.1499 -0.0193 -0.4611
   28loPI    C1  433  15.264  18.265  10.944 -0.0906  0.0198 -0.0041
   28loPI    C2  434  15.543  18.444  11.168  0.0577 -0.0748 -0.1104
   28loPI    C3  435  15.457  18.058  11.228 -0.1631 -0.0062  0.0264
   28loPI   PO4  436  15.333  18.297  10.703 -0.0176 -0.2191  0.1814
   28loPI   GL1  437  15.414  18.577  10.380  0.1879  0.1873 -0.3045
   28loPI   GL2  438  15.692  18.462  10.279  0.1661 -0.0190 -0.1266
   28loPI   C1A  439  15.286  18.557   9.942 -0.1061  0.0056 -0.1753
   28loPI   C2A  440  15.076  18.589   9.510 -0.0245 -0.0329 -0.1453
   28loPI   C3A  441  15.140  18.484   9.098 -0.1130  0.1742  0.1275
   28loPI   C4A  442  15.281  18.500   8.634  0.0995 -0.1747 -0.0669
   28loPI   C5A  443  15.179  18.643   8.258  0.1167 -0.0425 -0.0601
   28loPI   C6A  444  15.256  18.824   7.880 -0.0524 -0.1128 -0.3673
   28loPI   C1B  445  15.678  18.229   9.960  0.3051 -0.0498 -0.1556
   28loPI   C2B  446  15.510  18.293   9.589 -0.0084  0.1385  0.2695
   28loPI   C3B  447  15.690  18.146   9.221 -0.0835  0.1564  0.0702
   28loPI   C4B  448  15.653  18.219   8.837 -0.1588 -0.0448 -0.0478
   29loPI    C1  449  17.355   4.167  10.939  0.0312 -0.1137  0.0171
   29loPI    C2  450  17.022   4.272  11.134  0.0534  0.2223 -0.1186
   29loPI    C3  451  17.378   4.395  11.267  0.1219 -0.0867 -0.0079
   29loPI   PO4  452  17.422   4.195  10.684  0.3221  0.1056  0.0701
   29loPI   GL1  453  17.437   3.866  10.303 -0.1021  0.2092  0.0590
   29loPI   GL2  454  17.634   4.006  10.339 -0.1664 -0.0366 -0.2005
   29loPI   C1A  455  17.413   3.664   9.914 -0.1145  0.0490 -0.0481
   29loPI   C2A  456  17.446   3.631   9.532  0.1681 -0.0396 -0.0128
   29loPI   C3A  457  17.422   3.564   9.041 -0.0666  0.1514 -0.2030
   29loPI   C4A  458  17.411   3.649   8.620  0.0570  0.0654  0.3936
   29loPI   C5A  459  17.389   3.865   8.205  0.1910 -0.0969 -0.2105
   29loPI   C6A  460  17.401   4.222   8.002  0.0667  0.1353  0.0918
   29loPI   C1B  461  17.522   4.136   9.912 -0.0283  0.2320 -0.1473
   29loPI   C2B  462  17.426   4.143   9.488  0.0133  0.0235  0.1803
   29loPI   C3B  463  17.487   4.098   9.055 -0.1557 -0.1202 -0.1526
   29loPI   C4B  464  17.447   4.178   8.665 -0.0021 -0.0286 -0.1591
   30loPI    C1  465   5.381  14.063  10.740 -0.0975 -0.0297 -0.0434
   30loPI    C2  466   5.758  13.945  10.678 -0.0286  0.1838 -0.0413
   30loPI    C3  467   5.599  13.922  11.045 -0.0921 -0.1101 -0.0845
   30loPI   PO4  468   5.382  14.293  10.547 -0.1234  0.0315  0.0401
   30loPI   GL1  469   5.270  14.362  10.077  0.0949  0.2726  0.1473
   30loPI   GL2  470   4.896  14.318  10.019 -0.0039  0.0571  0.2844
   30loPI   C1A  471   5.380  14.291   9.699  0.0670 -0.1020 -0.0644
   30loPI   C2A  472   5.261  14.297   9.221  0.0842 -0.2602 -0.0240
   30loPI   C3A  473   5.080  14.412   8.735 -0.3619 -0.0437 -0.1600
   30loPI   C4A  474   5.069  14.269   8.266  0.2046  0.3224 -0.5575
   30loPI   C5A  475   5.403  14.545   7.990 -0.2218 -0.1619  0.0815
   30loPI   C6A  476   5.666  14.926   8.084  0.0458 -0.1078 -0.3811
   30loPI   C1B  477   4.850  14.347   9.488 -0.4054  0.0859 -0.3593
   30loPI   C2B  478   4.821  14.567   9.198  0.0087 -0.4319  0.0964
   30loPI   C3B  479   4.670  14.662   8.799 -0.1051  0.1766  0.0635
   30loPI   C4B  480   4.609  14.541   8.406  0.2761 -0.2053  0.4920
   31loPI    C1  481   5.188   0.468  10.630  0.1977  0.1539 -0.0332
   31loPI    C2  482   5.363   0.248  10.915 -0.0554  0.0629  0.0541
   31loPI    C3  483   5.034   0.461  10.999  0.0082  0.2285 -0.1096
   31loPI   PO4  484   5.275   0.478  10.499 -0.1146  0.0032 -0.1238
   31loPI   GL1  485   5.151   0.441  10.068 -0.2097  0.0145 -0.1625
   31loPI   GL2  486   5.442   0.193  10.096  0.2577  0.0712 -0.0808
   31loPI   C1A  487   4.831   0.372   9.924 -0.2031 -0.1558  0.0791
   31loPI   C2A  488   4.709   0.463   9.534  0.3383 -0.0754  0.0208
   31loPI   C3A  489   4.658   0.452   9.089  0.0408  0.1238  0.0742
   31loPI   C4A  490   4.736   0.297   8.684 -0.0943  0.1559  0.2380
   31loPI   C5A  491   4.638   0.390   8.221  0.0121  0.0874 -0.3961
   31loPI   C6A  492   4.447   0.356   7.974 -0.1186 -0.2258  0.1738
   31loPI   C1B  493   5.219   0.234   9.652 -0.3534 -0.1281 -0.1451
   31loPI   C2B  494   5.094   0.276   9.188 -0.2863 -0.1818  0.0595
   31loPI   C3B  495   5.179   0.104   8.755  0.0376  0.2628 -0.0058
   31loPI   C4B  496   5.084   0.070   8.354  0.4194 -0.0038 -0.1774
   32loPI    C1  497   6.050   4.862  10.396  0.1409  0.0917 -0.2762
   32loPI    C2  498   5.658   4.896  10.471  0.1187 -0.4145 -0.1241
   32loPI    C3  499   5.911   4.810  10.768  0.3091 -0.3694 -0.2713
   32loPI   PO4  500   5.986   4.766  10.173 -0.1817 -0.1052  0.2788
   32loPI   GL1  501   5.819   5.076   9.832 -0.0046 -0.1867 -0.0519
   32loPI   GL2  502   6.096   5.250   9.890  0.2766  0.0308  0.2217
   32loPI   C1A  503   5.494   5.180   9.642  0.0753 -0.0921  0.1727
   32loPI   C2A  504   5.442   5.202   9.224 -0.1666  0.0019 -0.2763
   32loPI   C3A  505   5.455   5.175   8.759  0.1561  0.2749 -0.2453
   32loPI   C4A  506   5.545   5.037   8.407  0.2362  0.0855 -0.0164
   32loPI   C5A  507   5.792   5.214   8.021  0.0502  0.0477 -0.4042
   32loPI   C6A  508   5.710   5.240   7.610  0.0559  0.4073  0.2507
   32loPI   C1B  509   5.903   5.302   9.407 -0.2168 -0.4425  0.0523
   32loPI   C2B  510   5.873   5.240   9.032 -0.2868  0.1315  0.0416
   32loPI   C3B  511   5.969   5.422   8.680 -0.1341  0.0738 -0.1309
   32loPI   C4B  512   6.173   5.396   8.305  0.0759  0.2763  0.0074
   33loPI    C1  513  13.787  14.212  11.087 -0.2388  0.0053  0.3204
   33loPI    C2  514  14.076  14.409  11.280  0.0615 -0.1645  0.0532
   33loPI    C3  515  14.000  14.026  11.369  0.1565 -0.2237 -0.1163
   33loPI   PO4  516  13.758  14.342  10.839 -0.3543  0.0278 -0.2033
   33loPI   GL1  517  13.385  14.229  10.611 -0.0939  0.2380  0.2372
   33loPI   GL2  518  13.223  13.871  10.560  0.0033 -0.0747 -0.0085
   33loPI   C1A  519  13.425  14.382  10.177  0.3863 -0.2284 -0.1600
   33loPI   C2A  520  13.398  14.382   9.783 -0.3838 -0.1548 -0.2690
   33loPI   C3A  521  13.481  14.331   9.279  0.0611 -0.0667  0.0520
   33loPI   C4A  522  13.408  14.356   8.846 -0.2637 -0.2130 -0.2274
   33loPI   C5A  523  13.197  14.191   8.480  0.5057 -0.1789  0.0108
   33loPI   C6A  524  12.915  14.338   8.137 -0.0945 -0.0568  0.1691
   33loPI   C1B  525  13.151  13.493  10.294 -0.2221  0.0700  0.3046
   33loPI   C2B  526  12.973  13.560   9.909  0.2619  0.0207 -0.0383
   33loPI   C3B  527  12.976  13.637   9.461 -0.0414 -0.1109  0.1958
   33loPI   C4B  528  12.987  13.494   9.000  0.1601  0.0109 -0.3069
   34loPI    C1  529  17.510  11.460  11.095 -0.1098 -0.0746 -0.0257
   34loPI    C2  530  17.715  11.252  11.368  0.1549  0.1020 -0.0857
   34loPI    C3  531  17.731  11.652  11.367 -0.1949  0.1193 -0.0916
   34loPI   PO4  532  17.563  11.323  10.857 -0.0571  0.1960 -0.1592
   34loPI   GL1  533  17.553  11.417  10.444 -0.0271  0.0097  0.0509
   34loPI   GL2  534  17.427  11.210  10.264  0.1573  0.4456 -0.5521
   34loPI   C1A  535  17.620  11.525   9.967 -0.1359 -0.1330 -0.1908
   34loPI   C2A  536  17.627  11.531   9.535  0.3529 -0.2360  0.1232
   34loPI   C3A  537  17.438  11.556   9.165 -0.1967 -0.0382  0.3038
   34loPI   C4A  538  17.434  11.454   8.699  0.0125 -0.1024  0.1387
   34loPI   C5A  539  17.451  11.594   8.337  0.1016  0.2109 -0.1673
   34loPI   C6A  540  17.116  11.856   8.000 -0.1028  0.1375  0.0174
   34loPI   C1B  541  17.162  11.190   9.907 -0.0094  0.0581  0.3254
   34loPI   C2B  542  17.147  11.256   9.483 -0.5970 -0.0502 -0.0611
   34loPI   C3B  543  16.991  11.232   9.036 -0.1033 -0.2959 -0.2644
   34loPI   C4B  544  16.951  11.113   8.621 -0.1879  0.2616 -0.2473
   35loPI    C1  545   7.591  12.612  11.127 -0.0849 -0.0565  0.1281
   35loPI    C2  546   7.362  12.939  11.122  0.1276  0.0937  0.1183
   35loPI    C3  547   7.615  12.877  11.426 -0.0065 -0.1284  0.1864
   35loPI   PO4  548   7.699  12.691  10.779  0.0598 -0.0795 -0.0027
   35loPI   GL1  549   7.580  12.586  10.409  0.3693  0.0715  0.1323
   35loPI   GL2  550   7.975  12.437  10.363  0.1265  0.0405  0.0367
   35loPI   C1A  551   7.501  12.390   9.973 -0.1948  0.0196  0.1811
   35loPI   C2A  552   7.487  12.417   9.492 -0.2220  0.2137 -0.0892
   35loPI   C3A  553   7.523  12.470   9.083  0.1224  0.2608 -0.1201
   35loPI   C4A  554   7.530  12.416   8.629  0.2696 -0.1035  0.0447
   35loPI   C5A  555   7.468  12.319   8.288  0.1461  0.1267  0.1010
   35loPI   C6A  556   7.178  12.368   7.957 -0.1464 -0.3626  0.1037
   35loPI   C1B  557   8.388  12.438  10.158  0.3661  0.0161 -0.0401
   35loPI   C2B  558   8.431  12.386   9.769 -0.0779 -0.0940 -0.0852
   35loPI   C3B  559   8.401  12.335   9.236 -0.1561 -0.0870 -0.0874
   35loPI   C4B  560   8.431  12.412   8.793 -0.0860  0.0300 -0.2372
   36loPI    C1  561  14.595   2.122  11.206  0.0981  0.0212  0.0015
   36loPI    C2  562  14.198   2.107  11.161  0.0986 -0.3171  0.0801
   36loPI    C3  563  14.365   2.403  11.372 -0.1098 -0.1685  0.0393
   36loPI   PO4  564  14.636   2.019  10.913 -0.0968 -0.1359 -0.1767
   36loPI   GL1  565  14.632   2.174  10.536  0.2534 -0.1307 -0.1613
   36loPI   GL2  566  14.562   1.861  10.404  0.1082 -0.3235 -0.1283
   36loPI   C1A  567  14.625   2.245  10.134 -0.0138  0.0817  0.1471
   36loPI   C2A  568  14.691   2.097   9.656  0.0204 -0.1135  0.0079
   36loPI   C3A  569  14.684   2.082   9.340  0.2778 -0.0121  0.1631
   36loPI   C4A  570  14.735   2.044   8.897 -0.1156 -0.1030 -0.0407
   36loPI   C5A  571  14.874   1.977   8.514  0.0586  0.0264 -0.3315
   36loPI   C6A  572  14.996   2.024   8.149  0.2999 -0.0579  0.1923
   36loPI   C1B  573  14.620   1.773   9.997 -0.0686 -0.1486  0.1878
   36loPI   C2B  574  14.777   1.602   9.553  0.1207  0.0328  0.0651
   36loPI   C3B  575  14.706   1.454   9.145 -0.1735  0.0890  0.0390
   36loPI   C4B  576  14.831   1.488   8.746 -0.2367  0.1948 -0.0323
   37loPI    C1  577   1.629   9.017  10.472 -0.0988 -0.2912  0.0741
   37loPI    C2  578   1.434   8.921  10.807 -0.0598 -0.2249  0.1159
   37loPI    C3  579   1.794   8.763  10.733  0.0578 -0.0213  0.2425
   37loPI   PO4  580   1.434   9.064  10.308 -0.1941  0.1707  0.1847
   37loPI   GL1  581   1.496   9.191   9.767 -0.2667 -0.0996 -0.0413
   37loPI   GL2  582   1.606   8.820   9.827 -0.2754 -0.0293  0.1492
   37loPI   C1A  583   1.406   9.057   9.347 -0.1810 -0.3177  0.0860
   37loPI   C2A  584   1.352   9.107   8.920 -0.2316  0.1237  0.1990
   37loPI   C3A  585   1.253   8.991   8.542  0.1100 -0.0341  0.2192
   37loPI   C4A  586   1.340   9.096   8.085  0.1685 -0.2229 -0.0936
   37loPI   C5A  587   1.079   8.989   7.747 -0.3047  0.1608 -0.2167
   37loPI   C6A  588   0.999   8.733   7.433 -0.3203  0.0039  0.0356
   37loPI   C1B  589   1.370   8.543   9.476  0.0043 -0.0052  0.0962
   37loPI   C2B  590   1.360   8.524   9.060 -0.1562  0.0323  0.1246
   37loPI   C3B  591   1.359   8.532   8.597  0.1668  0.2238  0.1417
   37loPI   C4B  592   1.378   8.607   8.239 -0.0758 -0.0974  0.3008
   38loPI    C1  593   4.543   8.141  10.812  0.3251  0.2304 -0.0076
   38loPI    C2  594   4.469   8.466  11.033 -0.2725  0.1203 -0.0293
   38loPI    C3  595   4.648   8.149  11.198 -0.0668  0.3025  0.1022
   38loPI   PO4  596   4.624   8.273  10.619 -0.1414  0.1515 -0.1004
   38loPI   GL1  597   4.777   8.522  10.209 -0.1200 -0.1972  0.1569
   38loPI   GL2  598   4.874   8.806  10.150  0.1206 -0.1962 -0.1843
   38loPI   C1A  599   4.667   8.245   9.942  0.0746  0.4657  0.1774
   38loPI   C2A  600   4.698   8.211   9.560 -0.1060 -0.3042 -0.1887
   38loPI   C3A  601   4.659   8.373   9.146  0.2375 -0.0095  0.1610
   38loPI   C4A  602   4.513   8.350   8.699  0.0144  0.1768 -0.0331
   38loPI   C5A  603   4.537   8.208   8.279  0.2267  0.2262 -0.0064
   38loPI   C6A  604   4.473   8.408   7.878  0.1438  0.3386 -0.0764
   38loPI   C1B  605   4.799   8.650   9.732 -0.0491 -0.1710  0.3948
   38loPI   C2B  606   4.681   8.839   9.363  0.0496  0.0461  0.1445
   38loPI   C3B  607   4.645   8.816   8.977 -0.1535 -0.1775  0.0904
   38loPI   C4B  608   4.531   8.908   8.538  0.1306  0.1341 -0.0263
   39loPI    C1  609   5.337  17.737  10.581  0.1031  0.0725  0.1741
   39loPI    C2  610   5.390  17.405  10.799 -0.0950  0.0360  0.1685
   39loPI    C3  611   5.181  17.711  10.949  0.0688  0.1509  0.1652
   39loPI   PO4  612   5.239  17.589  10.361 -0.3362  0.2639  0.0081
   39loPI   GL1  613   5.244  17.360  10.013 -0.0866 -0.0744 -0.0845
   39loPI   GL2  614   5.492  17.317  10.024 -0.0207  0.0434  0.1193
   39loPI   C1A  615   5.215  17.499   9.609 -0.0669  0.1051  0.1656
   39loPI   C2A  616   5.123  17.489   9.165 -0.2207 -0.2030 -0.2138
   39loPI   C3A  617   5.245  17.416   8.817  0.0156 -0.1476 -0.3947
   39loPI   C4A  618   5.151  17.346   8.468 -0.2579 -0.2921 -0.1714
   39loPI   C5A  619   4.918  17.223   8.044 -0.1711  0.1965  0.2266
   39loPI   C6A  620   4.608  17.326   7.749  0.0237  0.1731 -0.3365
   39loPI   C1B  621   5.672  17.229   9.573 -0.0016 -0.0459  0.2287
   39loPI   C2B  622   5.571  17.244   9.164  0.0773 -0.1205 -0.0456
   39loPI   C3B  623   5.679  17.161   8.873 -0.2659 -0.0386  0.1799
   39loPI   C4B  624   5.571  17.054   8.511 -0.1042  0.1922 -0.0821
   40loPI    C1  625  16.714   6.972  10.568 -0.0722  0.0332  0.0268
   40loPI    C2  626  16.636   7.069  10.948 -0.2074  0.0191  0.0034
   40loPI    C3  627  17.014   7.023  10.827 -0.1654 -0.0148  0.1455
   40loPI   PO4  628  16.479   7.148  10.471 -0.4758  0.0668  0.1252
   40loPI   GL1  629  16.286   7.210  10.083 -0.5162 -0.0078 -0.1003
   40loPI   GL2  630  16.149   6.918  10.136  0.1055  0.2623 -0.0722
   40loPI   C1A  631  16.589   7.363   9.796  0.2775  0.1282 -0.2198
   40loPI   C2A  632  16.569   7.271   9.367 -0.1570  0.1011 -0.1712
   40loPI   C3A  633  16.618   7.235   8.988 -0.0469  0.1310 -0.0858
   40loPI   C4A  634  16.670   7.162   8.548  0.2106  0.1619  0.0524
   40loPI   C5A  635  16.701   7.105   8.160 -0.0684  0.1644  0.0072
   40loPI   C6A  636  16.944   7.027   7.816  0.1588  0.4072  0.1858
   40loPI   C1B  637  16.221   7.020   9.619  0.0778  0.2933  0.2139
   40loPI   C2B  638  16.172   7.055   9.145 -0.1864  0.2615  0.1592
   40loPI   C3B  639  16.159   7.097   8.731  0.1754  0.1460 -0.0268
   40loPI   C4B  640  16.224   6.980   8.310  0.1999  0.0445  0.0100
   41loPI    C1  641   9.847   5.889  10.258  0.0651 -0.0558  0.0311
   41loPI    C2  642   9.791   6.106  10.590  0.2194  0.0850 -0.0333
   41loPI    C3  643   9.594   5.761  10.540  0.3525 -0.0433  0.2996
   41loPI   PO4  644   9.847   6.103  10.081 -0.1743  0.0450 -0.1687
   41loPI   GL1  645  10.091   6.015   9.661  0.0389 -0.0957 -0.0444
   41loPI   GL2  646  10.357   5.844   9.561  0.1354 -0.1964  0.3503
   41loPI   C1A  647  10.042   6.379   9.312  0.3218  0.1084 -0.1746
   41loPI   C2A  648  10.294   6.667   9.123  0.2852 -0.1561 -0.1684
   41loPI   C3A  649  10.521   6.712   8.710 -0.1385 -0.1340  0.0782
   41loPI   C4A  650  10.650   6.778   8.199 -0.0418 -0.0536 -0.0453
   41loPI   C5A  651  10.965   6.865   7.877  0.0002  0.0894 -0.0667
   41loPI   C6A  652  11.268   7.132   7.787  0.1968 -0.1130  0.0621
   41loPI   C1B  653  10.327   5.961   9.097 -0.1552  0.0155  0.0917
   41loPI   C2B  654  10.206   6.264   8.858 -0.1311  0.2766  0.1727
   41loPI   C3B  655  10.123   6.361   8.489 -0.0161  0.1026 -0.0286
   41loPI   C4B  656   9.901   6.428   8.048 -0.1742 -0.1942 -0.1326
   42loPI    C1  657  16.362   2.043  11.161  0.0675 -0.1636  0.1115
   42loPI    C2  658  16.109   1.998  10.854  0.0648  0.1720  0.0606
   42loPI    C3  659  16.007   1.868  11.218 -0.0435  0.0117 -0.0259
   42loPI   PO4  660  16.539   2.230  11.038  0.0699  0.1430  0.1721
   42loPI   GL1  661  16.440   2.401  10.654 -0.2074 -0.3292 -0.1347
   42loPI   GL2  662  16.491   2.076  10.555  0.1528  0.3559 -0.0700
   42loPI   C1A  663  16.121   2.310  10.416 -0.0003 -0.3158  0.4750
   42loPI   C2A  664  16.124   2.331   9.928 -0.4623  0.0074 -0.0380
   42loPI   C3A  665  16.045   2.275   9.488 -0.2585  0.0122 -0.2213
   42loPI   C4A  666  16.212   2.212   8.993 -0.0563  0.2696  0.0661
   42loPI   C5A  667  16.284   2.287   8.593 -0.1772 -0.0331  0.0394
   42loPI   C6A  668  16.220   2.697   8.370 -0.1638  0.0612 -0.0029
   42loPI   C1B  669  16.556   2.094  10.085 -0.0539 -0.0679 -0.1774
   42loPI   C2B  670  16.471   2.056   9.675  0.0937  0.1023  0.1041
   42loPI   C3B  671  16.604   1.995   9.180  0.3682  0.2644  0.0830
   42loPI   C4B  672  16.700   2.048   8.720  0.1200  0.0608 -0.0734
   43loPI    C1  673  11.373  14.427  10.752 -0.0569 -0.3313 -0.2101
   43loPI    C2  674  11.008  14.268  10.791 -0.2438  0.1357  0.0240
   43loPI    C3  675  11.146  14.521  11.068  0.1843  0.1130 -0.1617
   43loPI   PO4  676  11.393  14.400  10.457  0.0308  0.0527 -0.2473
   43loPI   GL1  677  11.488  14.514  10.183 -0.1719  0.0605 -0.2483
   43loPI   GL2  678  11.561  14.755  10.090 -0.1486 -0.0678  0.1604
   43loPI   C1A  679  11.701  14.362   9.853  0.0333  0.2681  0.0806
   43loPI   C2A  680  11.675  14.189   9.306  0.0670 -0.0867 -0.0703
   43loPI   C3A  681  11.657  14.277   8.789  0.3836 -0.1459 -0.0830
   43loPI   C4A  682  11.610  14.350   8.432  0.0632  0.3166 -0.1618
   43loPI   C5A  683  11.623  14.575   8.052 -0.1176 -0.1068 -0.0730
   43loPI   C6A  684  11.528  14.982   8.054  0.3825 -0.1361 -0.0003
   43loPI   C1B  685  11.542  14.888   9.666  0.1393  0.0106 -0.1257
   43loPI   C2B  686  11.666  14.837   9.388  0.2353 -0.1719 -0.0201
   43loPI   C3B  687  11.676  14.801   8.976 -0.1271  0.0529 -0.4078
   43loPI   C4B  688  11.611  14.821   8.507 -0.1721  0.0529 -0.0262
   44loPI    C1  689   8.581  14.755  10.594 -0.1160  0.1680 -0.0392
   44loPI    C2  690   8.273  14.988  10.491 -0.1152  0.1673 -0.0431
   44loPI    C3  691   8.429  15.015  10.858 -0.2502  0.0252  0.0256
   44loPI   PO4  692   8.766  14.690  10.263  0.0965  0.1536 -0.2383
   44loPI   GL1  693   8.882  14.716   9.950 -0.1054 -0.2613  0.0988
   44loPI   GL2  694   8.764  14.799   9.669  0.1038  0.2509  0.1320
   44loPI   C1A  695   9.230  14.555   9.721  0.0009 -0.1567  0.0016
   44loPI   C2A  696   9.353  14.500   9.275 -0.2454  0.3158 -0.1864
   44loPI   C3A  697   9.400  14.533   8.904  0.1515  0.1309  0.3327
   44loPI   C4A  698   9.321  14.599   8.537 -0.1087  0.0777 -0.0522
   44loPI   C5A  699   9.174  14.392   8.151 -0.1728 -0.1394 -0.1334
   44loPI   C6A  700   9.483  14.092   7.986 -0.0216 -0.0811  0.0082
   44loPI   C1B  701   8.862  14.764   9.264 -0.0683 -0.2983  0.0892
   44loPI   C2B  702   8.903  14.832   8.894  0.2115  0.1688  0.3759
   44loPI   C3B  703   8.856  14.764   8.500  0.0464  0.3317  0.1667
   44loPI   C4B  704   8.739  14.626   8.055  0.1218  0.1526 -0.0268
   45loPI    C1  705   3.818   9.742  10.611  0.0938  0.0110  0.2122
   45loPI    C2  706   4.039  10.047  10.474 -0.2344 -0.0620 -0.5294
   45loPI    C3  707   3.666  10.112  10.604 -0.0387 -0.0448  0.0495
   45loPI   PO4  708   3.955   9.567  10.436  0.4362  0.1167 -0.2642
   45loPI   GL1  709   4.167   9.564  10.057  0.2869  0.0157 -0.1716
   45loPI   GL2  710   3.997   9.317   9.998 -0.1741  0.0220  0.1458
   45loPI   C1A  711   4.357   9.576   9.650 -0.1805  0.1416 -0.2743
   45loPI   C2A  712   4.325   9.651   9.261  0.3467  0.2237 -0.1631
   45loPI   C3A  713   4.142   9.555   8.827  0.2347 -0.1918 -0.1578
   45loPI   C4A  714   3.959   9.719   8.416 -0.1086 -0.1048  0.0820
   45loPI   C5A  715   4.107   9.638   7.998 -0.1590  0.0266 -0.0289
   45loPI   C6A  716   4.331   9.682   7.627 -0.1869  0.3095  0.0512
   45loPI   C1B  717   3.941   9.279   9.621  0.0487  0.1158  0.3593
   45loPI   C2B  718   3.685   9.244   9.217  0.1315 -0.1603  0.0013
   45loPI   C3B  719   3.690   9.372   8.819 -0.1354 -0.1023  0.0191
   45loPI   C4B  720   3.596   9.256   8.507  0.0596  0.1123  0.3374
   46loPI    C1  721   5.799  10.354  10.930  0.0334  0.2205 -0.1250
   46loPI    C2  722   5.482  10.592  10.987  0.1321  0.3324 -0.0379
   46loPI    C3  723   5.716  10.493  11.296 -0.0940 -0.1441 -0.0116
   46loPI   PO4  724   5.691  10.157  10.690 -0.1116 -0.3030 -0.1146
   46loPI   GL1  725   5.677   9.935  10.254 -0.4412 -0.2002 -0.1818
   46loPI   GL2  726   5.414  10.178  10.225  0.4438 -0.0625 -0.1650
   46loPI   C1A  727   5.795   9.926   9.794 -0.0554 -0.0127 -0.2036
   46loPI   C2A  728   5.810   9.819   9.370 -0.2233  0.1269  0.0154
   46loPI   C3A  729   5.573   9.844   9.031  0.0789 -0.0973 -0.3799
   46loPI   C4A  730   5.441   9.807   8.619 -0.1993 -0.0574 -0.0005
   46loPI   C5A  731   5.536   9.850   8.302 -0.0588 -0.2033 -0.0545
   46loPI   C6A  732   5.370   9.865   7.878  0.1329  0.3072 -0.2384
   46loPI   C1B  733   5.343  10.075   9.692  0.0173  0.0938 -0.1662
   46loPI   C2B  734   5.248  10.114   9.348  0.2443 -0.2360  0.1817
   46loPI   C3B  735   5.081  10.061   8.923  0.1952  0.2913  0.0595
   46loPI   C4B  736   5.056  10.166   8.508  0.1073 -0.0263 -0.3998
   47loPI    C1  737  17.964  16.317  10.898 -0.1945  0.1373 -0.0991
   47loPI    C2  738  18.242  16.152  11.133 -0.1478 -0.0646 -0.2926
   47loPI    C3  739  17.914  16.314  11.295  0.1638  0.3430 -0.0484
   47loPI   PO4  740  18.054  16.341  10.653 -0.0994  0.0133  0.0543
   47loPI   GL1  741  17.863  16.498  10.281 -0.1056  0.1838  0.0896
   47loPI   GL2  742  17.442  16.548  10.361 -0.0256 -0.4237  0.0894
   47loPI   C1A  743  18.017  16.375   9.926 -0.1267  0.3755 -0.0007
   47loPI   C2A  744  18.002  16.535   9.554  0.1680  0.1483  0.1203
   47loPI   C3A  745  18.049  16.481   9.175  0.2903  0.0952 -0.1595
   47loPI   C4A  746  18.126  16.453   8.693 -0.1094 -0.1563 -0.0012
   47loPI   C5A  747  17.927  16.504   8.304  0.2974 -0.1553 -0.1747
   47loPI   C6A  748  17.706  16.147   8.120  0.2765  0.1419  0.0875
   47loPI   C1B  749  17.510  16.789   9.993  0.0290  0.0843  0.0748
   47loPI   C2B  750  17.567  16.770   9.509  0.2138  0.2399  0.1686
   47loPI   C3B  751  17.623  16.703   9.135 -0.0580  0.1806 -0.1047
   47loPI   C4B  752  17.669  16.685   8.780  0.1080  0.0714  0.1460
   48loPI    C1  753   4.392   0.922  11.069 -0.0196  0.1112  0.1416
   48loPI    C2  754   4.453   0.544  11.186  0.2291  0.0270 -0.2420
   48loPI    C3  755   4.088   0.706  11.214  0.2121 -0.0903  0.3365
   48loPI   PO4  756   4.625   0.873  10.864  0.1731  0.2226 -0.0970
   48loPI   GL1  757   4.711   0.480  10.574 -0.2814  0.5974  0.1025
   48loPI   GL2  758   4.884   0.150  10.409 -0.0851  0.0987  0.2048
   48loPI   C1A  759   4.466   0.469  10.209  0.0792  0.0027 -0.0317
   48loPI   C2A  760   4.310   0.697   9.994 -0.2417 -0.2420  0.0355
   48loPI   C3A  761   4.246   0.722   9.525  0.0928  0.0723  0.0012
   48loPI   C4A  762   4.165   0.649   9.048  0.1926  0.1470  0.0757
   48loPI   C5A  763   4.344   0.612   8.601  0.1476  0.2264 -0.2814
   48loPI   C6A  764   4.223   0.719   8.158 -0.1397  0.0250 -0.4382
   48loPI   C1B  765   4.803  -0.138   9.956 -0.2141 -0.2854 -0.0408
   48loPI   C2B  766   4.659  -0.055   9.494 -0.1200  0.0723  0.2284
   48loPI   C3B  767   4.685  -0.087   8.978  0.3912 -0.2335 -0.0271
   48loPI   C4B  768   4.704  -0.187   8.506 -0.0810  0.1132 -0.2505
   49loPI    C1  769  13.023   2.479  10.077 -0.2067 -0.1330 -0.0613
   49loPI    C2  770  12.871   2.329  10.415  0.2232  0.0329  0.2155
   49loPI    C3  771  12.863   2.724  10.351 -0.2509 -0.0302 -0.1779
   49loPI   PO4  772  13.254   2.343  10.117  0.0662 -0.0877 -0.1635
   49loPI   GL1  773  13.293   2.228   9.726 -0.1568 -0.1513  0.0818
   49loPI   GL2  774  13.195   1.933   9.824  0.2894 -0.1990 -0.2628
   49loPI   C1A  775  13.403   2.237   9.312 -0.0193 -0.1908 -0.2800
   49loPI   C2A  776  13.463   2.205   8.864  0.1541  0.0662  0.2286
   49loPI   C3A  777  13.514   2.175   8.360  0.2972  0.1333  0.1415
   49loPI   C4A  778  13.548   2.380   8.049 -0.0977 -0.2067  0.1865
   49loPI   C5A  779  13.882   2.486   7.669 -0.1227 -0.0850  0.1782
   49loPI   C6A  780  13.856   2.273   7.337  0.2587 -0.1921 -0.2234
   49loPI   C1B  781  13.370   1.729   9.505 -0.1225  0.0790 -0.0836
   49loPI   C2B  782  13.456   1.723   9.156 -0.2983 -0.0412  0.0283
   49loPI   C3B  783  13.369   1.731   8.658 -0.2551  0.2107  0.2231
   49loPI   C4B  784  13.439   1.679   8.198  0.1923 -0.1945 -0.0629
   50loPI    C1  785   4.503   2.910  10.792  0.0570  0.1737  0.0039
   50loPI    C2  786   4.657   2.619  11.020 -0.0550  0.0643 -0.0587
   50loPI    C3  787   4.492   2.941  11.190  0.0635  0.0890  0.0108
   50loPI   PO4  788   4.644   2.759  10.570  0.1801 -0.0147  0.3440
   50loPI   GL1  789   4.675   2.815  10.078  0.2896 -0.0616 -0.1079
   50loPI   GL2  790   4.511   3.038   9.868  0.6114  0.3869  0.1392
   50loPI   C1A  791   4.685   2.618   9.730 -0.0542 -0.0422 -0.3668
   50loPI   C2A  792   4.678   2.603   9.317 -0.1544  0.2682 -0.0673
   50loPI   C3A  793   4.693   2.553   8.885  0.0540 -0.0980 -0.1214
   50loPI   C4A  794   4.635   2.438   8.563  0.4951 -0.3080  0.2997
   50loPI   C5A  795   4.485   2.354   8.151 -0.0587  0.1022 -0.0478
   50loPI   C6A  796   4.789   2.145   7.955 -0.1950  0.0917  0.0152
   50loPI   C1B  797   4.706   3.117   9.520 -0.1666  0.1454  0.3341
   50loPI   C2B  798   4.714   3.070   9.069  0.1419  0.1130 -0.1118
   50loPI   C3B  799   4.560   2.976   8.637  0.0555  0.0630 -0.2369
   50loPI   C4B  800   4.482   2.909   8.238 -0.2019 -0.3012  0.0854
   51loPI    C1  801   6.769  16.819  10.822 -0.0476 -0.0077 -0.0644
   51loPI    C2  802   7.133  16.690  10.717  0.0099  0.1460 -0.0559
   51loPI    C3  803   7.027  16.697  11.103  0.0267  0.1755 -0.0518
   51loPI   PO4  804   6.613  16.942  10.516  0.0975  0.0520 -0.0477
   51loPI   GL1  805   6.627  17.225  10.191 -0.0365  0.3014 -0.2441
   51loPI   GL2  806   6.676  17.569  10.105  0.0490 -0.5326  0.2787
   51loPI   C1A  807   6.595  17.248   9.719  0.2604  0.0414 -0.1130
   51loPI   C2A  808   6.488  17.219   9.229 -0.0090  0.0091 -0.1007
   51loPI   C3A  809   6.608  17.223   8.798  0.0871 -0.0048  0.0877
   51loPI   C4A  810   6.614  17.028   8.423  0.1077  0.0368 -0.0825
   51loPI   C5A  811   6.412  16.782   8.065  0.0212  0.0484  0.3976
   51loPI   C6A  812   6.386  16.767   7.671  0.0409  0.0919 -0.1357
   51loPI   C1B  813   6.604  17.791   9.717  0.3010  0.1064  0.1214
   51loPI   C2B  814   6.438  17.764   9.213 -0.2026  0.0946 -0.0186
   51loPI   C3B  815   6.522  17.717   8.727  0.0069 -0.0399 -0.0070
   51loPI   C4B  816   6.446  17.656   8.284 -0.0235  0.1495 -0.1727
   52loPI    C1  817  18.007  10.609  10.814  0.1003  0.3013  0.1319
   52loPI    C2  818  18.376  10.633  10.965  0.1293  0.1332  0.0905
   52loPI    C3  819  18.147  10.316  11.048  0.1550  0.0255 -0.2357
   52loPI   PO4  820  18.059  10.736  10.551  0.0338 -0.1538  0.3575
   52loPI   GL1  821  17.716  10.782  10.205 -0.0387 -0.1550  0.0754
   52loPI   GL2  822  17.645  10.480  10.402 -0.3110 -0.1794 -0.0078
   52loPI   C1A  823  17.572  11.026   9.736 -0.1826  0.5626 -0.4669
   52loPI   C2A  824  17.523  10.966   9.234  0.0059  0.2736 -0.0560
   52loPI   C3A  825  17.393  10.907   8.834 -0.2197  0.2407 -0.3333
   52loPI   C4A  826  17.264  10.724   8.416 -0.4554 -0.2439  0.3225
   52loPI   C5A  827  17.108  10.591   8.065  0.5183 -0.2704  0.1083
   52loPI   C6A  828  17.021  10.149   7.920 -0.0538 -0.1059 -0.0241
   52loPI   C1B  829  17.493  10.453   9.941 -0.0649 -0.5155 -0.4040
   52loPI   C2B  830  17.450  10.411   9.494  0.0515 -0.2105 -0.2102
   52loPI   C3B  831  17.440  10.443   9.127 -0.0402 -0.0936 -0.0425
   52loPI   C4B  832  17.548  10.402   8.658 -0.3368 -0.3224 -0.1086
   53loPI    C1  833   9.196  10.295  10.841  0.1546  0.0608  0.0765
   53loPI    C2  834   8.944   9.987  10.807  0.3495 -0.0896 -0.0259
   53loPI    C3  835   9.330   9.921  10.891  0.3832  0.1296 -0.0045
   53loPI   PO4  836   9.280  10.474  10.514  0.1839  0.1274  0.2638
   53loPI   GL1  837   9.323  10.423  10.154  0.0856  0.1670  0.2268
   53loPI   GL2  838   9.542  10.291  10.113 -0.3353 -0.0851 -0.4285
   53loPI   C1A  839   9.000  10.565   9.850  0.2729  0.0055  0.0349
   53loPI   C2A  840   8.947  10.580   9.496  0.0441 -0.1511 -0.1759
   53loPI   C3A  841   8.960  10.615   9.113  0.4626  0.0872 -0.1413
   53loPI   C4A  842   8.861  10.774   8.619  0.1360  0.0138 -0.0289
   53loPI   C5A  843   8.714  10.814   8.225 -0.0538  0.1521  0.1874
   53loPI   C6A  844   8.653  10.939   7.826 -0.1852 -0.0073 -0.2129
   53loPI   C1B  845   9.471  10.258   9.624 -0.0051  0.2917 -0.3385
   53loPI   C2B  846   9.396  10.357   9.213 -0.1100 -0.1222  0.0405
   53loPI   C3B  847   9.223  10.370   8.744 -0.0660 -0.2374 -0.1310
   53loPI   C4B  848   9.203  10.485   8.402 -0.1250 -0.0919 -0.0892
   54loPI    C1  849  15.684   6.953  10.890 -0.0409  0.1088  0.0134
   54loPI    C2  850  15.781   6.665  11.151 -0.2050  0.1289  0.0977
   54loPI    C3  851  15.397   6.762  11.093 -0.1783  0.0463 -0.2369
   54loPI   PO4  852  15.735   6.907  10.680 -0.3043  0.1471 -0.3756
   54loPI   GL1  853  15.790   6.672  10.381 -0.1409 -0.0311  0.4839
   54loPI   GL2  854  15.906   6.392  10.413 -0.2479 -0.2258  0.0223
   54loPI   C1A  855  15.758   6.653   9.949  0.0111  0.1090 -0.1278
   54loPI   C2A  856  15.715   6.677   9.407  0.0327 -0.4658 -0.0264
   54loPI   C3A  857  15.737   6.790   8.968 -0.0133  0.0165 -0.2473
   54loPI   C4A  858  15.695   6.778   8.489  0.3448  0.0177 -0.2666
   54loPI   C5A  859  15.713   6.954   8.078  0.0052  0.0339  0.2838
   54loPI   C6A  860  15.801   7.336   7.920 -0.2597 -0.0356 -0.2603
   54loPI   C1B  861  16.185   6.395  10.098 -0.0123  0.0926  0.0210
   54loPI   C2B  862  16.064   6.458   9.643 -0.0795 -0.3490 -0.5166
   54loPI   C3B  863  16.170   6.537   9.187  0.2100  0.0528 -0.0080
   54loPI   C4B  864  16.113   6.568   8.700 -0.0931  0.3907  0.1098
   55loPI    C1  865   9.154   3.328  10.115  0.0555 -0.0927  0.1653
   55loPI    C2  866   9.354   3.623  10.298 -0.0575  0.0324  0.0895
   55loPI    C3  867   8.993   3.513  10.430 -0.0314 -0.0477  0.0949
   55loPI   PO4  868   9.253   3.392   9.870  0.1274  0.1897  0.2623
   55loPI   GL1  869   9.454   3.267   9.544 -0.1709 -0.0137  0.1601
   55loPI   GL2  870   9.201   3.324   9.306  0.1679  0.2140 -0.0921
   55loPI   C1A  871   9.848   3.179   9.193 -0.1126 -0.1772 -0.0633
   55loPI   C2A  872   9.934   2.893   8.874 -0.2004  0.2727 -0.1521
   55loPI   C3A  873  10.275   2.765   8.595  0.1649  0.0884  0.0784
   55loPI   C4A  874  10.343   2.624   8.169  0.2004 -0.2586  0.2012
   55loPI   C5A  875  10.253   2.437   7.802 -0.1865 -0.0946 -0.1505
   55loPI   C6A  876  10.291   2.694   7.449 -0.1974  0.1481 -0.1175
   55loPI   C1B  877   8.905   3.315   9.030  0.0481 -0.1351 -0.1560
   55loPI   C2B  878   8.998   3.245   8.609  0.0464 -0.0521 -0.2995
   55loPI   C3B  879   9.137   3.114   8.239 -0.0560  0.0300 -0.0429
   55loPI   C4B  880   8.855   3.087   7.926  0.1724 -0.0976 -0.5162
   56loPI    C1  881   2.491   7.338  10.538 -0.0093  0.4515 -0.0547
   56loPI    C2  882   2.776   7.342  10.257  0.0178  0.1932 -0.0333
   56loPI    C3  883   2.870   7.412  10.640  0.0603  0.0671 -0.0204
   56loPI   PO4  884   2.291   7.395  10.490  0.0795  0.1039  0.0179
   56loPI   GL1  885   2.032   7.425  10.082  0.1145  0.2404  0.0448
   56loPI   GL2  886   2.313   7.356  10.012 -0.0174  0.1454 -0.4400
   56loPI   C1A  887   1.990   7.364   9.692 -0.0719 -0.0567 -0.1870
   56loPI   C2A  888   2.023   7.227   9.216 -0.2663 -0.0516 -0.0865
   56loPI   C3A  889   1.964   7.188   8.790 -0.0837  0.2886 -0.2569
   56loPI   C4A  890   1.698   7.257   8.393  0.1756 -0.2427 -0.1546
   56loPI   C5A  891   1.628   7.346   8.060  0.0211 -0.0162  0.1612
   56loPI   C6A  892   1.468   7.528   7.667 -0.1211  0.1414  0.0141
   56loPI   C1B  893   2.531   7.428   9.735  0.1963  0.0756 -0.3167
   56loPI   C2B  894   2.480   7.539   9.362  0.0695 -0.2281 -0.0259
   56loPI   C3B  895   2.383   7.430   8.840 -0.5602  0.1111  0.0673
   56loPI   C4B  896   2.220   7.372   8.383  0.1632  0.0176 -0.1357
   57loPI    C1  897  14.128   3.870  10.801 -0.0995 -0.1167 -0.1095
   57loPI    C2  898  14.114   3.751  11.182  0.3558 -0.1014 -0.0815
   57loPI    C3  899  13.870   3.585  10.912  0.0158 -0.0986  0.2153
   57loPI   PO4  900  14.354   3.902  10.755  0.0399  0.0098  0.1992
   57loPI   GL1  901  14.368   4.021  10.279 -0.0256  0.0760  0.2517
   57loPI   GL2  902  14.720   3.833  10.388  0.2386 -0.1632 -0.1715
   57loPI   C1A  903  14.571   4.141   9.928 -0.1485  0.4494 -0.0104
   57loPI   C2A  904  14.685   4.120   9.493 -0.0431 -0.0065  0.1854
   57loPI   C3A  905  14.737   4.137   9.007  0.0965  0.0981  0.1270
   57loPI   C4A  906  14.896   4.044   8.538  0.0306  0.2243  0.0254
   57loPI   C5A  907  14.858   4.177   8.125  0.2637  0.0138 -0.1453
   57loPI   C6A  908  14.946   4.395   7.668 -0.0017  0.2336 -0.1404
   57loPI   C1B  909  15.015   3.909  10.026  0.1079 -0.3904 -0.0340
   57loPI   C2B  910  15.295   3.953   9.721 -0.0711 -0.0430  0.2195
   57loPI   C3B  911  15.303   3.806   9.284 -0.1007  0.0365 -0.1859
   57loPI   C4B  912  15.269   3.854   8.897 -0.3726  0.1375 -0.2051
   58loPI    C1  913  11.506   5.496   9.967 -0.0722  0.1115  0.0357
   58loPI    C2  914  11.660   5.223  10.216 -0.1860  0.0164  0.0026
   58loPI    C3  915  11.367   5.465  10.341 -0.1340  0.0758  0.0100
   58loPI   PO4  916  11.424   5.370   9.677  0.1589  0.0707 -0.1178
   58loPI   GL1  917  11.589   5.551   9.357 -0.3321  0.2223  0.0763
   58loPI   GL2  918  11.928   5.495   9.271  0.0080 -0.3548  0.0972
   58loPI   C1A  919  11.602   5.801   8.982  0.0018 -0.0602 -0.2880
   58loPI   C2A  920  11.627   5.834   8.522 -0.1427  0.2259 -0.4426
   58loPI   C3A  921  11.789   5.792   8.145  0.1628 -0.1848  0.0778
   58loPI   C4A  922  11.694   5.444   7.921 -0.2110 -0.3412  0.0284
   58loPI   C5A  923  12.117   5.321   7.614  0.2232 -0.1688  0.1299
   58loPI   C6A  924  12.504   5.271   7.555 -0.0739 -0.0362  0.4056
   58loPI   C1B  925  12.021   5.598   8.845 -0.1241  0.2070  0.1102
   58loPI   C2B  926  12.024   5.479   8.506 -0.1156 -0.1356  0.0886
   58loPI   C3B  927  12.007   5.160   8.125 -0.1979 -0.1084  0.0543
   58loPI   C4B  928  11.668   4.960   7.825  0.0144 -0.1665 -0.0136
   59loPI    C1  929  12.516   1.489  10.382  0.1422  0.0488 -0.0767
   59loPI    C2  930  12.494   1.187  10.645 -0.1390 -0.2138 -0.3923
   59loPI    C3  931  12.209   1.468  10.638  0.1588  0.1089 -0.0516
   59loPI   PO4  932  12.539   1.374  10.172 -0.1168  0.1271 -0.0023
   59loPI   GL1  933  12.404   1.246   9.821 -0.6121  0.2670 -0.2147
   59loPI   GL2  934  12.416   0.923   9.735 -0.1042  0.2303 -0.0677
   59loPI   C1A  935  12.551   1.255   9.392 -0.0795  0.3291  0.2628
   59loPI   C2A  936  12.613   1.210   9.038 -0.1487 -0.0256 -0.0716
   59loPI   C3A  937  12.480   1.185   8.679  0.0780  0.0067  0.4993
   59loPI   C4A  938  12.476   1.147   8.339 -0.0479  0.1969 -0.1523
   59loPI   C5A  939  12.419   1.191   7.971 -0.0492  0.1574 -0.0074
   59loPI   C6A  940  12.283   1.551   7.719  0.1542  0.2328  0.1386
   59loPI   C1B  941  12.506   0.692   9.309  0.3494  0.0277  0.1927
   59loPI   C2B  942  12.532   0.626   8.890  0.2001 -0.0114  0.1262
   59loPI   C3B  943  12.428   0.664   8.458 -0.2939  0.0229  0.1722
   59loPI   C4B  944  12.554   0.716   8.064 -0.1237  0.0360 -0.0028
   60loPI    C1  945  14.513  14.146  11.127  0.1160  0.0152 -0.0464
   60loPI    C2  946  14.805  13.951  11.318  0.0838 -0.2681 -0.2795
   60loPI    C3  947  14.453  13.771  11.254 -0.0619 -0.0132 -0.2088
   60loPI   PO4  948  14.662  14.254  10.894  0.1071  0.0267 -0.1368
   60loPI   GL1  949  14.758  14.403  10.517 -0.4990 -0.0147  0.2521
   60loPI   GL2  950  15.030  14.153  10.500 -0.2368  0.4865 -0.0957
   60loPI   C1A  951  14.466  14.317  10.222 -0.0314 -0.2177 -0.2238
   60loPI   C2A  952  14.285  14.410   9.856 -0.2317  0.1764 -0.1611
   60loPI   C3A  953  14.383  14.234   9.440  0.2515  0.2309 -0.0613
   60loPI   C4A  954  14.362  14.199   8.991 -0.2852 -0.0409 -0.0799
   60loPI   C5A  955  14.188  14.252   8.561 -0.1601 -0.0822 -0.2741
   60loPI   C6A  956  14.202  14.403   8.155  0.1543 -0.0791 -0.2208
   60loPI   C1B  957  15.093  14.293  10.056  0.1400  0.0166 -0.1981
   60loPI   C2B  958  15.265  14.293   9.665  0.2255  0.1924 -0.0715
   60loPI   C3B  959  15.332  14.257   9.291  0.0638 -0.1819  0.0937
   60loPI   C4B  960  15.204  14.369   8.954 -0.1991 -0.1272 -0.3320
   61loPI    C1  961   7.837   5.410  10.330 -0.1547  0.2268 -0.0354
   61loPI    C2  962   7.667   5.515  10.676 -0.0065 -0.0032  0.1100
   61loPI    C3  963   7.860   5.166  10.646  0.4172  0.2372 -0.0579
   61loPI   PO4  964   7.711   5.627  10.158  0.3583 -0.0450 -0.1131
   61loPI   GL1  965   7.474   5.707   9.721  0.0119 -0.0519 -0.0183
   61loPI   GL2  966   7.714   5.521   9.659  0.0085 -0.0260  0.0906
   61loPI   C1A  967   7.334   5.596   9.319 -0.1795 -0.1426 -0.1863
   61loPI   C2A  968   7.053   5.802   8.976 -0.3622  0.0342 -0.1554
   61loPI   C3A  969   6.923   5.994   8.577  0.0843 -0.0491  0.0057
   61loPI   C4A  970   6.846   6.134   8.175  0.1446 -0.0254  0.0399
   61loPI   C5A  971   6.430   6.191   8.022  0.0643  0.2055 -0.1132
   61loPI   C6A  972   5.990   6.199   7.901 -0.0311 -0.1221  0.0637
   61loPI   C1B  973   7.953   5.693   9.236 -0.0338 -0.0336  0.2243
   61loPI   C2B  974   7.878   5.631   8.797 -0.1464 -0.0997 -0.2032
   61loPI   C3B  975   7.864   5.593   8.360 -0.0913  0.1822 -0.1212
   61loPI   C4B  976   8.109   5.431   8.131 -0.2290  0.3334  0.0660
   62loPI    C1  977   6.392  10.320  10.940  0.0194 -0.1833 -0.1523
   62loPI    C2  978   6.139  10.219  11.234  0.2121  0.1145  0.1228
   62loPI    C3  979   6.443   9.977  11.139  0.0277 -0.0815  0.0231
   62loPI   PO4  980   6.235  10.422  10.711  0.1420 -0.0697 -0.0235
   62loPI   GL1  981   6.031  10.368  10.322 -0.1283  0.0662 -0.1173
   62loPI   GL2  982   6.260  10.173  10.294  0.1197 -0.2325  0.4799
   62loPI   C1A  983   5.799  10.400   9.975  0.0625  0.3080  0.0632
   62loPI   C2A  984   5.762  10.391   9.630 -0.0051 -0.2045 -0.1497
   62loPI   C3A  985   5.570  10.377   9.177 -0.0667  0.2393 -0.0739
   62loPI   C4A  986   5.536  10.284   8.713 -0.1909  0.0424  0.0444
   62loPI   C5A  987   5.477  10.325   8.233  0.0616 -0.2634  0.0569
   62loPI   C6A  988   5.281  10.334   7.823  0.0494  0.2570 -0.3963
   62loPI   C1B  989   6.243  10.058   9.932 -0.0767 -0.0201  0.2160
   62loPI   C2B  990   6.203  10.119   9.575  0.2026 -0.1187 -0.2991
   62loPI   C3B  991   6.154  10.033   9.110  0.1216 -0.5963  0.0437
   62loPI   C4B  992   6.015   9.951   8.670  0.4669  0.2218  0.0017
   63loPI    C1  993   0.291   3.371  10.925 -0.1583 -0.2064  0.3779
   63loPI    C2  994   0.551   3.629  11.087 -0.1110 -0.0259  0.0254
   63loPI    C3  995   0.207   3.546  11.275 -0.0838  0.2210  0.1886
   63loPI   PO4  996   0.277   3.432  10.624  0.1456 -0.0743  0.0165
   63loPI   GL1  997   0.035   3.623  10.361 -0.0401  0.2081 -0.1253
   63loPI   GL2  998  -0.218   3.857  10.378  0.1149  0.3980 -0.0509
   63loPI   C1A  999   0.043   3.676   9.992 -0.1302 -0.0430 -0.1084
   63loPI   C2A 1000   0.006   3.640   9.576 -0.2652 -0.0259 -0.4665
   63loPI   C3A 1001  -0.004   3.557   9.155 -0.1315 -0.1315  0.0285
   63loPI   C4A 1002  -0.004   3.643   8.738 -0.2876  0.1888  0.0870
   63loPI   C5A 1003   0.150   3.493   8.343  0.2154 -0.2727 -0.1912
   63loPI   C6A 1004  -0.049   3.331   8.001 -0.1825  0.2021  0.0853
   63loPI   C1B 1005  -0.378   3.956   9.948  0.1908  0.0440  0.0790
   63loPI   C2B 1006  -0.422   3.869   9.458  0.2189  0.2585  0.0876
   63loPI   C3B 1007  -0.418   3.840   9.064  0.0946  0.3086  0.1018
   63loPI   C4B 1008  -0.499   3.801   8.704  0.1466  0.0075  0.4031
   64loPI    C1 1009  17.303  15.134  10.973 -0.1671 -0.2455 -0.2492
   64loPI    C2 1010  17.077  15.012  11.280 -0.0684 -0.0279 -0.0874
   64loPI    C3 1011  17.465  14.912  11.264 -0.0628 -0.0014 -0.1184
   64loPI   PO4 1012  17.188  15.100  10.713 -0.2399  0.2027 -0.1507
   64loPI   GL1 1013  17.062  14.834  10.308  0.0608  0.0420 -0.3381
   64loPI   GL2 1014  17.403  14.949  10.192 -0.0740  0.0178  0.5178
   64loPI   C1A 1015  17.100  14.805   9.809 -0.0754  0.0820 -0.0521
   64loPI   C2A 1016  17.148  14.813   9.450  0.0016 -0.1638  0.1381
   64loPI   C3A 1017  17.127  14.774   9.006  0.3547  0.4331  0.2203
   64loPI   C4A 1018  17.027  14.790   8.646  0.2699  0.2312 -0.1049
   64loPI   C5A 1019  16.878  14.981   8.243 -0.2475 -0.1147  0.2817
   64loPI   C6A 1020  16.656  14.818   7.846 -0.0763  0.0756 -0.0726
   64loPI   C1B 1021  17.510  15.070   9.732 -0.1005  0.2681 -0.2069
   64loPI   C2B 1022  17.545  15.070   9.287  0.1061 -0.0453  0.3018
   64loPI   C3B 1023  17.478  15.083   8.768  0.2013  0.4725  0.1679
   64loPI   C4B 1024  17.503  14.895   8.280 -0.3839 -0.0836 -0.1648
   65loPI    C1 1025  14.127   1.310  10.994  0.0626 -0.0385  0.2016
   65loPI    C2 1026  13.746   1.380  10.895  0.1051 -0.1432 -0.0437
   65loPI    C3 1027  13.922   1.598  11.181 -0.1636 -0.1528  0.1322
   65loPI   PO4 1028  14.309   1.324  10.723 -0.0470  0.0150 -0.0819
   65loPI   GL1 1029  14.415   1.061  10.314  0.1058  0.5019  0.0277
   65loPI   GL2 1030  14.375   1.312  10.075 -0.0639  0.2330 -0.0351
   65loPI   C1A 1031  14.403   0.800   9.928  0.2365 -0.0027  0.1096
   65loPI   C2A 1032  14.282   0.791   9.494  0.4373  0.1825  0.4099
   65loPI   C3A 1033  14.310   0.763   9.020  0.2436  0.1211 -0.0660
   65loPI   C4A 1034  14.364   0.714   8.574  0.1223 -0.0148  0.3766
   65loPI   C5A 1035  14.320   0.763   8.168 -0.1746 -0.0610 -0.0818
   65loPI   C6A 1036  14.542   0.904   7.814 -0.0888 -0.0327  0.0841
   65loPI   C1B 1037  14.322   1.432   9.599  0.2731  0.0557  0.2156
   65loPI   C2B 1038  14.274   1.268   9.275 -0.0177  0.0025  0.0405
   65loPI   C3B 1039  14.375   1.204   8.815 -0.0176 -0.0211 -0.0137
   65loPI   C4B 1040  14.604   1.186   8.434  0.0268  0.0511  0.1300
   66loPI    C1 1041  16.096   4.320  10.920  0.0447 -0.0288  0.3443
   66loPI    C2 1042  15.759   4.531  10.966 -0.1026 -0.1959  0.0616
   66loPI    C3 1043  16.113   4.717  10.960 -0.1977 -0.0056  0.2363
   66loPI   PO4 1044  16.123   4.238  10.619 -0.0961  0.2190 -0.3060
   66loPI   GL1 1045  15.987   4.232  10.257  0.1913  0.1240  0.0020
   66loPI   GL2 1046  16.001   3.896  10.289  0.0884  0.1939  0.3202
   66loPI   C1A 1047  15.705   4.213   9.862 -0.0836  0.0042 -0.0711
   66loPI   C2A 1048  15.648   4.138   9.417 -0.2641  0.1520  0.0548
   66loPI   C3A 1049  15.696   4.131   8.986  0.1754  0.0109  0.1175
   66loPI   C4A 1050  15.722   4.031   8.576 -0.3319 -0.4793 -0.0057
   66loPI   C5A 1051  15.900   4.081   8.105 -0.0446  0.3353  0.0578
   66loPI   C6A 1052  16.006   4.555   7.941 -0.0415 -0.0503 -0.1091
   66loPI   C1B 1053  16.058   3.827   9.776  0.2351  0.0463  0.0259
   66loPI   C2B 1054  16.062   3.805   9.295  0.0316  0.1541 -0.1057
   66loPI   C3B 1055  16.123   3.785   8.912  0.0949 -0.0512 -0.1506
   66loPI   C4B 1056  16.136   3.748   8.453  0.0485  0.1524  0.1841
   67loPI    C1 1057   3.532   2.049  10.922 -0.1585  0.2907  0.0448
   67loPI    C2 1058   3.691   1.970  11.281 -0.1095 -0.0030 -0.0385
   67loPI    C3 1059   3.619   2.348  11.172 -0.0777  0.0910  0.2595
   67loPI   PO4 1060   3.650   2.089  10.617  0.2298  0.0284  0.0209
   67loPI   GL1 1061   3.543   2.067  10.197  0.0232 -0.1202 -0.1055
   67loPI   GL2 1062   3.394   1.803  10.141 -0.0342 -0.2070  0.1082
   67loPI   C1A 1063   3.606   2.087   9.728  0.1504 -0.0203 -0.0162
   67loPI   C2A 1064   3.650   2.041   9.340  0.0818 -0.1005  0.2744
   67loPI   C3A 1065   3.708   2.033   8.936  0.0719 -0.0696 -0.0228
   67loPI   C4A 1066   3.684   1.952   8.435  0.2351 -0.0263 -0.0672
   67loPI   C5A 1067   3.896   1.948   8.070 -0.1766 -0.3721 -0.0516
   67loPI   C6A 1068   4.248   1.951   7.651 -0.1130  0.1523  0.1001
   67loPI   C1B 1069   3.240   1.742   9.750  0.2203 -0.1526  0.0951
   67loPI   C2B 1070   3.227   1.806   9.357 -0.3256  0.2081 -0.1746
   67loPI   C3B 1071   3.286   1.747   8.904  0.1386 -0.0960  0.0646
   67loPI   C4B 1072   3.286   1.655   8.499  0.3511  0.0126 -0.0669
   68loPI    C1 1073  10.751   5.575  10.431  0.2730 -0.1491 -0.1617
   68loPI    C2 1074  11.053   5.642  10.685 -0.1339 -0.0012  0.3016
   68loPI    C3 1075  10.836   5.948  10.548 -0.0795 -0.1062 -0.0307
   68loPI   PO4 1076  10.922   5.488  10.170  0.0731  0.2018 -0.2978
   68loPI   GL1 1077  10.990   5.579   9.687 -0.0724  0.0999  0.0386
   68loPI   GL2 1078  10.797   5.565   9.545 -0.4491  0.2544 -0.1954
   68loPI   C1A 1079  11.175   5.875   9.243 -0.3159 -0.2211  0.0834
   68loPI   C2A 1080  11.154   6.050   8.901 -0.1628 -0.0359 -0.1329
   68loPI   C3A 1081  11.200   6.130   8.494  0.4765 -0.1291 -0.1152
   68loPI   C4A 1082  11.074   6.345   8.298  0.0624  0.0987 -0.1332
   68loPI   C5A 1083  10.899   6.392   7.871  0.2101 -0.0132 -0.0960
   68loPI   C6A 1084  10.793   6.175   7.514  0.0858 -0.1427  0.0839
   68loPI   C1B 1085  10.709   5.682   9.123 -0.0499  0.2749  0.1226
   68loPI   C2B 1086  10.944   5.655   8.685 -0.0181  0.2636  0.1902
   68loPI   C3B 1087  11.198   5.721   8.245 -0.1830  0.0975 -0.3449
   68loPI   C4B 1088  11.395   6.034   8.045  0.1711  0.3423  0.1103
   69loPI    C1 1089  12.261   8.137  10.682 -0.0564 -0.0373 -0.2882
   69loPI    C2 1090  12.500   7.841  10.806  0.1291  0.2465  0.0518
   69loPI    C3 1091  12.130   7.876  10.954  0.0945  0.1667 -0.0150
   69loPI   PO4 1092  12.418   8.194  10.437 -0.1918 -0.0665  0.2152
   69loPI   GL1 1093  12.564   8.243   9.992 -0.0827  0.2385 -0.1296
   69loPI   GL2 1094  12.870   8.097   9.878  0.0166  0.0235 -0.1534
   69loPI   C1A 1095  12.617   8.500   9.599 -0.0812  0.1034 -0.0071
   69loPI   C2A 1096  12.527   8.495   9.113  0.0337 -0.1030  0.0782
   69loPI   C3A 1097  12.571   8.529   8.721 -0.0817  0.1041 -0.1444
   69loPI   C4A 1098  12.440   8.546   8.254 -0.2936 -0.4626 -0.1113
   69loPI   C5A 1099  12.654   8.650   7.844  0.0274 -0.2950  0.2191
   69loPI   C6A 1100  12.839   8.893   7.573  0.1197 -0.2525 -0.0064
   69loPI   C1B 1101  13.024   8.213   9.517  0.0295 -0.1584 -0.1887
   69loPI   C2B 1102  12.963   8.234   9.171  0.0263  0.1157  0.2851
   69loPI   C3B 1103  12.964   8.242   8.714 -0.2098 -0.0290 -0.1178
   69loPI   C4B 1104  12.943   8.408   8.281  0.0255 -0.2952  0.0947
   70loPI    C1 1105  11.220  16.031  10.752  0.0677 -0.0874  0.1521
   70loPI    C2 1106  10.860  16.090  10.915 -0.1403 -0.0473 -0.3064
   70loPI    C3 1107  10.965  15.726  10.790 -0.0742 -0.0318 -0.2961
   70loPI   PO4 1108  11.281  16.177  10.534 -0.0388 -0.1152 -0.1630
   70loPI   GL1 1109  11.281  16.186  10.192 -0.1456 -0.3188  0.2985
   70loPI   GL2 1110  11.369  15.906  10.000  0.0392 -0.1193 -0.1223
   70loPI   C1A 1111  11.167  16.105   9.624 -0.1353 -0.1289  0.0926
   70loPI   C2A 1112  11.128  16.163   9.200 -0.1469  0.0677 -0.1662
   70loPI   C3A 1113  11.189  16.130   8.779  0.2021 -0.0692 -0.1521
   70loPI   C4A 1114  11.022  16.065   8.371 -0.0973 -0.2443 -0.1611
   70loPI   C5A 1115  10.756  15.936   8.149  0.3796 -0.2800  0.2918
   70loPI   C6A 1116  10.646  15.847   7.635  0.1839 -0.4738  0.1505
   70loPI   C1B 1117  11.572  15.824   9.634  0.2006 -0.0931 -0.4801
   70loPI   C2B 1118  11.589  15.959   9.252 -0.0185  0.2181  0.3428
   70loPI   C3B 1119  11.597  15.798   8.885  0.2067  0.0106 -0.1461
   70loPI   C4B 1120  11.666  15.862   8.376 -0.2164 -0.2570  0.0617
   71loPI    C1 1121   7.470  17.064  10.785 -0.0911  0.1045 -0.1293
   71loPI    C2 1122   7.138  17.142  10.994 -0.1294  0.0619 -0.1741
   71loPI    C3 1123   7.494  17.258  11.135 -0.1545  0.0303 -0.0832
   71loPI   PO4 1124   7.520  17.124  10.532  0.0846  0.2314  0.0895
   71loPI   GL1 1125   7.262  16.937  10.281  0.1105  0.0324 -0.1172
   71loPI   GL2 1126   7.539  16.881  10.087 -0.0666 -0.2646  0.1351
   71loPI   C1A 1127   7.046  16.977   9.854  0.0855 -0.2280  0.1799
   71loPI   C2A 1128   7.007  16.958   9.455 -0.0397  0.1230  0.0180
   71loPI   C3A 1129   7.045  16.923   9.050  0.2179  0.1262 -0.1868
   71loPI   C4A 1130   7.032  16.932   8.614 -0.0939  0.2638 -0.2619
   71loPI   C5A 1131   7.133  16.935   8.195 -0.1347 -0.0308 -0.1015
   71loPI   C6A 1132   7.375  16.538   7.842 -0.2539 -0.0126  0.1415
   71loPI   C1B 1133   7.438  16.785   9.718  0.0072  0.2115  0.4160
   71loPI   C2B 1134   7.495  16.794   9.304  0.2611  0.2254 -0.2281
   71loPI   C3B 1135   7.428  16.663   8.822  0.0014  0.3597 -0.1300
   71loPI   C4B 1136   7.548  16.763   8.332 -0.0708 -0.3076 -0.0397
   72loPI    C1 1137   3.235  11.921  10.860  0.0353  0.1136 -0.0778
   72loPI    C2 1138   2.962  12.198  10.768 -0.1501  0.0106  0.1483
   72loPI    C3 1139   3.131  12.197  11.130 -0.1413 -0.1642  0.1443
   72loPI   PO4 1140   3.275  11.853  10.542  0.0578 -0.1151  0.0942
   72loPI   GL1 1141   3.387  12.093  10.194  0.0660  0.1966 -0.0924
   72loPI   GL2 1142   3.726  11.933  10.095 -0.2276  0.0330 -0.2829
   72loPI   C1A 1143   3.395  12.228   9.857  0.2917 -0.0002 -0.3606
   72loPI   C2A 1144   3.467  12.245   9.392  0.0864 -0.0032  0.0821
   72loPI   C3A 1145   3.338  12.252   8.963  0.1776 -0.1294  0.2328
   72loPI   C4A 1146   3.270  12.351   8.612  0.2484  0.2920  0.0456
   72loPI   C5A 1147   3.406  12.275   8.242 -0.2440  0.0953 -0.2493
   72loPI   C6A 1148   3.803  12.232   8.080 -0.1680 -0.1812  0.1821
   72loPI   C1B 1149   3.945  11.884   9.777  0.0597 -0.1993 -0.0088
   72loPI   C2B 1150   3.864  11.933   9.412 -0.1669  0.3320 -0.0029
   72loPI   C3B 1151   3.764  11.960   9.023 -0.0652  0.0282  0.3263
   72loPI   C4B 1152   3.746  12.079   8.637  0.2635  0.1312 -0.0849
   73loPI    C1 1153  17.127   0.278  10.870 -0.0395  0.0022  0.2632
   73loPI    C2 1154  17.094   0.593  11.114 -0.0732  0.2566 -0.0620
   73loPI    C3 1155  17.451   0.493  10.963 -0.0582  0.1199  0.0620
   73loPI   PO4 1156  16.907   0.269  10.766  0.0554 -0.0126 -0.4115
   73loPI   GL1 1157  16.734   0.439  10.315  0.3381 -0.1889 -0.1053
   73loPI   GL2 1158  16.896   0.209  10.176  0.1387  0.2041  0.0373
   73loPI   C1A 1159  16.591   0.464   9.916  0.0824  0.1074  0.1383
   73loPI   C2A 1160  16.489   0.407   9.491  0.1960  0.1411 -0.1798
   73loPI   C3A 1161  16.492   0.403   9.119 -0.2710  0.0265 -0.0863
   73loPI   C4A 1162  16.615   0.444   8.688  0.0720  0.1169  0.2270
   73loPI   C5A 1163  16.493   0.346   8.277  0.1298  0.0872 -0.0251
   73loPI   C6A 1164  16.460   0.271   7.800 -0.0053 -0.4521 -0.0403
   73loPI   C1B 1165  17.035   0.253   9.739 -0.0056 -0.0720 -0.0235
   73loPI   C2B 1166  17.084   0.224   9.242 -0.1567  0.0942  0.0981
   73loPI   C3B 1167  17.160   0.150   8.836 -0.0762 -0.0055 -0.1792
   73loPI   C4B 1168  17.170   0.068   8.460  0.0994  0.1653 -0.3520
   74loPI    C1 1169  10.140  16.333  10.433  0.0996 -0.0549  0.0563
   74loPI    C2 1170   9.784  16.153  10.468  0.0031  0.1236  0.0052
   74loPI    C3 1171   9.865  16.480  10.684  0.0554  0.2089 -0.1417
   74loPI   PO4 1172  10.439  16.199  10.518 -0.0774 -0.0420 -0.1805
   74loPI   GL1 1173  10.850  15.989  10.359  0.1084  0.0364  0.1489
   74loPI   GL2 1174  10.879  15.782  10.226  0.0499  0.0213 -0.2245
   74loPI   C1A 1175  10.816  16.213   9.995 -0.0570 -0.1920  0.1977
   74loPI   C2A 1176  10.673  16.366   9.562 -0.3333  0.0630  0.1509
   74loPI   C3A 1177  10.691  16.358   9.213 -0.0252 -0.3011  0.1359
   74loPI   C4A 1178  10.672  16.337   8.841  0.0657  0.2413  0.0528
   74loPI   C5A 1179  10.674  16.408   8.431  0.0952 -0.0451  0.0135
   74loPI   C6A 1180  10.402  16.512   8.032 -0.1380  0.2143  0.0576
   74loPI   C1B 1181  10.646  15.805   9.872  0.2149 -0.3470 -0.2100
   74loPI   C2B 1182  10.744  15.911   9.438  0.2161  0.4170 -0.0751
   74loPI   C3B 1183  10.703  15.839   8.947 -0.2367 -0.0171 -0.0155
   74loPI   C4B 1184  10.688  15.828   8.600  0.4013  0.0868 -0.2909
   75loPI    C1 1185  14.409   9.574  11.033 -0.1208 -0.2000  0.1699
   75loPI    C2 1186  14.687   9.547  11.320 -0.0921  0.2755  0.1945
   75loPI    C3 1187  14.347   9.746  11.389 -0.3203 -0.0628  0.0708
   75loPI   PO4 1188  14.616   9.454  10.767 -0.2913 -0.0151 -0.0380
   75loPI   GL1 1189  14.544   9.507  10.253  0.0054  0.0080 -0.0183
   75loPI   GL2 1190  14.243   9.407  10.100 -0.1284  0.3374  0.2692
   75loPI   C1A 1191  14.826   9.516   9.971 -0.1022  0.1594  0.0850
   75loPI   C2A 1192  14.810   9.334   9.584  0.0549  0.1413 -0.3563
   75loPI   C3A 1193  14.742   9.426   9.109  0.1134  0.2606 -0.0627
   75loPI   C4A 1194  14.760   9.389   8.570 -0.1081  0.4087  0.1621
   75loPI   C5A 1195  14.531   9.451   8.158 -0.0403 -0.3591 -0.0953
   75loPI   C6A 1196  14.793   9.718   7.901 -0.4074 -0.3232 -0.3232
   75loPI   C1B 1197  14.289   9.159   9.687 -0.2421 -0.0417  0.3908
   75loPI   C2B 1198  14.349   9.118   9.188 -0.0897 -0.2517 -0.1798
   75loPI   C3B 1199  14.280   9.132   8.701 -0.1421 -0.0628  0.1667
   75loPI   C4B 1200  14.192   9.035   8.169  0.2421 -0.0805 -0.0920
   76loPI    C1 1201   2.628   9.369  10.669  0.2877  0.1102 -0.0229
   76loPI    C2 1202   2.881   9.482  10.957 -0.0825  0.1583  0.2913
   76loPI    C3 1203   2.522   9.333  11.053 -0.0235 -0.2858 -0.1383
   76loPI   PO4 1204   2.756   9.177  10.581 -0.2393 -0.0030 -0.0151
   76loPI   GL1 1205   2.821   9.211  10.193 -0.1458 -0.1718 -0.0526
   76loPI   GL2 1206   3.041   9.199  10.037 -0.0682 -0.3661 -0.0138
   76loPI   C1A 1207   2.578   9.002   9.860  0.2452  0.1394  0.0428
   76loPI   C2A 1208   2.423   9.102   9.403  0.0488  0.2222  0.2988
   76loPI   C3A 1209   2.246   9.147   8.950 -0.2040  0.2482  0.4025
   76loPI   C4A 1210   2.133   9.103   8.471  0.0009  0.2901  0.1718
   76loPI   C5A 1211   2.388   9.121   7.988  0.1351 -0.1538  0.0642
   76loPI   C6A 1212   2.743   9.176   7.856  0.0873  0.1492 -0.0581
   76loPI   C1B 1213   2.961   9.283   9.608  0.1510  0.0346 -0.3115
   76loPI   C2B 1214   2.928   9.395   9.245 -0.0935  0.1234  0.1586
   76loPI   C3B 1215   2.822   9.382   8.810  0.0928  0.3233 -0.4727
   76loPI   C4B 1216   2.635   9.256   8.442  0.0516 -0.0772  0.3076
   77loPI    C1 1217   7.985   1.612  10.175 -0.1114  0.0585 -0.0735
   77loPI    C2 1218   8.170   1.266  10.254  0.0292  0.1369 -0.0552
   77loPI    C3 1219   8.057   1.505  10.554  0.2382  0.2652 -0.0767
   77loPI   PO4 1220   7.948   1.486   9.892  0.0825 -0.0252  0.0171
   77loPI   GL1 1221   7.670   1.384   9.637 -0.2935  0.2407  0.0699
   77loPI   GL2 1222   7.527   1.096   9.615 -0.2024 -0.1294  0.0244
   77loPI   C1A 1223   7.885   1.296   9.267  0.2739 -0.0773 -0.1502
   77loPI   C2A 1224   8.166   1.367   8.888 -0.0723 -0.0282 -0.1662
   77loPI   C3A 1225   8.185   1.315   8.402 -0.0918 -0.2375 -0.0075
   77loPI   C4A 1226   7.860   1.173   8.151  0.4288 -0.1766  0.2551
   77loPI   C5A 1227   7.703   1.233   7.727 -0.3322 -0.1757  0.1877
   77loPI   C6A 1228   7.701   1.550   7.338 -0.0629 -0.0225 -0.2849
   77loPI   C1B 1229   7.375   1.014   9.257 -0.1235  0.0404 -0.0778
   77loPI   C2B 1230   7.332   0.871   8.749 -0.1965  0.0816 -0.1959
   77loPI   C3B 1231   7.438   0.909   8.326 -0.4402 -0.1922 -0.1058
   77loPI   C4B 1232   7.197   1.017   7.924 -0.0483 -0.1045 -0.1289
   78loPI    C1 1233  14.618  15.423  10.804 -0.1046  0.1362 -0.0190
   78loPI    C2 1234  14.842  15.125  10.949 -0.2448  0.0653  0.0542
   78loPI    C3 1235  14.833  15.478  11.137  0.0279  0.1615 -0.1082
   78loPI   PO4 1236  14.575  15.392  10.516  0.1261  0.0567  0.1084
   78loPI   GL1 1237  14.652  15.707  10.160  0.3422 -0.1685 -0.1653
   78loPI   GL2 1238  14.981  15.704  10.169 -0.1912 -0.2835 -0.3905
   78loPI   C1A 1239  14.372  15.895   9.818  0.0042 -0.0205  0.0873
   78loPI   C2A 1240  14.277  15.891   9.414 -0.1610  0.3314 -0.0527
   78loPI   C3A 1241  14.277  15.944   8.914  0.2746  0.1346  0.1114
   78loPI   C4A 1242  14.342  15.859   8.490 -0.0671  0.3978  0.3389
   78loPI   C5A 1243  14.232  15.888   8.101  0.0587 -0.1876 -0.2314
   78loPI   C6A 1244  14.176  16.217   7.760  0.1286 -0.0868 -0.2820
   78loPI   C1B 1245  14.901  15.620   9.702  0.2285  0.0124  0.0608
   78loPI   C2B 1246  14.958  15.543   9.322 -0.1477 -0.0444  0.2488
   78loPI   C3B 1247  14.881  15.602   8.961  0.0865  0.2897  0.3697
   78loPI   C4B 1248  14.764  15.611   8.593  0.3362  0.4861  0.3361
   79loPI    C1 1249   2.401   0.723  11.026  0.4202 -0.2582 -0.0983
   79loPI    C2 1250   2.790   0.728  10.935  0.4607  0.0023  0.0786
   79loPI    C3 1251   2.662   0.897  11.274  0.2020 -0.1527  0.0607
   79loPI   PO4 1252   2.274   0.654  10.792 -0.2861  0.0467  0.1379
   79loPI   GL1 1253   1.880   0.523  10.444 -0.1061  0.2147  0.2836
   79loPI   GL2 1254   2.029   0.233  10.346 -0.2862 -0.2329  0.2258
   79loPI   C1A 1255   1.965   0.386   9.923 -0.0006 -0.0744  0.0900
   79loPI   C2A 1256   1.965   0.412   9.513  0.2628  0.1254 -0.4117
   79loPI   C3A 1257   2.009   0.390   9.074  0.1061  0.1710 -0.0685
   79loPI   C4A 1258   1.939   0.479   8.650 -0.2569 -0.3009 -0.1154
   79loPI   C5A 1259   1.971   0.768   8.246 -0.1451  0.0224  0.0718
   79loPI   C6A 1260   2.310   1.096   8.289 -0.3167  0.4705 -0.2013
   79loPI   C1B 1261   2.355   0.118  10.033  0.1579 -0.0551 -0.0083
   79loPI   C2B 1262   2.495   0.207   9.583  0.2412  0.0028  0.0144
   79loPI   C3B 1263   2.475   0.151   9.072 -0.1488  0.1690 -0.2678
   79loPI   C4B 1264   2.428   0.137   8.579  0.0260 -0.0157  0.0301
   80loPI    C1 1265  12.726   5.817  10.189 -0.2413 -0.0443 -0.1618
   80loPI    C2 1266  12.755   5.456  10.358 -0.0830 -0.0869 -0.2785
   80loPI    C3 1267  12.526   5.737  10.527 -0.0119 -0.1625 -0.0521
   80loPI   PO4 1268  12.738   5.655   9.895  0.2482 -0.4845 -0.0356
   80loPI   GL1 1269  12.893   5.476   9.576 -0.0778  0.2651  0.1445
   80loPI   GL2 1270  13.181   5.325   9.542  0.1634 -0.1222  0.0505
   80loPI   C1A 1271  12.806   5.244   9.240  0.0500  0.1468 -0.1248
   80loPI   C2A 1272  13.010   5.188   8.883 -0.2159 -0.1034 -0.1270
   80loPI   C3A 1273  12.961   5.234   8.491 -0.1968  0.1837  0.0968
   80loPI   C4A 1274  12.720   5.330   8.054  0.1531  0.0224 -0.3245
   80loPI   C5A 1275  12.957   5.212   7.738 -0.0554 -0.1691 -0.1233
   80loPI   C6A 1276  13.312   5.422   7.539  0.2649 -0.1977 -0.2166
   80loPI   C1B 1277  13.292   5.483   9.159  0.1367 -0.0097 -0.0049
   80loPI   C2B 1278  13.540   5.420   8.812 -0.0494  0.0418 -0.1074
   80loPI   C3B 1279  13.550   5.393   8.399  0.4071  0.0330  0.1512
   80loPI   C4B 1280  13.303   5.283   8.083 -0.0861 -0.1832  0.1635
   81loPI    C1 1281   4.955   7.657  10.461 -0.1598  0.0820 -0.0322
   81loPI    C2 1282   4.917   7.858  10.805 -0.2244  0.1846 -0.0985
   81loPI    C3 1283   4.666   7.558  10.720 -0.1573  0.1057 -0.0203
   81loPI   PO4 1284   4.952   7.831  10.298 -0.1324 -0.3778  0.3244
   81loPI   GL1 1285   4.778   7.721   9.955  0.2292 -0.0235  0.3779
   81loPI   GL2 1286   4.787   7.405  10.026 -0.0884 -0.1984 -0.3630
   81loPI   C1A 1287   4.604   7.690   9.602 -0.3566  0.1070 -0.1370
   81loPI   C2A 1288   4.649   7.863   9.200  0.1186 -0.0059 -0.0043
   81loPI   C3A 1289   4.567   7.859   8.771 -0.1835  0.1627 -0.0343
   81loPI   C4A 1290   4.538   7.671   8.449  0.1766 -0.1690  0.0930
   81loPI   C5A 1291   4.825   7.667   8.169  0.2583  0.1536 -0.0784
   81loPI   C6A 1292   5.209   7.503   8.034 -0.0608  0.0593  0.1193
   81loPI   C1B 1293   4.755   7.242   9.709 -0.0438 -0.0919 -0.0589
   81loPI   C2B 1294   4.723   7.236   9.207 -0.0162  0.1958  0.1598
   81loPI   C3B 1295   4.688   7.174   8.718  0.0764 -0.1100  0.0136
   81loPI   C4B 1296   4.634   7.151   8.261 -0.4078 -0.0791 -0.1828
   82loPI    C1 1297   0.483  13.806  10.824 -0.0830 -0.0639 -0.0491
   82loPI    C2 1298   0.510  14.169  10.990  0.2265 -0.1000 -0.0139
   82loPI    C3 1299   0.183  13.945  11.049  0.1526  0.0594  0.1942
   82loPI   PO4 1300   0.628  13.821  10.572  0.0483  0.1326  0.0831
   82loPI   GL1 1301   0.536  14.105  10.274  0.3667  0.1007 -0.0205
   82loPI   GL2 1302   0.307  13.844  10.141  0.1265 -0.1133  0.1117
   82loPI   C1A 1303   0.440  14.198   9.784 -0.3211  0.0665 -0.1863
   82loPI   C2A 1304   0.471  14.223   9.485 -0.1316  0.0742  0.3036
   82loPI   C3A 1305   0.560  14.303   8.998 -0.0553  0.1110 -0.0115
   82loPI   C4A 1306   0.554  14.321   8.551  0.3038  0.0480 -0.1715
   82loPI   C5A 1307   0.578  14.323   8.094  0.0263 -0.1531 -0.0408
   82loPI   C6A 1308   0.628  13.977   7.868 -0.0942  0.2983  0.0471
   82loPI   C1B 1309   0.548  13.740   9.789  0.1330 -0.0197  0.3888
   82loPI   C2B 1310   0.523  13.784   9.328  0.0993 -0.1670 -0.0577
   82loPI   C3B 1311   0.538  13.824   8.790 -0.0586 -0.1140 -0.1144
   82loPI   C4B 1312   0.595  13.670   8.325 -0.2141 -0.2416  0.0908
   83loPI    C1 1313  11.530   8.012  10.744  0.0628  0.1941 -0.0684
   83loPI    C2 1314  11.308   8.344  10.757  0.1724  0.2618  0.0969
   83loPI    C3 1315  11.339   8.112  11.081 -0.0194  0.0132 -0.0601
   83loPI   PO4 1316  11.763   8.097  10.548 -0.0140  0.2093  0.1850
   83loPI   GL1 1317  11.963   8.128  10.206  0.0620  0.2041 -0.3641
   83loPI   GL2 1318  11.750   7.885   9.950 -0.1046  0.0721 -0.2781
   83loPI   C1A 1319  12.077   8.234   9.737 -0.0844  0.0087 -0.1541
   83loPI   C2A 1320  12.241   8.283   9.414  0.1054 -0.1156 -0.3537
   83loPI   C3A 1321  12.105   8.277   8.988  0.1416 -0.2642  0.2223
   83loPI   C4A 1322  12.080   8.384   8.622  0.1243  0.2955  0.1320
   83loPI   C5A 1323  11.945   8.427   8.196  0.0116 -0.2208 -0.1467
   83loPI   C6A 1324  11.699   8.172   7.842  0.0164 -0.2731  0.0863
   83loPI   C1B 1325  11.741   7.975   9.540  0.2817 -0.1479  0.0823
   83loPI   C2B 1326  11.612   8.035   9.263  0.0177 -0.3021  0.0021
   83loPI   C3B 1327  11.642   8.113   8.872 -0.0463 -0.0987  0.0053
   83loPI   C4B 1328  11.506   8.019   8.475 -0.0214  0.0025 -0.0693
   84loPI    C1 1329   6.390  15.161  10.773 -0.2802  0.1935  0.1266
   84loPI    C2 1330   6.270  15.491  10.964 -0.1581  0.1982  0.1966
   84loPI    C3 1331   6.520  15.236  11.143 -0.0214  0.2157  0.0332
   84loPI   PO4 1332   6.370  15.241  10.551 -0.3607 -0.0480 -0.3517
   84loPI   GL1 1333   6.568  15.511  10.300 -0.2003  0.0005 -0.1188
   84loPI   GL2 1334   6.560  15.284  10.100 -0.0464  0.2396 -0.0978
   84loPI   C1A 1335   6.684  15.762   9.920 -0.3192  0.2655 -0.0133
   84loPI   C2A 1336   6.590  15.655   9.540 -0.0317  0.1654  0.1350
   84loPI   C3A 1337   6.620  15.603   9.171 -0.1120 -0.0958  0.0191
   84loPI   C4A 1338   6.480  15.651   8.864  0.0979  0.1316 -0.1034
   84loPI   C5A 1339   6.504  15.577   8.355  0.2296 -0.2227  0.0982
   84loPI   C6A 1340   6.432  15.513   7.951  0.2079 -0.0575  0.2269
   84loPI   C1B 1341   6.609  15.081   9.700 -0.2183  0.1353  0.1969
   84loPI   C2B 1342   6.677  15.161   9.373 -0.2462 -0.0662 -0.1823
   84loPI   C3B 1343   6.559  15.113   9.056 -0.1317 -0.3367  0.0458
   84loPI   C4B 1344   6.481  15.178   8.635  0.0175  0.0812 -0.2199
   85loPI    C1 1345  10.894  17.400  10.863 -0.1160  0.2955 -0.0670
   85loPI    C2 1346  10.597  17.247  11.082  0.0934  0.1980  0.1538
   85loPI    C3 1347  10.873  17.480  11.255  0.1566  0.2722 -0.0451
   85loPI   PO4 1348  10.879  17.197  10.666 -0.0421  0.2168 -0.1920
   85loPI   GL1 1349  10.800  17.296  10.202 -0.2121 -0.1567  0.1475
   85loPI   GL2 1350  10.955  16.856  10.330  0.0631  0.0138  0.6204
   85loPI   C1A 1351  11.052  17.110   9.823  0.0394  0.1543  0.3132
   85loPI   C2A 1352  11.116  17.132   9.363 -0.0836 -0.2432 -0.1779
   85loPI   C3A 1353  11.131  17.168   8.859  0.0169  0.0209 -0.0255
   85loPI   C4A 1354  11.146  17.208   8.529 -0.0171 -0.0303 -0.1052
   85loPI   C5A 1355  11.136  17.157   8.067 -0.0309  0.1018  0.2668
   85loPI   C6A 1356  11.232  16.891   7.623  0.1176  0.4059 -0.0198
   85loPI   C1B 1357  11.033  16.632   9.890  0.2902  0.2057 -0.2245
   85loPI   C2B 1358  11.119  16.603   9.460 -0.2334  0.1075  0.1201
   85loPI   C3B 1359  11.210  16.624   9.017  0.1190  0.1364 -0.0106
   85loPI   C4B 1360  11.090  16.589   8.631 -0.1606  0.3034  0.2783
   86loPI    C1 1361   8.557   0.853  10.627 -0.0872 -0.1409 -0.0683
   86loPI    C2 1362   8.578   1.250  10.585  0.1389 -0.1385  0.0508
   86loPI    C3 1363   8.268   1.086  10.776  0.1032 -0.0107  0.1042
   86loPI   PO4 1364   8.368   0.789  10.309 -0.1879 -0.0013 -0.1944
   86loPI   GL1 1365   8.465   0.781   9.858  0.1474  0.1526 -0.2452
   86loPI   GL2 1366   8.809   0.620   9.707 -0.1663  0.2619 -0.1497
   86loPI   C1A 1367   8.350   0.656   9.475 -0.3611 -0.0130 -0.0629
   86loPI   C2A 1368   8.346   0.465   9.035  0.2379  0.1324 -0.1786
   86loPI   C3A 1369   8.289   0.413   8.614 -0.2881  0.0083  0.2090
   86loPI   C4A 1370   8.392   0.194   8.231 -0.1207  0.0018 -0.0974
   86loPI   C5A 1371   8.542   0.252   7.841 -0.0099 -0.0692  0.1209
   86loPI   C6A 1372   8.968   0.278   7.642  0.3961  0.0487  0.0075
   86loPI   C1B 1373   8.827   0.369   9.390  0.0768 -0.1456  0.1464
   86loPI   C2B 1374   8.820   0.255   9.069 -0.1035 -0.2918 -0.2438
   86loPI   C3B 1375   8.751   0.278   8.608  0.3539 -0.2476  0.0673
   86loPI   C4B 1376   8.870   0.054   8.156  0.1489 -0.2107 -0.0730
   87loPI    C1 1377   3.723   5.246  11.252 -0.0491  0.1636 -0.0875
   87loPI    C2 1378   3.450   5.261  11.544 -0.0432  0.1213 -0.0797
   87loPI    C3 1379   3.827   5.376  11.616 -0.0443  0.1212 -0.0737
   87loPI   PO4 1380   3.646   5.394  11.057  0.1191  0.0382 -0.1953
   87loPI   GL1 1381   3.716   5.358  10.535 -0.1126  0.4654  0.1087
   87loPI   GL2 1382   3.418   5.365  10.488  0.2192 -0.0432  0.2650
   87loPI   C1A 1383   3.829   5.657  10.152 -0.2263 -0.0051  0.3849
   87loPI   C2A 1384   3.844   5.664   9.726 -0.0544  0.5096  0.1549
   87loPI   C3A 1385   3.759   5.668   9.234  0.1048  0.0265 -0.1781
   87loPI   C4A 1386   3.724   5.554   8.803 -0.0481 -0.4144 -0.1203
   87loPI   C5A 1387   3.601   5.592   8.402 -0.2959  0.1040 -0.0086
   87loPI   C6A 1388   3.276   5.579   8.020  0.2968 -0.1927  0.0490
   87loPI   C1B 1389   3.419   5.438  10.061 -0.0320 -0.0259 -0.3165
   87loPI   C2B 1390   3.329   5.372   9.586 -0.3244  0.4642 -0.2374
   87loPI   C3B 1391   3.251   5.347   9.086 -0.0874 -0.5543  0.0244
   87loPI   C4B 1392   3.183   5.395   8.703  0.4187 -0.2361  0.1755
   88loPI    C1 1393  18.136  14.093  10.641  0.1731 -0.0086 -0.0527
   88loPI    C2 1394  18.281  14.313  10.341  0.2358 -0.2227 -0.1817
   88loPI    C3 1395  18.524  14.190  10.634  0.1834 -0.0511 -0.0644
   88loPI   PO4 1396  17.846  14.180  10.611 -0.0400 -0.1356 -0.0174
   88loPI   GL1 1397  17.794  14.390  10.320  0.0686 -0.0255 -0.1420
   88loPI   GL2 1398  17.802  14.592  10.187  0.2424  0.3022 -0.0074
   88loPI   C1A 1399  18.017  14.246   9.916  0.0600 -0.0916  0.1346
   88loPI   C2A 1400  18.000  14.202   9.430 -0.2658  0.0398  0.1263
   88loPI   C3A 1401  18.050  14.314   9.011 -0.0352 -0.1575 -0.0587
   88loPI   C4A 1402  18.106  14.326   8.502  0.1190 -0.1159 -0.0798
   88loPI   C5A 1403  18.135  14.215   8.081  0.0706 -0.0860  0.1247
   88loPI   C6A 1404  18.041  13.942   7.695 -0.1627 -0.1234 -0.0654
   88loPI   C1B 1405  17.613  14.577   9.741  0.3484 -0.1801 -0.1110
   88loPI   C2B 1406  17.555  14.574   9.293  0.3531  0.2784 -0.0555
   88loPI   C3B 1407  17.545  14.495   8.949  0.0473 -0.0204  0.0536
   88loPI   C4B 1408  17.616  14.531   8.532 -0.0762  0.2757 -0.1579
   89loPI    C1 1409  13.143   3.360  10.359 -0.3060  0.0368  0.1823
   89loPI    C2 1410  12.927   3.161  10.630 -0.1610  0.0601  0.3162
   89loPI    C3 1411  12.963   3.558  10.656 -0.2739  0.0803  0.1728
   89loPI   PO4 1412  13.051   3.222  10.119  0.0488 -0.1558 -0.1297
   89loPI   GL1 1413  12.802   3.123   9.740  0.1400 -0.3895 -0.4314
   89loPI   GL2 1414  12.756   2.817   9.848  0.1202 -0.0943 -0.0436
   89loPI   C1A 1415  12.770   3.291   9.335  0.1948  0.0128 -0.1366
   89loPI   C2A 1416  12.938   3.208   8.932  0.0947  0.1745  0.3040
   89loPI   C3A 1417  13.009   2.981   8.551 -0.0585  0.1618  0.0642
   89loPI   C4A 1418  13.083   2.869   8.095 -0.0145  0.2468  0.0482
   89loPI   C5A 1419  13.333   2.747   7.827  0.2228  0.1235  0.2755
   89loPI   C6A 1420  13.434   2.466   7.524  0.1488 -0.0395 -0.1991
   89loPI   C1B 1421  12.791   2.587   9.638  0.1831 -0.2688  0.1194
   89loPI   C2B 1422  12.959   2.431   9.240  0.0737 -0.1267 -0.4204
   89loPI   C3B 1423  12.965   2.443   8.874  0.2480  0.0220  0.1487
   89loPI   C4B 1424  13.040   2.456   8.400  0.0329 -0.2392 -0.1297
   90loPI    C1 1425   9.047   2.463  10.059 -0.4528 -0.0332  0.2127
   90loPI    C2 1426   9.172   2.092   9.977  0.4287  0.2834  0.0153
   90loPI    C3 1427   9.105   2.202  10.356 -0.3494 -0.2087  0.0409
   90loPI   PO4 1428   8.846   2.544   9.779  0.0537 -0.0198 -0.2677
   90loPI   GL1 1429   8.893   2.396   9.461  0.2348 -0.3088  0.1216
   90loPI   GL2 1430   8.778   2.065   9.411 -0.1445  0.0848 -0.0122
   90loPI   C1A 1431   9.117   2.301   9.072 -0.1303  0.2100  0.5117
   90loPI   C2A 1432   8.900   2.274   8.729  0.1378 -0.1202 -0.0445
   90loPI   C3A 1433   8.825   2.205   8.330  0.0554 -0.1117  0.0911
   90loPI   C4A 1434   8.617   2.156   7.989 -0.3307  0.2233  0.0381
   90loPI   C5A 1435   8.496   2.351   7.671  0.1308  0.2279  0.0682
   90loPI   C6A 1436   8.108   2.391   7.480 -0.2877  0.1524  0.1912
   90loPI   C1B 1437   8.841   1.799   9.053  0.0517  0.0470 -0.1697
   90loPI   C2B 1438   8.919   1.791   8.615  0.1246  0.1783  0.0581
   90loPI   C3B 1439   9.175   1.835   8.282 -0.1005 -0.0696  0.0778
   90loPI   C4B 1440   9.275   2.131   7.970  0.2351 -0.0719 -0.1475
   91loPI    C1 1441   8.096  13.452  10.915  0.1854 -0.1516  0.1655
   91loPI    C2 1442   8.181  13.809  11.073  0.1041 -0.0013 -0.1233
   91loPI    C3 1443   8.173  13.484  11.306  0.1011  0.1958  0.1565
   91loPI   PO4 1444   8.013  13.516  10.712 -0.1863 -0.0427  0.3160
   91loPI   GL1 1445   8.044  13.370  10.411 -0.0097 -0.1375  0.1245
   91loPI   GL2 1446   7.819  13.157  10.352  0.2929  0.0982  0.1475
   91loPI   C1A 1447   8.014  13.210   9.894 -0.2811 -0.0245 -0.0149
   91loPI   C2A 1448   7.928  13.241   9.411  0.0064  0.0399 -0.0021
   91loPI   C3A 1449   8.029  13.310   9.097 -0.1605  0.1560  0.0200
   91loPI   C4A 1450   7.912  13.241   8.764 -0.2769 -0.2129  0.0845
   91loPI   C5A 1451   7.828  13.159   8.321 -0.0282  0.0952 -0.1825
   91loPI   C6A 1452   7.567  12.795   8.087  0.0255  0.0523 -0.1856
   91loPI   C1B 1453   7.629  12.915  10.026 -0.1436  0.0024  0.1129
   91loPI   C2B 1454   7.522  12.984   9.517  0.0543  0.1538  0.0960
   91loPI   C3B 1455   7.537  13.004   9.033  0.0874  0.0482  0.0186
   91loPI   C4B 1456   7.494  12.925   8.660  0.0625 -0.1447 -0.0478
   92loPI    C1 1457   4.166  17.792  10.581  0.1542 -0.2040  0.2170
   92loPI    C2 1458   4.069  17.621  10.930  0.1090 -0.0952  0.2581
   92loPI    C3 1459   4.189  18.002  10.921  0.3362 -0.1670  0.1827
   92loPI   PO4 1460   3.903  17.852  10.421  0.0218  0.1035 -0.3419
   92loPI   GL1 1461   3.689  17.589  10.114  0.1069  0.0800  0.3160
   92loPI   GL2 1462   3.785  17.235  10.075  0.0866 -0.0620 -0.0060
   92loPI   C1A 1463   3.823  17.727   9.750  0.1725  0.1019 -0.1419
   92loPI   C2A 1464   3.797  17.712   9.238 -0.1674 -0.1642 -0.0644
   92loPI   C3A 1465   3.781  17.649   8.779 -0.2119 -0.2120 -0.2315
   92loPI   C4A 1466   3.841  17.759   8.374 -0.2281 -0.2399  0.0499
   92loPI   C5A 1467   4.034  17.890   7.936  0.3564  0.0885  0.0516
   92loPI   C6A 1468   4.401  17.869   7.643 -0.1902 -0.0781  0.1092
   92loPI   C1B 1469   3.744  17.181   9.617 -0.3078  0.1962  0.2207
   92loPI   C2B 1470   3.786  17.202   9.209 -0.1944 -0.5195 -0.3036
   92loPI   C3B 1471   3.737  17.135   8.861  0.1479  0.2860  0.1682
   92loPI   C4B 1472   3.977  17.141   8.403  0.0137  0.4117 -0.2468
   93loPI    C1 1473   8.526  13.655  10.715  0.1022 -0.1115 -0.3806
   93loPI    C2 1474   8.602  13.304  10.539  0.1031 -0.3446  0.0689
   93loPI    C3 1475   8.573  13.325  10.937 -0.1609  0.1198  0.0320
   93loPI   PO4 1476   8.487  13.799  10.444 -0.0193  0.1641 -0.0187
   93loPI   GL1 1477   8.189  13.750  10.099 -0.1579  0.1700  0.1566
   93loPI   GL2 1478   7.908  13.674  10.045  0.2133  0.0774 -0.2687
   93loPI   C1A 1479   8.448  13.535   9.760 -0.0688  0.1665 -0.2979
   93loPI   C2A 1480   8.429  13.542   9.342  0.0573  0.1240  0.2604
   93loPI   C3A 1481   8.387  13.520   8.883  0.2510 -0.1389  0.2841
   93loPI   C4A 1482   8.238  13.466   8.505 -0.0368 -0.0529 -0.0003
   93loPI   C5A 1483   8.301  13.291   8.020  0.0619 -0.1825  0.1224
   93loPI   C6A 1484   8.027  13.124   7.721  0.2000  0.2202  0.1350
   93loPI   C1B 1485   7.981  13.703   9.652  0.2880 -0.0144  0.2383
   93loPI   C2B 1486   7.949  13.760   9.247 -0.0301  0.0622  0.0939
   93loPI   C3B 1487   7.859  13.776   8.796 -0.0251 -0.2836 -0.1223
   93loPI   C4B 1488   7.663  13.594   8.492 -0.1191 -0.3487 -0.0711
   94loPI    C1 1489  17.087  13.888  10.967  0.0210  0.1518  0.0306
   94loPI    C2 1490  16.965  14.150  11.244  0.1813 -0.1380  0.3846
   94loPI    C3 1491  17.347  14.031  11.236  0.2312  0.0332 -0.1069
   94loPI   PO4 1492  16.995  13.867  10.778  0.0506  0.0807  0.3612
   94loPI   GL1 1493  16.998  13.971  10.370 -0.1529 -0.0627 -0.1246
   94loPI   GL2 1494  16.638  14.106  10.330  0.1115 -0.0252 -0.1615
   94loPI   C1A 1495  17.164  13.873  10.014 -0.0586  0.1722  0.2736
   94loPI   C2A 1496  17.027  13.722   9.646  0.1701  0.3605  0.3227
   94loPI   C3A 1497  17.045  13.731   9.170 -0.1525 -0.2338 -0.0376
   94loPI   C4A 1498  17.053  13.728   8.675  0.1003 -0.0483 -0.2352
   94loPI   C5A 1499  16.967  13.733   8.214  0.1630 -0.1347 -0.1113
   94loPI   C6A 1500  17.324  13.825   7.958  0.0756  0.2411 -0.0438
   94loPI   C1B 1501  16.653  14.034   9.894 -0.2239  0.2736  0.0871
   94loPI   C2B 1502  16.678  14.038   9.440  0.0862  0.0344 -0.0524
   94loPI   C3B 1503  16.591  14.001   8.963 -0.0697  0.2977  0.4206
   94loPI   C4B 1504  16.648  13.985   8.560  0.1660  0.1388  0.0451
   95loPI    C1 1505  14.596  17.058  10.887 -0.2722  0.3108  0.3009
   95loPI    C2 1506  14.464  16.722  11.059  0.0785 -0.0675 -0.1438
   95loPI    C3 1507  14.757  16.933  11.231  0.1211 -0.1988 -0.0533
   95loPI   PO4 1508  14.359  17.165  10.815  0.2674  0.1796 -0.0942
   95loPI   GL1 1509  14.165  17.158  10.358  0.2399 -0.3954  0.1007
   95loPI   GL2 1510  14.538  17.172  10.307 -0.1637 -0.2271 -0.2515
   95loPI   C1A 1511  14.339  17.031   9.903  0.2294 -0.0529 -0.0300
   95loPI   C2A 1512  14.272  16.979   9.448  0.1775  0.2771 -0.0311
   95loPI   C3A 1513  14.250  16.927   9.012  0.2885  0.1217 -0.0379
   95loPI   C4A 1514  14.263  16.922   8.597  0.2104  0.0554  0.1453
   95loPI   C5A 1515  14.356  16.940   8.099  0.2174  0.1257 -0.2523
   95loPI   C6A 1516  14.041  16.994   7.723  0.0049 -0.2088  0.0647
   95loPI   C1B 1517  14.705  17.345   9.929 -0.1256 -0.0730 -0.2358
   95loPI   C2B 1518  14.699  17.196   9.539 -0.0240  0.0028 -0.0466
   95loPI   C3B 1519  14.863  17.231   9.066 -0.1048 -0.0045 -0.0446
   95loPI   C4B 1520  14.695  17.171   8.674  0.0282 -0.1570 -0.3171
   96loPI    C1 1521  16.150   7.699  11.089 -0.0503  0.2132  0.0709
   96loPI    C2 1522  16.493   7.527  11.204 -0.1562 -0.0311  0.0265
   96loPI    C3 1523  16.339   7.829  11.417  0.1521  0.1674 -0.0264
   96loPI   PO4 1524  16.229   7.621  10.752 -0.2556 -0.0633  0.2278
   96loPI   GL1 1525  16.091   7.706  10.237 -0.0447 -0.3031  0.2365
   96loPI   GL2 1526  16.010   8.069  10.085 -0.5032 -0.1245  0.1758
   96loPI   C1A 1527  16.134   7.569   9.812  0.3197 -0.1021  0.1178
   96loPI   C2A 1528  16.186   7.535   9.309 -0.1768 -0.3986  0.0137
   96loPI   C3A 1529  16.158   7.531   8.929  0.0852 -0.1036  0.0822
   96loPI   C4A 1530  16.248   7.459   8.445 -0.2108 -0.2101 -0.1951
   96loPI   C5A 1531  16.356   7.417   8.021  0.2495  0.2078  0.0603
   96loPI   C6A 1532  16.750   7.487   7.826 -0.0455  0.0557  0.1314
   96loPI   C1B 1533  16.126   8.088   9.664  0.1780 -0.2014  0.2974
   96loPI   C2B 1534  16.089   7.994   9.305  0.0906 -0.2309 -0.2348
   96loPI   C3B 1535  16.088   8.036   8.986  0.2753  0.1324  0.3278
   96loPI   C4B 1536  16.147   8.109   8.602  0.2330  0.1085 -0.2290
   97loPI    C1 1537  13.375   1.357  10.475  0.1417 -0.0017 -0.0023
   97loPI    C2 1538  12.976   1.369  10.502  0.1472 -0.0716  0.1177
   97loPI    C3 1539  13.200   1.571  10.764  0.1907 -0.0043  0.0294
   97loPI   PO4 1540  13.478   1.459  10.262 -0.3867 -0.1286  0.1130
   97loPI   GL1 1541  13.696   1.626   9.875  0.0140 -0.0443 -0.3309
   97loPI   GL2 1542  13.451   1.360   9.759  0.1281  0.1144  0.0361
   97loPI   C1A 1543  13.827   1.577   9.524  0.1351 -0.0082  0.1551
   97loPI   C2A 1544  13.880   1.502   8.999 -0.4150 -0.0623  0.1524
   97loPI   C3A 1545  13.952   1.445   8.578  0.3075 -0.0133  0.1237
   97loPI   C4A 1546  13.838   1.355   8.117  0.3010  0.1736  0.0722
   97loPI   C5A 1547  13.595   1.425   7.717  0.3135  0.0656  0.0127
   97loPI   C6A 1548  13.493   0.976   7.491  0.0776  0.2105 -0.1231
   97loPI   C1B 1549  13.415   1.221   9.377 -0.0341  0.1144  0.1664
   97loPI   C2B 1550  13.394   1.262   8.925  0.0708 -0.2227 -0.2086
   97loPI   C3B 1551  13.461   1.252   8.488  0.0752 -0.0794 -0.3242
   97loPI   C4B 1552  13.448   1.033   8.063  0.1694 -0.0634  0.1203
   98loPI    C1 1553   0.666  16.085  10.764 -0.1454  0.0739 -0.0844
   98loPI    C2 1554   1.024  15.955  10.886 -0.2003  0.0473  0.0502
   98loPI    C3 1555   0.884  16.307  11.014 -0.1271  0.1614 -0.1775
   98loPI   PO4 1556   0.593  16.055  10.550 -0.0604  0.4287 -0.0601
   98loPI   GL1 1557   0.409  16.384  10.274  0.1809 -0.1508  0.0345
   98loPI   GL2 1558   0.058  16.512  10.254 -0.3707 -0.1516 -0.1188
   98loPI   C1A 1559   0.592  16.544   9.975 -0.0502 -0.2332 -0.1974
   98loPI   C2A 1560   0.518  16.356   9.538 -0.0546  0.0398  0.0374
   98loPI   C3A 1561   0.538  16.376   9.118 -0.2447 -0.1347  0.1159
   98loPI   C4A 1562   0.447  16.450   8.687  0.0605  0.0475  0.2468
   98loPI   C5A 1563   0.270  16.472   8.222 -0.0534 -0.2571  0.4672
   98loPI   C6A 1564  -0.013  16.819   8.163 -0.4597  0.1020  0.3637
   98loPI   C1B 1565   0.053  16.683   9.888 -0.4244 -0.2009  0.0409
   98loPI   C2B 1566   0.106  16.688   9.440  0.1197 -0.1328 -0.0797
   98loPI   C3B 1567   0.160  16.670   9.033 -0.0226 -0.0064 -0.2958
   98loPI   C4B 1568   0.119  16.818   8.695  0.1422  0.0682 -0.3850
   99loPI    C1 1569  12.279  15.270  10.910  0.0765  0.2104 -0.1775
   99loPI    C2 1570  12.579  15.150  11.146 -0.1385 -0.1697 -0.0879
   99loPI    C3 1571  12.202  15.130  11.277 -0.2299  0.0028 -0.3169
   99loPI   PO4 1572  12.294  15.049  10.714 -0.3728 -0.1707 -0.0662
   99loPI   GL1 1573  12.609  14.845  10.407 -0.0600 -0.1649  0.3843
   99loPI   GL2 1574  12.406  14.961  10.116  0.0808 -0.0267  0.0079
   99loPI   C1A 1575  12.870  14.707  10.017 -0.1279 -0.5166 -0.0767
   99loPI   C2A 1576  12.970  14.691   9.531 -0.0282 -0.1200 -0.2288
   99loPI   C3A 1577  13.034  14.642   9.044  0.1916  0.3483 -0.1566
   99loPI   C4A 1578  13.027  14.640   8.571 -0.2633 -0.1294  0.1228
   99loPI   C5A 1579  13.070  14.788   8.125  0.3936  0.0750  0.2550
   99loPI   C6A 1580  13.030  15.235   8.026 -0.2977 -0.3019  0.0753
   99loPI   C1B 1581  12.515  14.867   9.698 -0.1039  0.0965 -0.3203
   99loPI   C2B 1582  12.573  14.848   9.230 -0.1774  0.0299  0.2255
   99loPI   C3B 1583  12.572  14.827   8.807  0.1307 -0.2252 -0.0311
   99loPI   C4B 1584  12.589  14.873   8.373  0.2004 -0.0746 -0.1358
  100loPI    C1 1585  15.446  16.001  10.946 -0.1445 -0.0960 -0.0468
  100loPI    C2 1586  15.190  15.769  11.149 -0.2670  0.0155 -0.0724
  100loPI    C3 1587  15.255  16.146  11.267 -0.1237 -0.0084 -0.0737
  100loPI   PO4 1588  15.488  15.994  10.703 -0.0676 -0.0536  0.0005
  100loPI   GL1 1589  15.210  16.158  10.259  0.4771 -0.6234  0.0157
  100loPI   GL2 1590  15.379  16.420  10.177 -0.1482  0.1226 -0.2097
  100loPI   C1A 1591  15.367  15.870   9.867  0.3714 -0.2739 -0.3699
  100loPI   C2A 1592  15.404  15.803   9.425 -0.0365 -0.0403  0.0609
  100loPI   C3A 1593  15.208  15.948   9.062  0.1906  0.0510  0.0186
  100loPI   C4A 1594  15.172  15.926   8.592  0.4152  0.3899 -0.1233
  100loPI   C5A 1595  15.421  16.043   8.329 -0.0150 -0.0607  0.1595
  100loPI   C6A 1596  15.857  16.246   8.385  0.2576  0.1936 -0.1084
  100loPI   C1B 1597  15.309  16.362   9.785 -0.0434  0.1158 -0.2120
  100loPI   C2B 1598  15.210  16.297   9.385 -0.3284 -0.2365  0.1405
  100loPI   C3B 1599  15.230  16.494   8.990  0.1992  0.1388  0.1287
  100loPI   C4B 1600  15.152  16.452   8.537 -0.2349 -0.2961  0.2493
  101loPI    C1 1601   3.556  14.096  10.512 -0.0054 -0.1480 -0.0825
  101loPI    C2 1602   3.237  13.901  10.654 -0.1004 -0.0995 -0.2276
  101loPI    C3 1603   3.368  14.231  10.838  0.0689 -0.3050  0.0266
  101loPI   PO4 1604   3.544  14.066  10.292  0.0294  0.0374  0.0364
  101loPI   GL1 1605   3.635  13.751   9.973  0.0419 -0.2969 -0.1135
  101loPI   GL2 1606   3.749  13.988   9.828  0.3118  0.1561 -0.0247
  101loPI   C1A 1607   3.684  13.557   9.545  0.0610  0.0578 -0.0644
  101loPI   C2A 1608   3.741  13.554   9.155 -0.1414  0.1050 -0.2555
  101loPI   C3A 1609   3.706  13.530   8.798 -0.2881  0.1429 -0.0934
  101loPI   C4A 1610   3.799  13.578   8.346  0.2187 -0.3737 -0.0195
  101loPI   C5A 1611   3.597  13.597   7.961 -0.1552 -0.4032 -0.0434
  101loPI   C6A 1612   3.806  13.765   7.533  0.1700 -0.1037 -0.1070
  101loPI   C1B 1613   3.915  14.037   9.369 -0.1681 -0.0203  0.1713
  101loPI   C2B 1614   3.802  14.049   8.902 -0.2935 -0.2183 -0.0720
  101loPI   C3B 1615   3.744  14.040   8.475 -0.1250  0.2449 -0.0073
  101loPI   C4B 1616   3.765  14.029   8.092 -0.1975 -0.1404 -0.1542
  102loPI    C1 1617   6.028  12.633  10.520  0.0256 -0.0772 -0.1030
  102loPI    C2 1618   6.397  12.763  10.436 -0.0460  0.1423 -0.0846
  102loPI    C3 1619   6.290  12.698  10.816  0.0240 -0.0782 -0.1014
  102loPI   PO4 1620   5.996  12.433  10.342 -0.0605  0.2234 -0.1301
  102loPI   GL1 1621   6.022  12.442  10.017  0.1204 -0.2556 -0.2877
  102loPI   GL2 1622   6.143  12.767  10.022  0.2203  0.0723  0.2326
  102loPI   C1A 1623   5.740  12.434   9.690  0.1613  0.2950 -0.0426
  102loPI   C2A 1624   5.674  12.388   9.236 -0.0941 -0.0038  0.0458
  102loPI   C3A 1625   5.549  12.431   8.839  0.0903  0.5546 -0.0231
  102loPI   C4A 1626   5.715  12.416   8.355 -0.1114  0.1630  0.3058
  102loPI   C5A 1627   5.835  12.201   7.959  0.0506  0.2769 -0.0254
  102loPI   C6A 1628   6.158  12.345   7.682  0.1142 -0.2878  0.2190
  102loPI   C1B 1629   6.180  12.664   9.569 -0.2258 -0.0801 -0.2519
  102loPI   C2B 1630   6.084  12.686   9.100 -0.1602 -0.0919  0.2764
  102loPI   C3B 1631   6.164  12.575   8.608 -0.0970 -0.1049  0.0798
  102loPI   C4B 1632   6.165  12.558   8.125 -0.3925 -0.2427 -0.0609
  103loPI    C1 1633  14.959  11.205  10.994 -0.0813  0.0790  0.0754
  103loPI    C2 1634  15.296  11.027  11.116 -0.1068 -0.0017  0.0289
  103loPI    C3 1635  15.005  11.107  11.379 -0.2145 -0.2901  0.0020
  103loPI   PO4 1636  14.853  11.026  10.835  0.1471  0.0974  0.3320
  103loPI   GL1 1637  14.862  10.980  10.362  0.1567 -0.1069 -0.0254
  103loPI   GL2 1638  15.293  11.132  10.203 -0.0179 -0.0960 -0.0673
  103loPI   C1A 1639  14.863  10.945   9.908  0.0675 -0.0188 -0.3458
  103loPI   C2A 1640  14.800  10.908   9.467 -0.1059  0.0118  0.0509
  103loPI   C3A 1641  14.776  10.923   9.059 -0.0981 -0.0815  0.2394
  103loPI   C4A 1642  14.723  11.028   8.591  0.0903 -0.0408  0.0014
  103loPI   C5A 1643  14.626  10.943   8.208 -0.1120 -0.2870 -0.0384
  103loPI   C6A 1644  14.326  11.253   7.903  0.4838 -0.5064  0.1666
  103loPI   C1B 1645  15.312  11.089   9.763  0.0183  0.0162 -0.1779
  103loPI   C2B 1646  15.250  11.106   9.256 -0.3101 -0.0237  0.0630
  103loPI   C3B 1647  15.183  11.191   8.765  0.3385  0.1209 -0.0558
  103loPI   C4B 1648  15.035  11.299   8.316 -0.0569  0.1773  0.2355
  104loPI    C1 1649   0.005  16.556  11.367  0.1348  0.0293  0.1868
  104loPI    C2 1650   0.321  16.647  11.595  0.0801  0.1556  0.2130
  104loPI    C3 1651  -0.042  16.781  11.695  0.0577  0.2229  0.0446
  104loPI   PO4 1652   0.039  16.631  11.101  0.1617 -0.2546  0.1081
  104loPI   GL1 1653  -0.065  16.766  10.646 -0.0306  0.0567 -0.1851
  104loPI   GL2 1654   0.202  16.923  10.506  0.0076 -0.0775  0.3147
  104loPI   C1A 1655  -0.261  16.971  10.231 -0.0380 -0.1705 -0.1163
  104loPI   C2A 1656  -0.410  16.925   9.811  0.1416  0.0057 -0.1016
  104loPI   C3A 1657  -0.359  16.994   9.412  0.0422 -0.2529 -0.0347
  104loPI   C4A 1658  -0.304  16.971   8.976  0.1407 -0.3590  0.2362
  104loPI   C5A 1659  -0.322  16.992   8.503  0.2852 -0.0467  0.0455
  104loPI   C6A 1660  -0.349  17.177   8.165 -0.2408 -0.0155 -0.1129
  104loPI   C1B 1661   0.395  17.102  10.198 -0.0639  0.0946  0.2018
  104loPI   C2B 1662   0.564  16.994   9.825 -0.0412 -0.2618  0.1408
  104loPI   C3B 1663   0.560  16.878   9.311  0.3190 -0.0390 -0.2856
  104loPI   C4B 1664   0.654  16.973   8.972 -0.2411 -0.0041 -0.3696
  105loPI    C1 1665   3.773  15.061  10.695  0.1038  0.2942  0.1337
  105loPI    C2 1666   4.102  15.209  10.870  0.0392  0.1261  0.4034
  105loPI    C3 1667   3.921  14.887  11.023  0.1670 -0.2293 -0.1629
  105loPI   PO4 1668   3.615  15.340  10.641  0.0768 -0.3054 -0.0528
  105loPI   GL1 1669   3.456  15.539  10.209 -0.0051 -0.0251  0.1169
  105loPI   GL2 1670   3.185  15.327  10.222 -0.0957 -0.2148 -0.1326
  105loPI   C1A 1671   3.423  15.348   9.805 -0.0774 -0.0174 -0.2066
  105loPI   C2A 1672   3.407  15.296   9.411  0.0236 -0.2568  0.1121
  105loPI   C3A 1673   3.396  15.323   9.048 -0.0181 -0.0130 -0.0534
  105loPI   C4A 1674   3.297  15.452   8.730  0.0164 -0.0188  0.1326
  105loPI   C5A 1675   3.387  15.426   8.222 -0.0462 -0.2166  0.0421
  105loPI   C6A 1676   3.291  15.299   7.806 -0.0968 -0.0278  0.0849
  105loPI   C1B 1677   2.985  15.519  10.016  0.2360 -0.2576  0.1829
  105loPI   C2B 1678   2.773  15.634   9.689 -0.0818 -0.0454  0.0248
  105loPI   C3B 1679   2.853  15.485   9.270 -0.0257  0.0588 -0.0395
  105loPI   C4B 1680   2.723  15.568   8.827 -0.1717 -0.0516  0.0664
  106loPI    C1 1681   4.998   5.837  10.801 -0.0612 -0.0336  0.0355
  106loPI    C2 1682   5.116   5.459  10.854 -0.1843 -0.0646  0.0920
  106loPI    C3 1683   4.910   5.646  11.141 -0.1159  0.0486  0.0678
  106loPI   PO4 1684   4.868   5.792  10.551 -0.1838 -0.0365  0.1861
  106loPI   GL1 1685   4.967   5.596  10.220 -0.2704  0.2236  0.1776
  106loPI   GL2 1686   4.807   5.360  10.291  0.0901 -0.2956  0.3276
  106loPI   C1A 1687   4.662   5.643   9.906 -0.0677 -0.1288  0.0506
  106loPI   C2A 1688   4.623   5.671   9.423 -0.0125  0.1809  0.2178
  106loPI   C3A 1689   4.555   5.696   8.997 -0.2152 -0.2367  0.0215
  106loPI   C4A 1690   4.560   5.674   8.546  0.2469  0.2742 -0.0015
  106loPI   C5A 1691   4.510   5.668   8.101 -0.2950 -0.0590 -0.0496
  106loPI   C6A 1692   4.224   5.653   7.878 -0.0162 -0.1625 -0.0340
  106loPI   C1B 1693   4.599   5.118  10.016 -0.1600  0.1183 -0.1118
  106loPI   C2B 1694   4.612   5.157   9.541 -0.3115  0.0274  0.2404
  106loPI   C3B 1695   4.592   5.140   9.065  0.0176 -0.0910  0.2125
  106loPI   C4B 1696   4.545   5.219   8.753 -0.3251  0.1155 -0.1104
  107loPI    C1 1697  12.232  17.782  10.470 -0.0422  0.1545 -0.0568
  107loPI    C2 1698  11.975  17.500  10.348  0.1651  0.0484 -0.2551
  107loPI    C3 1699  12.046  17.551  10.739 -0.2208  0.1379 -0.1929
  107loPI   PO4 1700  12.159  18.034  10.274  0.2422  0.0432  0.0612
  107loPI   GL1 1701  11.918  18.161   9.948 -0.2006  0.4556 -0.0446
  107loPI   GL2 1702  11.624  18.040   9.710  0.0350  0.0091 -0.1849
  107loPI   C1A 1703  12.083  18.245   9.538 -0.0077 -0.1323 -0.2142
  107loPI   C2A 1704  12.046  18.267   9.103  0.0492 -0.2580 -0.1741
  107loPI   C3A 1705  12.021  18.229   8.643 -0.0560  0.1015  0.1989
  107loPI   C4A 1706  12.076  18.168   8.237  0.0478 -0.0687 -0.1794
  107loPI   C5A 1707  12.008  18.195   7.822  0.3066  0.2689  0.3692
  107loPI   C6A 1708  11.905  17.849   7.555 -0.0297  0.2266 -0.0455
  107loPI   C1B 1709  11.564  17.925   9.367 -0.0671 -0.0824 -0.0001
  107loPI   C2B 1710  11.544  17.995   8.951  0.1750 -0.0094  0.3739
  107loPI   C3B 1711  11.525  17.924   8.462 -0.0831  0.2336  0.1868
  107loPI   C4B 1712  11.682  17.913   8.040  0.0488  0.1676  0.0925
  108loPI    C1 1713   3.329   2.862  10.789  0.0087 -0.1201 -0.0510
  108loPI    C2 1714   3.607   2.581  10.728  0.1643  0.0941 -0.3607
  108loPI    C3 1715   3.662   2.859  11.010  0.0589 -0.1185 -0.1261
  108loPI   PO4 1716   3.278   2.906  10.521 -0.1991  0.0751 -0.1142
  108loPI   GL1 1717   3.088   2.775  10.107 -0.1922 -0.0498 -0.0162
  108loPI   GL2 1718   2.742   2.599  10.093  0.4189 -0.1812 -0.2643
  108loPI   C1A 1719   3.195   2.768   9.633  0.2226  0.1416 -0.1352
  108loPI   C2A 1720   3.238   2.808   9.195  0.0873  0.2181  0.1909
  108loPI   C3A 1721   3.186   2.764   8.659 -0.2270  0.0749  0.3834
  108loPI   C4A 1722   3.151   2.643   8.193  0.0327 -0.0954 -0.1417
  108loPI   C5A 1723   3.191   2.497   7.806 -0.3691  0.2460 -0.1195
  108loPI   C6A 1724   2.809   2.408   7.478  0.3078  0.0413 -0.3650
  108loPI   C1B 1725   2.791   2.515   9.701  0.0004 -0.0484 -0.3567
  108loPI   C2B 1726   2.743   2.601   9.263 -0.0692  0.5119  0.0666
  108loPI   C3B 1727   2.784   2.438   8.899 -0.2222  0.1213 -0.0321
  108loPI   C4B 1728   2.776   2.405   8.483 -0.1909  0.5020  0.2475
  109loPI    C1 1729  10.116  15.997  10.842 -0.0153  0.0146 -0.1373
  109loPI    C2 1730  10.396  15.921  11.117  0.0206  0.0377 -0.1673
  109loPI    C3 1731  10.103  16.182  11.197  0.0092  0.0157 -0.1369
  109loPI   PO4 1732  10.067  15.735  10.620 -0.1900  0.1330  0.1271
  109loPI   GL1 1733  10.235  15.859  10.206 -0.2464 -0.3691  0.1499
  109loPI   GL2 1734  10.350  16.182  10.036  0.3115 -0.1211  0.2955
  109loPI   C1A 1735  10.042  15.675   9.838  0.2434  0.2411 -0.0364
  109loPI   C2A 1736  10.214  15.597   9.408 -0.0168  0.1355 -0.0012
  109loPI   C3A 1737  10.310  15.554   8.917  0.0705  0.0244  0.1131
  109loPI   C4A 1738  10.210  15.580   8.470  0.0831  0.1326  0.3963
  109loPI   C5A 1739  10.284  15.663   8.032  0.0603  0.1961 -0.0506
  109loPI   C6A 1740  10.183  15.700   7.628  0.2388 -0.2925  0.0685
  109loPI   C1B 1741  10.249  16.036   9.549 -0.1644  0.1831  0.2231
  109loPI   C2B 1742  10.225  16.127   9.109  0.1740 -0.2735  0.1947
  109loPI   C3B 1743  10.286  16.050   8.706 -0.0823 -0.1871  0.0812
  109loPI   C4B 1744  10.291  16.051   8.308 -0.0251 -0.2462 -0.0763
  110loPI    C1 1745   3.831  16.497  10.959  0.1096 -0.1775  0.0328
  110loPI    C2 1746   3.786  16.186  11.207  0.0426 -0.1053  0.1118
  110loPI    C3 1747   4.152  16.323  11.122  0.0715 -0.1974  0.0869
  110loPI   PO4 1748   3.705  16.378  10.707  0.2052  0.0550 -0.1663
  110loPI   GL1 1749   3.839  16.319  10.286 -0.1049 -0.0942 -0.4318
  110loPI   GL2 1750   4.089  16.431  10.126 -0.0272  0.1683 -0.3214
  110loPI   C1A 1751   3.785  16.073   9.893 -0.4172  0.1243 -0.3001
  110loPI   C2A 1752   3.852  16.110   9.488 -0.1679 -0.1140 -0.1573
  110loPI   C3A 1753   3.831  16.081   9.102  0.0025  0.0017  0.1230
  110loPI   C4A 1754   3.850  16.144   8.686  0.3249 -0.1082 -0.0196
  110loPI   C5A 1755   4.060  16.417   8.335  0.1495 -0.2028  0.0938
  110loPI   C6A 1756   4.263  16.826   8.100 -0.0116 -0.0975 -0.3107
  110loPI   C1B 1757   4.165  16.432   9.639 -0.1630 -0.0179 -0.2489
  110loPI   C2B 1758   4.313  16.371   9.163 -0.1109 -0.1360 -0.1862
  110loPI   C3B 1759   4.315  16.318   8.715 -0.2200 -0.1015  0.0913
  110loPI   C4B 1760   4.291  15.943   8.415 -0.1829  0.0167  0.2565
  111loPI    C1 1761  16.267   8.896  10.861  0.0079 -0.0589 -0.0955
  111loPI    C2 1762  16.389   9.238  11.029 -0.1600 -0.0722  0.0571
  111loPI    C3 1763  16.028   9.091  11.116 -0.1379 -0.2248 -0.1035
  111loPI   PO4 1764  16.556   8.858  10.643 -0.0807  0.4324 -0.0231
  111loPI   GL1 1765  16.574   8.742  10.183  0.0943 -0.0523  0.1001
  111loPI   GL2 1766  16.432   8.389  10.034  0.0455  0.2348 -0.0347
  111loPI   C1A 1767  16.603   8.845   9.814 -0.0903  0.1462 -0.2164
  111loPI   C2A 1768  16.569   8.881   9.396  0.1477 -0.2217 -0.2423
  111loPI   C3A 1769  16.550   8.816   8.954  0.1030 -0.0141  0.0310
  111loPI   C4A 1770  16.635   8.721   8.494 -0.2647 -0.0157 -0.0748
  111loPI   C5A 1771  16.503   8.920   8.182  0.0283  0.0956  0.0325
  111loPI   C6A 1772  16.658   9.360   7.984  0.5073 -0.0754 -0.0926
  111loPI   C1B 1773  16.588   8.357   9.672  0.0104 -0.0297 -0.1438
  111loPI   C2B 1774  16.511   8.303   9.315 -0.5994 -0.4904  0.0072
  111loPI   C3B 1775  16.528   8.333   8.880 -0.2227  0.1471  0.2682
  111loPI   C4B 1776  16.628   8.216   8.386 -0.0625  0.2824  0.2782
  112loPI    C1 1777  17.050  18.177  11.157  0.1485 -0.1294  0.1670
  112loPI    C2 1778  16.766  17.921  11.271 -0.0037 -0.0044  0.0727
  112loPI    C3 1779  16.978  18.120  11.546 -0.3583  0.2846  0.1435
  112loPI   PO4 1780  17.017  18.099  10.906 -0.1313 -0.0200  0.1808
  112loPI   GL1 1781  17.164  18.222  10.482 -0.1069  0.1467 -0.0884
  112loPI   GL2 1782  16.948  17.973  10.359  0.2624 -0.2154 -0.0479
  112loPI   C1A 1783  17.393  18.255  10.082  0.0937 -0.2770 -0.1132
  112loPI   C2A 1784  17.425  18.299   9.714  0.0256 -0.0908  0.0238
  112loPI   C3A 1785  17.570  18.341   9.313 -0.0022 -0.2859  0.2006
  112loPI   C4A 1786  17.574  18.189   8.901  0.0471  0.0695 -0.0745
  112loPI   C5A 1787  17.677  18.208   8.452 -0.2240 -0.0775 -0.0975
  112loPI   C6A 1788  17.967  18.137   8.144  0.0561 -0.4249  0.2712
  112loPI   C1B 1789  17.035  17.954   9.956 -0.1675 -0.0917  0.1554
  112loPI   C2B 1790  17.017  18.091   9.522  0.0191 -0.0497 -0.1030
  112loPI   C3B 1791  17.154  18.060   9.118  0.2369  0.1635  0.2382
  112loPI   C4B 1792  17.056  17.959   8.783  0.2774 -0.0630 -0.0093
  113loPI    C1 1793   9.272   8.590  10.508 -0.0815 -0.0617 -0.0065
  113loPI    C2 1794   9.152   8.209  10.501 -0.0211 -0.0792 -0.1015
  113loPI    C3 1795   9.509   8.303  10.653 -0.1157 -0.0376  0.0977
  113loPI   PO4 1796   9.271   8.658  10.260  0.4632  0.2747  0.3269
  113loPI   GL1 1797   9.183   8.743   9.854 -0.1029  0.0796 -0.0338
  113loPI   GL2 1798   9.499   8.588   9.818  0.3226  0.1462  0.0073
  113loPI   C1A 1799   9.272   8.770   9.391 -0.0960  0.4362 -0.3638
  113loPI   C2A 1800   9.346   8.911   8.987 -0.1727  0.2164  0.3148
  113loPI   C3A 1801   9.329   8.791   8.561 -0.1049 -0.0510 -0.2062
  113loPI   C4A 1802   9.362   8.469   8.213 -0.1187  0.0836 -0.2507
  113loPI   C5A 1803   9.366   8.281   7.851 -0.0014  0.1856 -0.0387
  113loPI   C6A 1804   9.038   8.051   7.621 -0.0062 -0.0574  0.0748
  113loPI   C1B 1805   9.701   8.465   9.443 -0.0355 -0.0853  0.1813
  113loPI   C2B 1806   9.720   8.560   9.026  0.1844  0.1202  0.1623
  113loPI   C3B 1807   9.702   8.474   8.609 -0.2402  0.0818  0.1421
  113loPI   C4B 1808   9.859   8.309   8.185 -0.1515 -0.4257  0.1459
  114loPI    C1 1809   9.378  10.936  10.909  0.2591 -0.0126  0.0619
  114loPI    C2 1810   9.121  11.097  11.170 -0.1793  0.1236 -0.4369
  114loPI    C3 1811   9.515  11.133  11.229 -0.2606 -0.0699  0.3303
  114loPI   PO4 1812   9.280  11.067  10.679  0.0913  0.3267  0.1362
  114loPI   GL1 1813   9.137  11.026  10.296  0.3730 -0.1891  0.0799
  114loPI   GL2 1814   9.432  10.896  10.189  0.3006  0.3657  0.0860
  114loPI   C1A 1815   8.929  11.076   9.809 -0.0471  0.0936  0.1418
  114loPI   C2A 1816   8.936  11.122   9.371 -0.1948 -0.1735 -0.0233
  114loPI   C3A 1817   8.931  11.166   8.912  0.2910  0.3094  0.2084
  114loPI   C4A 1818   8.925  11.408   8.554  0.1924  0.0425 -0.0628
  114loPI   C5A 1819   8.704  11.299   8.154 -0.0639 -0.0129  0.0624
  114loPI   C6A 1820   8.507  11.414   7.685 -0.0992  0.1568 -0.1297
  114loPI   C1B 1821   9.395  10.868   9.775  0.0112 -0.0272 -0.4519
  114loPI   C2B 1822   9.420  10.887   9.336  0.0202  0.0789  0.0517
  114loPI   C3B 1823   9.396  10.898   8.923  0.1039 -0.0011 -0.1129
  114loPI   C4B 1824   9.282  10.996   8.485  0.2036  0.1541  0.0440
  115loPI    C1 1825   1.474  13.162  10.862 -0.0363 -0.0327 -0.1341
  115loPI    C2 1826   1.212  13.294  11.134  0.1295 -0.2273  0.1250
  115loPI    C3 1827   1.604  13.355  11.188  0.1368  0.1968 -0.3352
  115loPI   PO4 1828   1.433  13.169  10.669  0.0779 -0.1271  0.0884
  115loPI   GL1 1829   1.627  13.110  10.301 -0.1836 -0.3044 -0.1235
  115loPI   GL2 1830   1.363  13.257  10.146  0.1199 -0.0029  0.2066
  115loPI   C1A 1831   1.619  12.838   9.930 -0.0954 -0.0254  0.2836
  115loPI   C2A 1832   1.486  12.745   9.565  0.0645  0.1550  0.1602
  115loPI   C3A 1833   1.420  12.727   9.177 -0.1304  0.1803 -0.1047
  115loPI   C4A 1834   1.295  12.783   8.716 -0.2667  0.0763 -0.1385
  115loPI   C5A 1835   1.505  12.791   8.317 -0.3201  0.0572  0.0935
  115loPI   C6A 1836   1.420  12.764   7.900 -0.0278  0.0659  0.2056
  115loPI   C1B 1837   1.451  13.276   9.718 -0.2109 -0.0966  0.2820
  115loPI   C2B 1838   1.443  13.221   9.346  0.0897 -0.2709 -0.2354
  115loPI   C3B 1839   1.380  13.284   8.831 -0.2074 -0.0203 -0.1096
  115loPI   C4B 1840   1.444  13.242   8.415  0.1307  0.0374 -0.3972
  116loPI    C1 1841  11.803  13.700  11.025 -0.0123 -0.1438 -0.1182
  116loPI    C2 1842  12.001  14.041  11.091 -0.0712 -0.0997 -0.1680
  116loPI    C3 1843  11.821  13.852  11.394 -0.1244 -0.0327 -0.1574
  116loPI   PO4 1844  12.054  13.518  10.809 -0.1669  0.0181  0.0861
  116loPI   GL1 1845  11.994  13.680  10.346  0.0046  0.1699 -0.1488
  116loPI   GL2 1846  11.946  13.287  10.272 -0.2972 -0.1540  0.1077
  116loPI   C1A 1847  12.202  13.559   9.948  0.0593 -0.0607 -0.1394
  116loPI   C2A 1848  12.101  13.459   9.538  0.1297 -0.0522 -0.2353
  116loPI   C3A 1849  12.164  13.432   9.079 -0.0785 -0.1192  0.2017
  116loPI   C4A 1850  12.070  13.517   8.692  0.0899 -0.0977  0.1590
  116loPI   C5A 1851  12.071  13.313   8.209  0.0669 -0.3222 -0.2167
  116loPI   C6A 1852  12.024  12.927   8.166 -0.1154 -0.0373 -0.4528
  116loPI   C1B 1853  12.098  13.075   9.902  0.0250 -0.1254  0.4503
  116loPI   C2B 1854  12.156  12.863   9.576  0.0672  0.3592  0.0760
  116loPI   C3B 1855  12.161  12.958   9.156 -0.0262  0.0705 -0.3773
  116loPI   C4B 1856  12.081  12.974   8.700 -0.0333 -0.1853  0.1121
  117loPI    C1 1857   2.365   3.342  10.882 -0.0355  0.0471  0.1022
  117loPI    C2 1858   2.618   3.235  11.172 -0.1307  0.0902  0.2017
  117loPI    C3 1859   2.356   3.530  11.234 -0.0629  0.1888  0.0264
  117loPI   PO4 1860   2.476   3.349  10.635  0.1881 -0.1313 -0.1980
  117loPI   GL1 1861   2.593   3.407  10.233 -0.0948 -0.1899 -0.2081
  117loPI   GL2 1862   2.749   3.134  10.179 -0.0275 -0.1236 -0.3175
  117loPI   C1A 1863   2.324   3.342   9.936  0.1508 -0.1576  0.1129
  117loPI   C2A 1864   2.299   3.352   9.502  0.3397 -0.0901 -0.0413
  117loPI   C3A 1865   2.374   3.348   9.074 -0.0601  0.1504 -0.0996
  117loPI   C4A 1866   2.304   3.230   8.695 -0.0383  0.0087 -0.2556
  117loPI   C5A 1867   2.226   3.329   8.225 -0.2303  0.0726  0.1057
  117loPI   C6A 1868   2.139   3.511   7.899  0.1790  0.1632  0.4809
  117loPI   C1B 1869   2.716   3.054   9.721  0.0580  0.0209  0.2607
  117loPI   C2B 1870   2.693   3.111   9.244 -0.0724  0.1266 -0.3801
  117loPI   C3B 1871   2.791   3.087   8.823 -0.3116  0.2264  0.2365
  117loPI   C4B 1872   2.726   2.966   8.403  0.1599 -0.3708 -0.1938
  118loPI    C1 1873   3.297  16.080  11.041 -0.0276 -0.1395 -0.0563
  118loPI    C2 1874   3.232  15.701  10.930  0.0586 -0.1908  0.0661
  118loPI    C3 1875   3.451  15.779  11.256 -0.0115 -0.0369  0.0771
  118loPI   PO4 1876   3.147  16.205  10.824 -0.2117  0.0935  0.1133
  118loPI   GL1 1877   3.241  16.234  10.365 -0.2830 -0.1343  0.1396
  118loPI   GL2 1878   2.993  16.471  10.253  0.3017 -0.1281  0.0603
  118loPI   C1A 1879   3.417  16.420  10.019 -0.4479 -0.0398  0.1194
  118loPI   C2A 1880   3.413  16.354   9.573 -0.1187  0.2048  0.3772
  118loPI   C3A 1881   3.349  16.378   9.114  0.2494  0.0919  0.0839
  118loPI   C4A 1882   3.277  16.439   8.728  0.0888  0.0566 -0.0802
  118loPI   C5A 1883   3.311  16.377   8.408  0.1467  0.2007  0.0085
  118loPI   C6A 1884   3.641  16.140   8.199 -0.1235 -0.1713  0.0095
  118loPI   C1B 1885   2.896  16.651   9.846 -0.0225  0.2546 -0.0003
  118loPI   C2B 1886   2.909  16.593   9.383 -0.0380  0.3213  0.0121
  118loPI   C3B 1887   2.813  16.611   8.968  0.1965  0.0376 -0.0351
  118loPI   C4B 1888   2.849  16.622   8.563  0.1645 -0.0985  0.4084
  119loPI    C1 1889   5.638  13.108  10.687  0.1546  0.1806  0.1462
  119loPI    C2 1890   5.887  12.957  10.962  0.0508  0.0085  0.1472
  119loPI    C3 1891   5.492  12.947  11.023  0.0192 -0.1645 -0.0727
  119loPI   PO4 1892   5.731  13.045  10.447 -0.0408 -0.0474 -0.4108
  119loPI   GL1 1893   5.614  12.789  10.120  0.0068  0.2815 -0.0445
  119loPI   GL2 1894   5.377  12.827  10.134 -0.0579  0.1540  0.3004
  119loPI   C1A 1895   5.750  12.959   9.803  0.4291  0.1067  0.0563
  119loPI   C2A 1896   5.705  12.880   9.320 -0.1042  0.0531  0.4597
  119loPI   C3A 1897   5.629  12.930   8.954  0.1416  0.1634  0.2754
  119loPI   C4A 1898   5.556  12.823   8.512 -0.2178 -0.1365 -0.0632
  119loPI   C5A 1899   5.698  12.881   8.161  0.0467 -0.1063  0.0433
  119loPI   C6A 1900   5.933  13.096   8.028 -0.1400 -0.0367  0.2865
  119loPI   C1B 1901   5.344  12.735   9.628 -0.1199 -0.0582  0.0272
  119loPI   C2B 1902   5.262  12.693   9.237 -0.1127 -0.0002  0.0364
  119loPI   C3B 1903   5.141  12.669   8.828  0.3914 -0.0241 -0.1600
  119loPI   C4B 1904   5.166  12.559   8.385 -0.0713  0.2852  0.1639
  120loPI    C1 1905  13.523   2.406  10.514  0.0120  0.1460  0.1201
  120loPI    C2 1906  13.570   2.480  10.904  0.2731  0.2014  0.0799
  120loPI    C3 1907  13.231   2.587  10.720  0.0545 -0.0291  0.3383
  120loPI   PO4 1908  13.766   2.506  10.377 -0.0505  0.0455 -0.0827
  120loPI   GL1 1909  14.079   2.384  10.153 -0.4539  0.1846  0.2639
  120loPI   GL2 1910  14.240   2.682  10.087 -0.1962  0.0292 -0.1149
  120loPI   C1A 1911  14.322   2.376   9.771  0.0050 -0.1530 -0.0109
  120loPI   C2A 1912  14.254   2.373   9.377 -0.1627  0.1142  0.2035
  120loPI   C3A 1913  14.261   2.211   8.977 -0.0646 -0.0540 -0.0204
  120loPI   C4A 1914  14.369   2.234   8.511  0.0273 -0.1170 -0.1044
  120loPI   C5A 1915  14.515   2.366   8.170 -0.0383  0.1849 -0.1342
  120loPI   C6A 1916  14.914   2.313   7.779  0.1881 -0.0598 -0.4245
  120loPI   C1B 1917  14.244   2.874   9.633  0.1424 -0.1324 -0.1893
  120loPI   C2B 1918  14.264   2.831   9.151 -0.0699  0.4832 -0.1606
  120loPI   C3B 1919  14.361   2.733   8.744  0.1898  0.0628  0.1633
  120loPI   C4B 1920  14.411   2.837   8.290 -0.0088  0.4865 -0.0134
  121loPI    C1 1921  12.692   6.257  10.467 -0.0724  0.1946 -0.1506
  121loPI    C2 1922  12.615   6.520  10.759 -0.0425  0.0932 -0.0507
  121loPI    C3 1923  12.418   6.171  10.747  0.2223 -0.0636  0.0664
  121loPI   PO4 1924  12.803   6.386  10.250 -0.0754  0.0275  0.0276
  121loPI   GL1 1925  12.671   6.452   9.874  0.0143 -0.1624  0.0148
  121loPI   GL2 1926  12.454   6.166   9.874 -0.4911  0.1863  0.0754
  121loPI   C1A 1927  12.803   6.547   9.450  0.1623 -0.0815  0.0944
  121loPI   C2A 1928  12.933   6.613   8.964  0.2039  0.1252 -0.1693
  121loPI   C3A 1929  12.832   6.736   8.623 -0.2235  0.3885  0.2321
  121loPI   C4A 1930  12.969   6.708   8.171 -0.2883 -0.0377  0.1641
  121loPI   C5A 1931  12.967   6.575   7.689 -0.5053 -0.1069  0.0440
  121loPI   C6A 1932  13.002   6.375   7.208  0.0696 -0.0788 -0.0480
  121loPI   C1B 1933  12.554   6.092   9.459 -0.0264 -0.0986  0.1279
  121loPI   C2B 1934  12.604   6.140   8.982 -0.0217 -0.1203 -0.3995
  121loPI   C3B 1935  12.367   5.973   8.598 -0.2283  0.0295 -0.2302
  121loPI   C4B 1936  12.597   5.967   8.124 -0.0648  0.0008 -0.1674
  122loPI    C1 1937   6.381   9.291  10.664  0.0664  0.1758  0.1371
  122loPI    C2 1938   6.663   9.150  10.417  0.1404  0.1140  0.2558
  122loPI    C3 1939   6.596   8.970  10.768 -0.2407 -0.0438  0.1077
  122loPI   PO4 1940   6.231   9.354  10.538  0.1108  0.0953 -0.5078
  122loPI   GL1 1941   6.112   9.648  10.202 -0.1480 -0.0596  0.1981
  122loPI   GL2 1942   6.380   9.627  10.167 -0.0693  0.0595  0.1377
  122loPI   C1A 1943   6.071   9.501   9.719  0.1696 -0.1546  0.3566
  122loPI   C2A 1944   6.249   9.543   9.368  0.0529  0.1428 -0.1535
  122loPI   C3A 1945   6.023   9.546   8.965  0.1213 -0.0823  0.0935
  122loPI   C4A 1946   5.896   9.501   8.484 -0.0138  0.0048  0.0588
  122loPI   C5A 1947   5.870   9.595   8.022  0.1767  0.1354 -0.0482
  122loPI   C6A 1948   5.863   9.518   7.587  0.0579 -0.0526 -0.1126
  122loPI   C1B 1949   6.606   9.703   9.754  0.0042 -0.1409 -0.1618
  122loPI   C2B 1950   6.673   9.821   9.316 -0.1173 -0.2037  0.1703
  122loPI   C3B 1951   6.525   9.722   8.870  0.1672  0.0796 -0.1334
  122loPI   C4B 1952   6.437   9.759   8.457  0.0700  0.0494  0.3565
  123loPI    C1 1953  13.282   9.418  10.823 -0.0319  0.0820  0.0824
  123loPI    C2 1954  13.656   9.553  10.780 -0.0826  0.1921 -0.0159
  123loPI    C3 1955  13.590   9.198  10.951  0.0895  0.0125 -0.3157
  123loPI   PO4 1956  13.151   9.382  10.597 -0.4380 -0.0201  0.1741
  123loPI   GL1 1957  13.496   9.511  10.315 -0.0051 -0.3472 -0.2524
  123loPI   GL2 1958  13.738   9.723  10.178 -0.0924 -0.2776  0.0502
  123loPI   C1A 1959  13.422   9.596   9.773  0.0412 -0.2634 -0.2441
  123loPI   C2A 1960  13.446   9.499   9.365  0.0830 -0.0646 -0.3868
  123loPI   C3A 1961  13.390   9.613   9.013 -0.0527 -0.0143 -0.2781
  123loPI   C4A 1962  13.331   9.627   8.607  0.1665  0.0346  0.2044
  123loPI   C5A 1963  13.466   9.555   8.100  0.2900  0.0800  0.1953
  123loPI   C6A 1964  13.735   9.741   7.913  0.1733  0.3787  0.1507
  123loPI   C1B 1965  13.831   9.862   9.716  0.1878  0.0786 -0.2769
  123loPI   C2B 1966  13.833   9.845   9.278 -0.0718 -0.1453 -0.0219
  123loPI   C3B 1967  13.832   9.850   8.835  0.1951  0.2333 -0.0694
  123loPI   C4B 1968  13.775   9.867   8.386  0.3069 -0.0386 -0.1299
  124loPI    C1 1969  16.564  12.751  11.175  0.2966 -0.0675 -0.0011
  124loPI    C2 1970  16.715  13.056  11.385  0.0362 -0.1203  0.2689
  124loPI    C3 1971  16.903  12.703  11.382  0.2938  0.0150  0.0234
  124loPI   PO4 1972  16.500  13.010  10.893 -0.1264  0.1609  0.3285
  124loPI   GL1 1973  16.507  13.204  10.477 -0.2759 -0.0877 -0.0625
  124loPI   GL2 1974  16.622  13.586  10.560  0.0895  0.0321  0.0463
  124loPI   C1A 1975  16.633  12.957  10.091  0.1516 -0.3881 -0.1262
  124loPI   C2A 1976  16.625  12.904   9.710 -0.1723 -0.1715 -0.0668
  124loPI   C3A 1977  16.665  12.954   9.313 -0.0483  0.0971  0.3486
  124loPI   C4A 1978  16.579  13.009   8.931 -0.1670  0.0582 -0.0159
  124loPI   C5A 1979  16.411  13.044   8.563 -0.0658 -0.0459  0.1835
  124loPI   C6A 1980  16.310  13.119   8.185 -0.1526 -0.4278  0.0188
  124loPI   C1B 1981  16.586  13.583  10.169 -0.2947 -0.1895 -0.0918
  124loPI   C2B 1982  16.594  13.451   9.728  0.2212  0.3145 -0.0649
  124loPI   C3B 1983  16.628  13.446   9.295  0.0514 -0.3161 -0.0523
  124loPI   C4B 1984  16.613  13.516   8.841  0.2515  0.2593  0.1445
  125loPI    C1 1985   3.105   1.783  10.862 -0.1794  0.0801 -0.1088
  125loPI    C2 1986   2.797   1.943  11.061 -0.0464  0.1712  0.0262
  125loPI    C3 1987   3.166   1.964  11.213 -0.0287 -0.2937  0.0626
  125loPI   PO4 1988   3.078   1.941  10.551 -0.2530  0.2646  0.1500
  125loPI   GL1 1989   2.916   1.998  10.094 -0.1658  0.2910 -0.2011
  125loPI   GL2 1990   3.121   2.249   9.934  0.6774 -0.1012 -0.0791
  125loPI   C1A 1991   2.739   2.020   9.690  0.0575  0.2031  0.0333
  125loPI   C2A 1992   2.808   2.042   9.249  0.1508  0.3957  0.1125
  125loPI   C3A 1993   2.881   1.976   8.750 -0.1311  0.0409 -0.0719
  125loPI   C4A 1994   2.813   1.935   8.312 -0.0428 -0.0254 -0.0904
  125loPI   C5A 1995   2.974   1.713   8.053 -0.0529 -0.1355 -0.3786
  125loPI   C6A 1996   3.429   1.701   7.923  0.2176 -0.1200  0.0592
  125loPI   C1B 1997   3.178   2.292   9.473  0.2598 -0.3827  0.0819
  125loPI   C2B 1998   3.236   2.214   9.000 -0.1532 -0.3102 -0.0758
  125loPI   C3B 1999   3.253   2.242   8.508 -0.1025 -0.1654 -0.1163
  125loPI   C4B 2000   3.293   2.115   8.124 -0.2396  0.1429  0.1583
  126loPI    C1 2001  10.311   5.801  10.060  0.1019  0.2225 -0.0413
  126loPI    C2 2002  10.275   5.733  10.453  0.1527 -0.0086 -0.0753
  126loPI    C3 2003  10.326   6.106  10.318 -0.4287  0.1430  0.0963
  126loPI   PO4 2004  10.474   5.538   9.950  0.2168  0.3844 -0.0444
  126loPI   GL1 2005  10.423   5.239   9.473 -0.1640  0.3023 -0.2915
  126loPI   GL2 2006  10.184   5.452   9.335  0.1168  0.0605 -0.0589
  126loPI   C1A 2007  10.719   5.123   9.061  0.1487 -0.0543 -0.2735
  126loPI   C2A 2008  11.015   5.155   8.586  0.3845  0.0251 -0.0295
  126loPI   C3A 2009  11.196   4.881   8.394  0.1302 -0.0753 -0.1055
  126loPI   C4A 2010  11.295   4.692   8.014  0.0729  0.0611  0.0455
  126loPI   C5A 2011  11.541   4.433   7.865 -0.2937 -0.2380 -0.0528
  126loPI   C6A 2012  11.826   4.081   7.668 -0.1772 -0.2672  0.0542
  126loPI   C1B 2013  10.321   5.416   8.929  0.1091 -0.0392 -0.2610
  126loPI   C2B 2014  10.426   5.770   8.676  0.3673 -0.0882 -0.0227
  126loPI   C3B 2015  10.648   5.489   8.295  0.1049 -0.0029 -0.0961
  126loPI   C4B 2016  10.653   5.062   8.292  0.1848 -0.0622  0.2941
  127loPI    C1 2017   7.688   2.422  10.315  0.1734  0.0701  0.1605
  127loPI    C2 2018   7.489   2.681  10.545 -0.1863 -0.1964  0.1592
  127loPI    C3 2019   7.703   2.388  10.713 -0.0448 -0.0955  0.1568
  127loPI   PO4 2020   7.538   2.389  10.104  0.0726  0.1763 -0.2795
  127loPI   GL1 2021   7.523   2.609   9.744  0.0976  0.2785  0.0618
  127loPI   GL2 2022   7.706   2.702   9.474 -0.0442 -0.0222 -0.0390
  127loPI   C1A 2023   7.196   2.506   9.425  0.1047  0.2577 -0.2632
  127loPI   C2A 2024   6.987   2.337   9.090  0.1743 -0.2465 -0.1853
  127loPI   C3A 2025   6.644   2.498   8.836 -0.3445 -0.0787  0.3095
  127loPI   C4A 2026   6.472   2.527   8.444  0.1243 -0.1358  0.0608
  127loPI   C5A 2027   6.378   2.643   8.080 -0.0135  0.1585  0.0911
  127loPI   C6A 2028   6.505   2.788   7.813  0.0198  0.2429 -0.1953
  127loPI   C1B 2029   7.567   2.578   9.040  0.0721  0.1285 -0.0850
  127loPI   C2B 2030   7.651   2.582   8.583  0.1339  0.0915  0.0074
  127loPI   C3B 2031   7.744   2.495   8.203 -0.0854  0.1303  0.0339
  127loPI   C4B 2032   7.976   2.182   7.967  0.1058 -0.1371  0.0581
  128loPI    C1 2033   9.047   5.235  10.130  0.2543  0.0101  0.0468
  128loPI    C2 2034   8.777   5.153  10.414 -0.0900 -0.1980 -0.3290
  128loPI    C3 2035   9.158   5.041  10.462 -0.1098 -0.0949  0.1124
  128loPI   PO4 2036   9.021   5.468   9.969  0.4673 -0.4169 -0.0293
  128loPI   GL1 2037   9.056   5.679   9.533  0.0150 -0.0852 -0.0164
  128loPI   GL2 2038   8.715   5.754   9.637 -0.1893 -0.0322  0.0886
  128loPI   C1A 2039   8.939   5.734   9.143  0.3356  0.2032 -0.2551
  128loPI   C2A 2040   8.750   5.829   8.759 -0.0608  0.0214 -0.1884
  128loPI   C3A 2041   8.859   5.889   8.282 -0.2239  0.0779 -0.1386
  128loPI   C4A 2042   8.993   6.088   7.905  0.0866 -0.5780  0.1137
  128loPI   C5A 2043   9.292   5.880   7.533  0.0793  0.4504  0.1589
  128loPI   C6A 2044   9.670   5.805   7.266  0.0871 -0.2950 -0.0066
  128loPI   C1B 2045   8.425   5.815   9.181 -0.1009 -0.2009 -0.1209
  128loPI   C2B 2046   8.332   6.042   8.751 -0.0624  0.1781  0.0306
  128loPI   C3B 2047   8.281   5.948   8.377  0.1820 -0.0743  0.3388
  128loPI   C4B 2048   8.086   5.968   7.991  0.0735  0.0912  0.1555
  129loPI    C1 2049  10.765  13.488  10.504 -0.0200  0.0742 -0.0649
  129loPI    C2 2050  10.762  13.805  10.748  0.0117 -0.2539  0.3742
  129loPI    C3 2051  10.488  13.517  10.791 -0.0177 -0.2902 -0.0219
  129loPI   PO4 2052  10.813  13.581  10.293  0.0993  0.0874  0.0002
  129loPI   GL1 2053  11.124  13.732  10.015 -0.1948  0.2648  0.1402
  129loPI   GL2 2054  11.135  14.027   9.877  0.1150  0.0500 -0.1437
  129loPI   C1A 2055  11.184  13.494   9.626  0.1748 -0.1598  0.0805
  129loPI   C2A 2056  11.029  13.555   9.282 -0.0170 -0.1334 -0.2896
  129loPI   C3A 2057  11.121  13.561   8.798 -0.0972 -0.4072 -0.1480
  129loPI   C4A 2058  11.199  13.574   8.438 -0.3251  0.0592  0.0362
  129loPI   C5A 2059  11.241  13.492   7.993  0.1386 -0.0851 -0.4163
  129loPI   C6A 2060  11.308  13.626   7.594  0.2170 -0.1454  0.0357
  129loPI   C1B 2061  11.126  14.002   9.420 -0.0714 -0.3523  0.2027
  129loPI   C2B 2062  11.153  14.068   8.990 -0.1915 -0.0386  0.4914
  129loPI   C3B 2063  11.189  14.037   8.594  0.1609  0.1151  0.1117
  129loPI   C4B 2064  11.151  14.018   8.135  0.1979 -0.1628 -0.1756
  130loPI    C1 2065  17.622  17.436  11.512  0.0456 -0.1047 -0.0355
  130loPI    C2 2066  17.575  17.320  11.891 -0.1196  0.0312 -0.0129
  130loPI    C3 2067  17.917  17.491  11.775 -0.1656  0.2307  0.1394
  130loPI   PO4 2068  17.469  17.235  11.332 -0.0658 -0.1079 -0.0963
  130loPI   GL1 2069  17.586  17.161  10.910  0.1968  0.2454 -0.1260
  130loPI   GL2 2070  17.598  16.989  10.549  0.0332 -0.0739 -0.0066
  130loPI   C1A 2071  17.369  17.424  10.654  0.1833  0.1145 -0.1827
  130loPI   C2A 2072  17.051  17.487  10.367  0.3748 -0.0511 -0.0727
  130loPI   C3A 2073  17.075  17.393   9.986  0.0399 -0.3671  0.1382
  130loPI   C4A 2074  17.099  17.474   9.519  0.0667  0.1135  0.1733
  130loPI   C5A 2075  17.076  17.514   9.075  0.2823  0.0028  0.0597
  130loPI   C6A 2076  17.092  17.417   8.636 -0.0051  0.1680 -0.1959
  130loPI   C1B 2077  17.557  17.238  10.160  0.2842  0.1767 -0.4285
  130loPI   C2B 2078  17.599  17.301   9.736 -0.1760  0.1126  0.0812
  130loPI   C3B 2079  17.537  17.263   9.284 -0.1235 -0.0965 -0.0288
  130loPI   C4B 2080  17.524  17.167   8.794 -0.1050  0.0996  0.0270
  131loPI    C1 2081   7.560   8.916  10.382 -0.2291  0.0205  0.4294
  131loPI    C2 2082   7.367   8.572  10.315 -0.1727  0.0591  0.0454
  131loPI    C3 2083   7.605   8.609  10.634 -0.0527 -0.3140  0.0044
  131loPI   PO4 2084   7.625   8.976  10.076 -0.1102 -0.0171  0.1595
  131loPI   GL1 2085   7.621   9.246   9.876 -0.0722  0.3712  0.3361
  131loPI   GL2 2086   7.261   9.320   9.884  0.2670 -0.1917 -0.0308
  131loPI   C1A 2087   7.546   9.214   9.365 -0.0479  0.0858 -0.1274
  131loPI   C2A 2088   7.511   9.249   8.937  0.2502 -0.6109  0.0457
  131loPI   C3A 2089   7.399   9.358   8.539 -0.2009  0.1498 -0.1018
  131loPI   C4A 2090   7.525   9.272   8.061  0.2118  0.1442  0.3894
  131loPI   C5A 2091   7.409   9.190   7.634  0.2363  0.0715  0.1082
  131loPI   C6A 2092   7.198   8.866   7.420 -0.3125  0.1304 -0.0697
  131loPI   C1B 2093   7.035   9.496   9.428  0.0273 -0.2155  0.2296
  131loPI   C2B 2094   7.042   9.519   8.930 -0.0016  0.2472 -0.1264
  131loPI   C3B 2095   6.961   9.636   8.525  0.2628 -0.0535 -0.5096
  131loPI   C4B 2096   6.759   9.553   8.020 -0.1197 -0.1975  0.1845
  132loPI    C1 2097  13.345  12.411  10.953 -0.0107  0.1563 -0.0899
  132loPI    C2 2098  13.103  12.727  10.991  0.1357  0.2229  0.3392
  132loPI    C3 2099  13.314  12.597  11.305  0.3894 -0.0526  0.0624
  132loPI   PO4 2100  13.419  12.406  10.646  0.1550  0.0245 -0.2117
  132loPI   GL1 2101  13.437  12.539  10.215  0.1614 -0.0110 -0.0764
  132loPI   GL2 2102  13.184  12.448  10.144  0.0707 -0.0791 -0.0351
  132loPI   C1A 2103  13.457  12.766   9.936  0.1341  0.3573  0.3044
  132loPI   C2A 2104  13.488  12.758   9.569  0.2975 -0.0561  0.0909
  132loPI   C3A 2105  13.413  12.710   9.092  0.0734 -0.1434  0.0938
  132loPI   C4A 2106  13.483  12.690   8.615 -0.0618  0.0440  0.0234
  132loPI   C5A 2107  13.547  12.452   8.219 -0.0218  0.0332  0.0128
  132loPI   C6A 2108  13.254  12.373   7.897 -0.0366 -0.0866  0.0224
  132loPI   C1B 2109  13.008  12.562   9.774  0.2396 -0.1901 -0.1181
  132loPI   C2B 2110  12.913  12.364   9.231 -0.0235  0.0828 -0.3216
  132loPI   C3B 2111  12.951  12.477   8.781 -0.0386 -0.0087 -0.1954
  132loPI   C4B 2112  13.088  12.521   8.370 -0.0875 -0.0062  0.1364
  133loPI    C1 2113   5.968   2.629  10.616  0.0687  0.0537  0.3323
  133loPI    C2 2114   5.956   3.025  10.563 -0.0526  0.0115  0.0213
  133loPI    C3 2115   5.728   2.853  10.843  0.0787  0.1708  0.2285
  133loPI   PO4 2116   6.045   2.546  10.358 -0.2566  0.1795 -0.0554
  133loPI   GL1 2117   5.856   2.482  10.005 -0.1627  0.0894 -0.0605
  133loPI   GL2 2118   5.713   2.240   9.972  0.2936 -0.3648 -0.1706
  133loPI   C1A 2119   5.753   2.606   9.618 -0.1266  0.2507 -0.3313
  133loPI   C2A 2120   5.575   2.526   9.268  0.1615  0.0732  0.0762
  133loPI   C3A 2121   5.547   2.567   8.913  0.0537  0.2049 -0.0258
  133loPI   C4A 2122   5.524   2.447   8.470 -0.2914 -0.2786  0.0681
  133loPI   C5A 2123   5.421   2.343   8.032  0.3085 -0.2235  0.3120
  133loPI   C6A 2124   5.738   2.126   7.744  0.0290  0.2829 -0.1967
  133loPI   C1B 2125   5.653   2.109   9.555 -0.0437  0.2627 -0.0816
  133loPI   C2B 2126   5.581   2.081   9.091 -0.1590 -0.0803  0.1801
  133loPI   C3B 2127   5.665   1.938   8.663 -0.4003 -0.1789 -0.1137
  133loPI   C4B 2128   5.646   1.884   8.215  0.1178 -0.2872 -0.2860
  134loPI    C1 2129  15.591   5.042  10.798 -0.2871 -0.2342  0.0074
  134loPI    C2 2130  15.722   4.977  11.170  0.2675 -0.0311 -0.1431
  134loPI    C3 2131  15.519   5.311  11.085 -0.0867 -0.1980  0.0248
  134loPI   PO4 2132  15.829   5.023  10.643  0.0354  0.0910 -0.0571
  134loPI   GL1 2133  15.878   4.762  10.220 -0.2892  0.2030  0.1980
  134loPI   GL2 2134  16.072   4.744  10.363  0.2618  0.0905 -0.0556
  134loPI   C1A 2135  16.018   4.630   9.781  0.5081  0.1190 -0.1726
  134loPI   C2A 2136  16.016   4.477   9.449 -0.3616 -0.1570  0.1990
  134loPI   C3A 2137  16.097   4.418   9.004 -0.1936 -0.0573  0.0502
  134loPI   C4A 2138  16.144   4.353   8.534  0.0043 -0.2057  0.0001
  134loPI   C5A 2139  16.438   4.181   8.302  0.1426 -0.0378  0.2898
  134loPI   C6A 2140  16.909   4.262   8.085 -0.1524 -0.2179 -0.1229
  134loPI   C1B 2141  16.408   4.659  10.114 -0.1025  0.0099  0.1097
  134loPI   C2B 2142  16.535   4.656   9.737  0.0539 -0.0970  0.4494
  134loPI   C3B 2143  16.595   4.608   9.334 -0.0615 -0.1319  0.0278
  134loPI   C4B 2144  16.556   4.640   8.822  0.0332 -0.0583  0.2220
  135loPI    C1 2145   0.027   7.805  10.671  0.0007  0.1179  0.0591
  135loPI    C2 2146   0.036   7.613  11.022 -0.1189 -0.1689 -0.0908
  135loPI    C3 2147  -0.229   7.907  10.961 -0.1370 -0.1580  0.0380
  135loPI   PO4 2148  -0.019   7.493  10.421  0.1964  0.1384  0.2041
  135loPI   GL1 2149  -0.330   7.062  10.339 -0.3242 -0.2015 -0.0200
  135loPI   GL2 2150  -0.232   7.218  10.088  0.0570  0.0092  0.1033
  135loPI   C1A 2151  -0.261   6.683  10.115  0.0076  0.1622  0.1893
  135loPI   C2A 2152  -0.382   6.470   9.758 -0.4140 -0.0869  0.2832
  135loPI   C3A 2153  -0.315   6.423   9.323 -0.1309 -0.2483 -0.2316
  135loPI   C4A 2154  -0.369   6.502   8.928  0.1476  0.0154 -0.1342
  135loPI   C5A 2155  -0.379   6.359   8.524  0.0439  0.1870 -0.1087
  135loPI   C6A 2156  -0.585   6.340   8.145  0.0223 -0.1718  0.0568
  135loPI   C1B 2157  -0.296   7.042   9.825  0.0181 -0.0091  0.0408
  135loPI   C2B 2158  -0.412   6.959   9.427 -0.2635  0.3019  0.0144
  135loPI   C3B 2159  -0.383   7.057   9.004 -0.1246 -0.0697  0.2179
  135loPI   C4B 2160  -0.386   6.925   8.579 -0.1727  0.1912 -0.2078
  136loPI    C1 2161   3.728  16.981  10.725  0.3601  0.1882  0.1261
  136loPI    C2 2162   4.059  16.922  10.942  0.2216 -0.2643  0.2268
  136loPI    C3 2163   3.702  16.941  11.122  0.1340 -0.3606  0.0664
  136loPI   PO4 2164   3.805  16.830  10.522  0.1688 -0.2204 -0.2796
  136loPI   GL1 2165   3.650  16.793  10.254 -0.0595 -0.3380  0.1273
  136loPI   GL2 2166   3.392  16.893  10.065 -0.1160 -0.0146  0.2209
  136loPI   C1A 2167   3.788  16.696   9.829  0.2027  0.0725  0.2030
  136loPI   C2A 2168   3.780  16.647   9.415  0.1417 -0.0908  0.1143
  136loPI   C3A 2169   3.828  16.673   9.031 -0.0122 -0.0572  0.1137
  136loPI   C4A 2170   3.701  16.642   8.541 -0.0628 -0.0840  0.1120
  136loPI   C5A 2171   3.737  16.742   8.071 -0.0736  0.0072  0.1570
  136loPI   C6A 2172   3.617  16.465   7.800 -0.1005  0.2466 -0.2274
  136loPI   C1B 2173   3.269  16.941   9.626  0.0428 -0.0263  0.1278
  136loPI   C2B 2174   3.373  16.876   9.190  0.2032  0.0940  0.1588
  136loPI   C3B 2175   3.241  16.936   8.762  0.1559  0.1604  0.1074
  136loPI   C4B 2176   3.208  16.876   8.364 -0.0290  0.0296 -0.1955
  137loPI    C1 2177   8.943  15.711  10.334  0.1591 -0.1185  0.0725
  137loPI    C2 2178   8.668  15.964  10.192  0.2370 -0.0616  0.0216
  137loPI    C3 2179   8.649  15.840  10.572  0.1006 -0.1144 -0.0016
  137loPI   PO4 2180   9.139  15.744  10.226  0.0994  0.3069  0.2339
  137loPI   GL1 2181   9.214  15.716   9.820 -0.1128 -0.1781 -0.0194
  137loPI   GL2 2182   8.985  15.932   9.782 -0.0116 -0.0911 -0.0564
  137loPI   C1A 2183   9.295  15.626   9.375 -0.2804 -0.0746 -0.2550
  137loPI   C2A 2184   9.335  15.692   8.875  0.1837 -0.0641 -0.1538
  137loPI   C3A 2185   9.301  15.524   8.483 -0.0372  0.0416 -0.1585
  137loPI   C4A 2186   9.306  15.456   7.981  0.3186  0.0503 -0.0166
  137loPI   C5A 2187   9.334  15.383   7.618 -0.1654 -0.0846  0.0973
  137loPI   C6A 2188   9.283  15.263   7.224 -0.0957  0.0405  0.0343
  137loPI   C1B 2189   8.861  16.010   9.378  0.3251  0.0587  0.0183
  137loPI   C2B 2190   8.919  15.846   9.035 -0.1236  0.0182 -0.0753
  137loPI   C3B 2191   8.898  15.876   8.516 -0.3134  0.2485 -0.1217
  137loPI   C4B 2192   8.951  15.737   8.209 -0.1096  0.0638 -0.0099
  138loPI    C1 2193   6.772  14.802  10.571 -0.0648  0.3517 -0.1365
  138loPI    C2 2194   6.869  15.091  10.830  0.0310 -0.0367  0.2714
  138loPI    C3 2195   6.773  14.726  10.963 -0.1781 -0.1733 -0.2310
  138loPI   PO4 2196   6.920  14.775  10.377  0.1134 -0.2801 -0.2170
  138loPI   GL1 2197   6.752  14.596  10.034 -0.2375 -0.0794  0.0094
  138loPI   GL2 2198   6.954  14.837   9.906 -0.0420 -0.0229  0.0232
  138loPI   C1A 2199   6.559  14.568   9.681 -0.0073 -0.3283 -0.1407
  138loPI   C2A 2200   6.599  14.650   9.293  0.1152  0.2124  0.0941
  138loPI   C3A 2201   6.478  14.542   8.914  0.1333  0.2433  0.1590
  138loPI   C4A 2202   6.533  14.630   8.400  0.0797  0.0685  0.2150
  138loPI   C5A 2203   6.637  14.608   7.935 -0.1825 -0.0563  0.2871
  138loPI   C6A 2204   6.801  14.337   7.616  0.0927 -0.2065 -0.1738
  138loPI   C1B 2205   7.009  14.838   9.460 -0.1260 -0.0729 -0.1262
  138loPI   C2B 2206   7.042  14.908   9.072  0.0092  0.1310  0.0109
  138loPI   C3B 2207   6.879  14.846   8.678 -0.0814 -0.5422  0.2001
  138loPI   C4B 2208   7.053  14.759   8.164 -0.1414  0.0213 -0.2638
  139loPI    C1 2209  10.793   0.354  10.179  0.4275 -0.1237 -0.0177
  139loPI    C2 2210  10.673   0.322  10.559  0.1748 -0.1295 -0.0962
  139loPI    C3 2211  10.911   0.624  10.450  0.0299  0.0264  0.0125
  139loPI   PO4 2212  10.958   0.130  10.088  0.0055  0.0568  0.1432
  139loPI   GL1 2213  11.058  -0.243   9.834  0.1073  0.5463 -0.0349
  139loPI   GL2 2214  10.637  -0.360   9.870 -0.1549  0.0296 -0.4123
  139loPI   C1A 2215  11.100  -0.149   9.341  0.0105 -0.3137 -0.2897
  139loPI   C2A 2216  11.105  -0.167   8.909 -0.0696  0.0368 -0.0896
  139loPI   C3A 2217  11.141  -0.044   8.538  0.1754 -0.1093 -0.1639
  139loPI   C4A 2218  11.118  -0.063   8.069 -0.3652  0.1663  0.0872
  139loPI   C5A 2219  11.106  -0.347   7.713 -0.0286  0.0845 -0.2534
  139loPI   C6A 2220  10.973  -0.431   7.223  0.2075 -0.0389 -0.0176
  139loPI   C1B 2221  10.623  -0.321   9.377 -0.0075 -0.0417 -0.3431
  139loPI   C2B 2222  10.635  -0.323   8.944  0.2898 -0.0114  0.0763
  139loPI   C3B 2223  10.653  -0.336   8.486  0.0777 -0.2007  0.0386
  139loPI   C4B 2224  10.632  -0.458   8.084 -0.0058  0.1554 -0.3194
  140loPI    C1 2225  13.395   6.940  10.534  0.1883  0.0019  0.3264
  140loPI    C2 2226  13.187   6.616  10.426  0.0998  0.0604  0.3207
  140loPI    C3 2227  13.252   6.692  10.813  0.1976 -0.0120  0.3188
  140loPI   PO4 2228  13.553   6.994  10.217  0.4139  0.1298  0.0803
  140loPI   GL1 2229  13.744   7.015   9.772  0.0498 -0.0254 -0.0037
  140loPI   GL2 2230  14.011   6.840   9.719  0.0767  0.1303 -0.0298
  140loPI   C1A 2231  13.951   7.299   9.370  0.0707  0.0641 -0.3567
  140loPI   C2A 2232  13.918   7.363   8.994  0.2329 -0.0859  0.0322
  140loPI   C3A 2233  13.899   7.266   8.657 -0.0088  0.2306  0.3152
  140loPI   C4A 2234  13.935   7.182   8.236  0.2360 -0.0021 -0.0816
  140loPI   C5A 2235  13.974   6.940   7.905 -0.1780  0.3465  0.2208
  140loPI   C6A 2236  13.937   6.950   7.449 -0.2264  0.0373 -0.1537
  140loPI   C1B 2237  13.864   6.823   9.220  0.0032  0.2300 -0.0188
  140loPI   C2B 2238  13.841   6.781   8.804 -0.1614 -0.0191 -0.1536
  140loPI   C3B 2239  13.666   6.722   8.315 -0.3479  0.2631  0.1284
  140loPI   C4B 2240  13.574   6.637   7.843 -0.2376 -0.1361 -0.0719
  141loPI    C1 2241   0.447   1.356  10.950  0.1370  0.0233 -0.0811
  141loPI    C2 2242   0.245   1.445  11.283 -0.0570  0.0046 -0.1923
  141loPI    C3 2243   0.437   1.096  11.253 -0.1446 -0.0477 -0.1484
  141loPI   PO4 2244   0.281   1.429  10.732  0.1172 -0.3814 -0.0203
  141loPI   GL1 2245   0.328   1.616  10.460  0.1119  0.0482 -0.2748
  141loPI   GL2 2246   0.424   1.859  10.361  0.0749  0.1302  0.2520
  141loPI   C1A 2247   0.200   1.431  10.009 -0.0896 -0.0687  0.0836
  141loPI   C2A 2248   0.094   1.482   9.540  0.1141  0.1614  0.2116
  141loPI   C3A 2249   0.146   1.539   9.053 -0.1738  0.1381 -0.4593
  141loPI   C4A 2250   0.158   1.494   8.625 -0.2469 -0.1708 -0.2484
  141loPI   C5A 2251   0.135   1.772   8.260 -0.0689  0.0473 -0.2349
  141loPI   C6A 2252   0.009   2.041   7.935 -0.3760  0.0557 -0.3328
  141loPI   C1B 2253   0.532   1.763   9.984 -0.2535  0.4017  0.0576
  141loPI   C2B 2254   0.510   1.722   9.632 -0.1560  0.3267 -0.0573
  141loPI   C3B 2255   0.581   1.715   9.307  0.0612  0.0793  0.1293
  141loPI   C4B 2256   0.684   1.700   8.979  0.4847 -0.0485  0.0044
  142loPI    C1 2257   3.266  10.758  11.004 -0.1124  0.0364  0.1181
  142loPI    C2 2258   2.918  10.868  11.166 -0.2501 -0.0914 -0.0862
  142loPI    C3 2259   3.001  10.480  11.114 -0.0144 -0.0676  0.0936
  142loPI   PO4 2260   3.313  10.974  10.771 -0.1689 -0.5908  0.2021
  142loPI   GL1 2261   3.336  11.075  10.451  0.1469  0.1985  0.3473
  142loPI   GL2 2262   3.145  11.376  10.504 -0.3261  0.2175  0.2617
  142loPI   C1A 2263   3.054  10.904  10.068 -0.2540 -0.1840 -0.0220
  142loPI   C2A 2264   2.898  10.900   9.661 -0.2451 -0.5936 -0.3590
  142loPI   C3A 2265   2.868  11.046   9.263  0.0784  0.1100 -0.0227
  142loPI   C4A 2266   2.728  10.888   8.818 -0.2977 -0.1293  0.1867
  142loPI   C5A 2267   2.632  10.973   8.373 -0.3450  0.0065 -0.0127
  142loPI   C6A 2268   2.967  11.094   8.067  0.1455  0.1159 -0.0136
  142loPI   C1B 2269   2.857  11.359  10.072 -0.0471 -0.0669  0.3341
  142loPI   C2B 2270   2.805  11.463   9.672 -0.1156 -0.3691 -0.2128
  142loPI   C3B 2271   2.790  11.573   9.207 -0.0022  0.0788  0.2425
  142loPI   C4B 2272   2.726  11.406   8.766 -0.2587 -0.1396  0.0331
  143loPI    C1 2273  14.032  16.188  10.558  0.3017  0.1122 -0.5065
  143loPI    C2 2274  13.750  16.020  10.328 -0.1240  0.2639 -0.1110
  143loPI    C3 2275  13.857  15.847  10.673  0.2711  0.2105 -0.2550
  143loPI   PO4 2276  14.119  16.327  10.471 -0.0689  0.0889  0.0367
  143loPI   GL1 2277  14.307  16.353  10.084  0.0794  0.2374 -0.0149
  143loPI   GL2 2278  14.061  16.166   9.968  0.3376  0.0026 -0.0463
  143loPI   C1A 2279  14.386  16.358   9.607 -0.0788  0.0318 -0.1377
  143loPI   C2A 2280  14.353  16.361   9.150  0.3350 -0.0065 -0.1713
  143loPI   C3A 2281  14.244  16.418   8.771 -0.2093  0.2809  0.0466
  143loPI   C4A 2282  14.336  16.376   8.324 -0.1183  0.0692  0.0679
  143loPI   C5A 2283  14.580  16.324   8.049  0.0031  0.0195 -0.0576
  143loPI   C6A 2284  15.090  16.233   8.021  0.0011 -0.3633  0.0934
  143loPI   C1B 2285  13.813  16.157   9.506  0.2752  0.0360  0.2633
  143loPI   C2B 2286  13.859  16.157   9.037  0.1458  0.0373  0.0782
  143loPI   C3B 2287  13.846  16.080   8.643 -0.4124 -0.1876 -0.0814
  143loPI   C4B 2288  13.882  16.127   8.380  0.2311 -0.0106  0.0541
  144loPI    C1 2289   5.311   6.645  10.810  0.0990 -0.0301 -0.1440
  144loPI    C2 2290   5.154   6.490  11.144  0.2244  0.0400 -0.0518
  144loPI    C3 2291   5.442   6.766  11.168  0.1502  0.1331 -0.2171
  144loPI   PO4 2292   5.228   6.668  10.639  0.0282  0.1773 -0.1649
  144loPI   GL1 2293   4.968   6.587  10.312 -0.2588  0.3389  0.0587
  144loPI   GL2 2294   4.855   6.790   9.966  0.1778  0.1791  0.0825
  144loPI   C1A 2295   5.126   6.411   9.866 -0.0978  0.1266  0.0449
  144loPI   C2A 2296   5.168   6.443   9.425 -0.0067  0.1363 -0.1119
  144loPI   C3A 2297   5.100   6.442   8.968 -0.3337  0.0560 -0.0459
  144loPI   C4A 2298   5.031   6.346   8.512 -0.3282 -0.2227  0.1796
  144loPI   C5A 2299   5.108   6.632   8.126 -0.0816  0.1408  0.1788
  144loPI   C6A 2300   5.078   6.985   7.879  0.0242 -0.0099  0.1929
  144loPI   C1B 2301   4.767   6.787   9.542  0.0451 -0.1059 -0.2308
  144loPI   C2B 2302   4.633   6.653   9.038  0.0969  0.0867 -0.2255
  144loPI   C3B 2303   4.712   6.679   8.683 -0.3337  0.1188 -0.0812
  144loPI   C4B 2304   4.615   6.606   8.240 -0.0903 -0.1046  0.0493
  145loPI    C1 2305   4.146  15.643  10.687  0.0534  0.0503  0.1261
  145loPI    C2 2306   3.896  15.639  10.999 -0.0491 -0.0997  0.0431
  145loPI    C3 2307   3.981  15.984  10.817 -0.0895 -0.0292  0.1563
  145loPI   PO4 2308   4.055  15.437  10.391  0.2956  0.1264  0.0145
  145loPI   GL1 2309   3.852  15.573   9.959  0.3285  0.1700  0.1912
  145loPI   GL2 2310   3.952  15.251   9.916 -0.1442  0.0855  0.2347
  145loPI   C1A 2311   3.786  15.641   9.515  0.1838  0.0647 -0.1400
  145loPI   C2A 2312   3.903  15.592   9.182 -0.1572  0.3106 -0.0185
  145loPI   C3A 2313   3.774  15.626   8.726 -0.1311  0.1204  0.2400
  145loPI   C4A 2314   3.829  15.691   8.268 -0.2402 -0.0184  0.1327
  145loPI   C5A 2315   4.057  15.959   7.946 -0.0366  0.4385 -0.2045
  145loPI   C6A 2316   4.325  16.365   7.815 -0.0770 -0.3709  0.2559
  145loPI   C1B 2317   3.957  15.142   9.474  0.1448  0.0856 -0.1234
  145loPI   C2B 2318   3.769  15.011   9.020 -0.1370  0.1016  0.1013
  145loPI   C3B 2319   3.728  15.099   8.533  0.0391  0.2983 -0.1903
  145loPI   C4B 2320   3.721  15.094   8.141 -0.1897  0.0415  0.0114
  146loPI    C1 2321   9.636  16.857  10.335  0.0333  0.1032  0.1516
  146loPI    C2 2322   9.409  16.914  10.660 -0.0583  0.0054  0.1057
  146loPI    C3 2323   9.808  16.932  10.688 -0.0644 -0.0432  0.2316
  146loPI   PO4 2324   9.612  16.584  10.272 -0.1629  0.1690  0.0711
  146loPI   GL1 2325   9.819  16.239  10.003 -0.4830 -0.1457  0.1143
  146loPI   GL2 2326   9.752  16.429   9.824  0.0091  0.0010 -0.1205
  146loPI   C1A 2327   9.636  15.950   9.683 -0.2682 -0.0129  0.0863
  146loPI   C2A 2328   9.725  15.813   9.178 -0.3952  0.0699 -0.0180
  146loPI   C3A 2329   9.812  15.827   8.766 -0.1104  0.2549 -0.2241
  146loPI   C4A 2330   9.795  15.872   8.339 -0.1506  0.1915 -0.0206
  146loPI   C5A 2331   9.793  15.737   7.941  0.0816  0.1590  0.2669
  146loPI   C6A 2332   9.581  15.874   7.558 -0.1303  0.3099 -0.1980
  146loPI   C1B 2333   9.825  16.488   9.372 -0.2177  0.1218  0.0207
  146loPI   C2B 2334   9.685  16.430   8.999 -0.0210 -0.1850 -0.0818
  146loPI   C3B 2335   9.811  16.360   8.535 -0.0221 -0.1295  0.0981
  146loPI   C4B 2336   9.906  16.371   8.183 -0.1981  0.0011  0.0082
  147loPI    C1 2337   3.272  17.551  11.184  0.1731 -0.1553 -0.2051
  147loPI    C2 2338   3.658  17.449  11.193  0.2493  0.1414  0.0574
  147loPI    C3 2339   3.474  17.564  11.529 -0.1685 -0.3477  0.0078
  147loPI   PO4 2340   3.183  17.755  10.945  0.0237 -0.0648 -0.2417
  147loPI   GL1 2341   3.205  17.756  10.549  0.0825 -0.4574  0.0450
  147loPI   GL2 2342   3.361  17.865  10.376 -0.1524  0.0513 -0.0255
  147loPI   C1A 2343   2.902  17.618  10.206  0.1941  0.1229 -0.3813
  147loPI   C2A 2344   2.806  17.740   9.776 -0.2562 -0.1222  0.0140
  147loPI   C3A 2345   2.791  17.740   9.320 -0.0293  0.4591 -0.0303
  147loPI   C4A 2346   2.872  17.627   8.867  0.1784 -0.0098  0.0532
  147loPI   C5A 2347   2.860  17.639   8.469  0.1533 -0.2367  0.1840
  147loPI   C6A 2348   2.732  17.608   8.168  0.0462 -0.2087  0.0630
  147loPI   C1B 2349   3.233  17.984   9.945  0.0371  0.1991 -0.1486
  147loPI   C2B 2350   3.370  17.889   9.616  0.0325 -0.2223  0.1360
  147loPI   C3B 2351   3.307  17.886   9.174  0.0418  0.0075 -0.0347
  147loPI   C4B 2352   3.293  17.910   8.713 -0.2660 -0.2146  0.3404
  148loPI    C1 2353   0.485   0.109  10.906 -0.3170  0.2338  0.1913
  148loPI    C2 2354   0.766   0.203  11.175  0.1252 -0.1473 -0.1216
  148loPI    C3 2355   0.506  -0.092  11.251  0.1145 -0.1137 -0.0263
  148loPI   PO4 2356   0.340   0.382  10.818  0.0386  0.2332  0.0723
  148loPI   GL1 2357   0.331   0.557  10.403  0.0333  0.0047  0.2119
  148loPI   GL2 2358   0.621   0.708  10.273 -0.0485  0.4025 -0.1686
  148loPI   C1A 2359   0.057   0.431  10.024 -0.2344  0.2587  0.0735
  148loPI   C2A 2360   0.116   0.414   9.592  0.0327  0.1926  0.2495
  148loPI   C3A 2361   0.195   0.409   9.049 -0.1495  0.0767 -0.0548
  148loPI   C4A 2362   0.192   0.498   8.541 -0.2150  0.1816 -0.1027
  148loPI   C5A 2363  -0.140   0.792   8.449  0.0459 -0.0878  0.0926
  148loPI   C6A 2364  -0.204   1.248   8.370  0.1648  0.3298 -0.0603
  148loPI   C1B 2365   0.528   0.628   9.890  0.0250 -0.4440  0.2194
  148loPI   C2B 2366   0.523   0.730   9.442  0.0200  0.0155 -0.4349
  148loPI   C3B 2367   0.618   0.684   9.020  0.3962  0.0922  0.1035
  148loPI   C4B 2368   0.666   0.656   8.559 -0.3421 -0.2689  0.2603
  149loPI    C1 2369   4.783  16.589  10.885 -0.0006  0.0203 -0.0179
  149loPI    C2 2370   4.483  16.735  11.106  0.0900  0.0420  0.0920
  149loPI    C3 2371   4.850  16.702  11.263  0.0626 -0.3454  0.0846
  149loPI   PO4 2372   4.706  16.655  10.666  0.0555 -0.1998  0.0706
  149loPI   GL1 2373   4.703  17.006  10.439  0.0975 -0.1133 -0.5798
  149loPI   GL2 2374   4.257  16.967  10.327  0.0482 -0.0002 -0.1401
  149loPI   C1A 2375   4.733  17.207  10.065 -0.0268 -0.1193  0.1235
  149loPI   C2A 2376   4.630  17.151   9.607 -0.1910 -0.2152  0.0436
  149loPI   C3A 2377   4.628  17.269   9.196 -0.1844 -0.2704  0.0998
  149loPI   C4A 2378   4.795  17.213   8.810 -0.0640  0.0563 -0.1036
  149loPI   C5A 2379   4.648  16.973   8.503 -0.1505  0.1016  0.5132
  149loPI   C6A 2380   4.608  16.477   8.362 -0.3632  0.2271  0.0703
  149loPI   C1B 2381   4.230  16.972   9.837 -0.2740  0.0773 -0.0095
  149loPI   C2B 2382   4.179  16.940   9.401  0.1571  0.0432 -0.3037
  149loPI   C3B 2383   4.249  16.986   9.008 -0.0833  0.3874 -0.0749
  149loPI   C4B 2384   4.211  16.800   8.705  0.1936 -0.2349 -0.1265
  150loPI    C1 2385   7.888  17.395  10.816 -0.1676 -0.2717  0.0031
  150loPI    C2 2386   8.188  17.364  11.079 -0.0650 -0.2232 -0.1074
  150loPI    C3 2387   7.909  17.646  11.126  0.1065 -0.0356 -0.2014
  150loPI   PO4 2388   7.995  17.516  10.506 -0.0132 -0.0731 -0.0273
  150loPI   GL1 2389   8.112  17.536  10.187 -0.0503 -0.0029 -0.2648
  150loPI   GL2 2390   8.344  17.542  10.022  0.1932 -0.0576  0.4556
  150loPI   C1A 2391   7.949  17.619   9.667  0.1737 -0.0656  0.1023
  150loPI   C2A 2392   7.913  17.580   9.232  0.1211 -0.0119 -0.0201
  150loPI   C3A 2393   7.869  17.416   8.814 -0.2908 -0.0068  0.2140
  150loPI   C4A 2394   8.013  17.394   8.401 -0.1669  0.3613  0.0982
  150loPI   C5A 2395   8.222  17.614   7.953  0.0416  0.0636  0.0092
  150loPI   C6A 2396   8.540  17.547   7.829 -0.1170  0.0701  0.3917
  150loPI   C1B 2397   8.396  17.385   9.628  0.0333  0.0370 -0.1265
  150loPI   C2B 2398   8.374  17.266   9.170 -0.0879  0.1493 -0.2032
  150loPI   C3B 2399   8.372  17.172   8.692  0.4042  0.1969  0.0182
  150loPI   C4B 2400   8.204  16.979   8.203 -0.3944 -0.3219 -0.1796
  151loPI    C1 2401  17.016  10.586  11.148  0.1038  0.0185 -0.0211
  151loPI    C2 2402  17.286  10.482  11.425 -0.0681  0.0532  0.1612
  151loPI    C3 2403  17.035  10.786  11.494 -0.2692 -0.0890  0.0661
  151loPI   PO4 2404  17.203  10.588  10.912  0.1290  0.3937  0.5488
  151loPI   GL1 2405  17.137  10.560  10.557 -0.1000 -0.1713  0.3129
  151loPI   GL2 2406  17.112  10.302  10.324 -0.0122 -0.0196 -0.0305
  151loPI   C1A 2407  17.159  10.794  10.240  0.2205 -0.0721  0.2376
  151loPI   C2A 2408  17.049  10.646   9.750  0.2910  0.0076  0.2861
  151loPI   C3A 2409  17.104  10.743   9.333 -0.0914 -0.0433 -0.0924
  151loPI   C4A 2410  16.949  10.632   8.944  0.0662 -0.0133  0.0966
  151loPI   C5A 2411  16.780  10.629   8.561 -0.0429 -0.0892  0.0620
  151loPI   C6A 2412  16.504  10.917   8.305  0.0002 -0.2299 -0.1136
  151loPI   C1B 2413  17.056  10.140   9.842  0.2271 -0.2114 -0.2937
  151loPI   C2B 2414  16.995  10.168   9.337  0.1290 -0.0591 -0.0688
  151loPI   C3B 2415  17.100  10.138   8.867 -0.2515  0.3873 -0.4436
  151loPI   C4B 2416  16.931  10.137   8.502  0.1075  0.3013  0.0622
  152loPI    C1 2417   7.658  16.620  10.739  0.2827  0.3009  0.1576
  152loPI    C2 2418   8.008  16.436  10.799  0.0905 -0.1743 -0.1176
  152loPI    C3 2419   7.722  16.416  11.077  0.1809 -0.0184 -0.0115
  152loPI   PO4 2420   7.619  16.551  10.500 -0.1220 -0.1612  0.0926
  152loPI   GL1 2421   7.615  16.348  10.109 -0.0870  0.1645 -0.1087
  152loPI   GL2 2422   7.375  16.373  10.006 -0.1352 -0.1840 -0.1396
  152loPI   C1A 2423   7.911  16.546   9.807 -0.1909  0.1303 -0.0544
  152loPI   C2A 2424   7.930  16.548   9.374 -0.6007  0.0342 -0.0333
  152loPI   C3A 2425   8.012  16.468   8.994  0.4013  0.1069 -0.1351
  152loPI   C4A 2426   7.846  16.417   8.664 -0.1914  0.0597  0.2622
  152loPI   C5A 2427   7.890  16.404   8.179 -0.0229 -0.0750 -0.1567
  152loPI   C6A 2428   7.955  16.625   7.831  0.0080  0.0013  0.0609
  152loPI   C1B 2429   7.461  16.282   9.558  0.0223  0.5521  0.1305
  152loPI   C2B 2430   7.475  16.259   9.105 -0.1050 -0.3039  0.1321
  152loPI   C3B 2431   7.383  16.122   8.767 -0.2427  0.2607 -0.0502
  152loPI   C4B 2432   7.473  16.229   8.350 -0.0087 -0.0596 -0.0074
  153loPI    C1 2433   6.751  12.539  10.897 -0.0118  0.0559 -0.0478
  153loPI    C2 2434   6.736  12.180  11.072  0.0457  0.1393  0.1301
  153loPI    C3 2435   6.493  12.473  11.195 -0.1835  0.0880 -0.1873
  153loPI   PO4 2436   6.771  12.467  10.638 -0.0956  0.0316 -0.0675
  153loPI   GL1 2437   6.717  12.404  10.219  0.2186  0.3326  0.1547
  153loPI   GL2 2438   6.430  12.252  10.203  0.1672  0.1664 -0.0445
  153loPI   C1A 2439   6.610  12.493   9.772 -0.1292  0.0370 -0.0799
  153loPI   C2A 2440   6.660  12.349   9.317 -0.0306 -0.0283  0.0132
  153loPI   C3A 2441   6.592  12.379   8.911 -0.0966  0.0271 -0.2017
  153loPI   C4A 2442   6.552  12.315   8.521  0.0409  0.3911  0.4406
  153loPI   C5A 2443   6.456  12.183   8.165 -0.3747 -0.0503  0.0970
  153loPI   C6A 2444   6.599  12.067   7.872  0.0275 -0.0017 -0.1258
  153loPI   C1B 2445   6.234  12.145   9.751 -0.0665  0.1089 -0.0294
  153loPI   C2B 2446   6.160  12.134   9.343 -0.0102 -0.0628  0.1804
  153loPI   C3B 2447   6.115  12.189   8.919 -0.1256 -0.2554  0.0665
  153loPI   C4B 2448   6.098  12.074   8.485  0.1489  0.1027  0.2317
  154loPI    C1 2449  15.745  17.367  10.796 -0.0701  0.2153 -0.1411
  154loPI    C2 2450  16.063  17.594  10.880  0.0921  0.0034 -0.1755
  154loPI    C3 2451  15.923  17.337  11.153 -0.0559  0.1033 -0.1570
  154loPI   PO4 2452  15.836  17.228  10.629  0.0249 -0.0003 -0.1937
  154loPI   GL1 2453  16.228  17.290  10.476  0.2682  0.0262 -0.3461
  154loPI   GL2 2454  16.407  17.573  10.457 -0.2293 -0.0390  0.1039
  154loPI   C1A 2455  16.242  17.367  10.001 -0.1717  0.1337  0.0803
  154loPI   C2A 2456  16.267  17.446   9.603  0.2955 -0.4550 -0.0810
  154loPI   C3A 2457  16.215  17.416   9.193 -0.0181 -0.2356 -0.2501
  154loPI   C4A 2458  16.143  17.491   8.661 -0.0803 -0.1400 -0.1102
  154loPI   C5A 2459  16.401  17.604   8.392 -0.0241 -0.2652  0.1783
  154loPI   C6A 2460  16.823  17.763   8.386  0.2960  0.1295  0.1102
  154loPI   C1B 2461  16.652  17.624  10.094 -0.1176 -0.3171  0.0692
  154loPI   C2B 2462  16.677  17.734   9.747 -0.1140 -0.0638  0.1776
  154loPI   C3B 2463  16.644  17.728   9.369 -0.2191 -0.3085  0.1310
  154loPI   C4B 2464  16.575  17.727   8.962  0.1164  0.2359 -0.2167
  155loPI    C1 2465  13.595   6.115  10.649 -0.3785 -0.0782  0.2405
  155loPI    C2 2466  13.691   6.503  10.659 -0.1288 -0.1257 -0.1047
  155loPI    C3 2467  13.545   6.324  10.986 -0.0915  0.2176  0.1051
  155loPI   PO4 2468  13.460   6.177  10.407  0.0175  0.2427  0.0149
  155loPI   GL1 2469  13.236   6.070   9.996  0.0843 -0.1664 -0.1155
  155loPI   GL2 2470  13.004   6.023   9.784  0.4342  0.1817  0.1269
  155loPI   C1A 2471  13.644   6.154   9.813 -0.1657 -0.1457  0.1353
  155loPI   C2A 2472  13.847   6.330   9.490  0.1705  0.4135 -0.1804
  155loPI   C3A 2473  13.868   6.292   9.004 -0.0405  0.0350  0.2327
  155loPI   C4A 2474  13.821   6.161   8.631  0.0373 -0.0164 -0.1171
  155loPI   C5A 2475  13.677   6.125   8.153  0.2381  0.3699 -0.2850
  155loPI   C6A 2476  13.520   5.820   7.963 -0.2790  0.1801 -0.2584
  155loPI   C1B 2477  13.006   6.000   9.278  0.1140 -0.0166 -0.0755
  155loPI   C2B 2478  13.134   6.102   8.837  0.0435 -0.3017 -0.0652
  155loPI   C3B 2479  12.956   6.165   8.525 -0.0573 -0.0748 -0.1320
  155loPI   C4B 2480  13.088   6.140   8.075 -0.2758 -0.0111  0.0058
  156loPI    C1 2481  10.062  14.006  10.750  0.1970  0.1358 -0.0256
  156loPI    C2 2482  10.021  14.113  11.133  0.1828  0.1181 -0.0221
  156loPI    C3 2483  10.347  13.913  11.015  0.0503 -0.1385  0.0392
  156loPI   PO4 2484  10.022  14.169  10.555  0.0218 -0.3547  0.1913
  156loPI   GL1 2485  10.152  14.301  10.139 -0.0648  0.0592  0.0200
  156loPI   GL2 2486  10.049  14.029  10.045  0.2525 -0.0589  0.0340
  156loPI   C1A 2487  10.205  14.594   9.791 -0.1505  0.1423 -0.1031
  156loPI   C2A 2488  10.275  14.507   9.399 -0.1811 -0.0009 -0.0271
  156loPI   C3A 2489  10.251  14.578   9.018  0.1295  0.1002 -0.0200
  156loPI   C4A 2490  10.259  14.597   8.569 -0.3764 -0.1190 -0.1662
  156loPI   C5A 2491  10.281  14.727   8.127  0.0782 -0.0625  0.3276
  156loPI   C6A 2492  10.333  14.790   7.642 -0.0497 -0.3708  0.1003
  156loPI   C1B 2493  10.199  14.062   9.683  0.2789  0.1704 -0.2096
  156loPI   C2B 2494  10.246  14.045   9.210 -0.0511 -0.2198  0.0982
  156loPI   C3B 2495  10.178  14.090   8.795  0.0744 -0.2836 -0.2302
  156loPI   C4B 2496  10.288  14.059   8.360  0.0146  0.3410  0.0357
  157loPI    C1 2497   3.797  14.540  10.609 -0.0017  0.1933 -0.1576
  157loPI    C2 2498   4.053  14.235  10.653  0.1303  0.3087 -0.1177
  157loPI    C3 2499   3.830  14.355  10.963 -0.1976  0.0125 -0.2312
  157loPI   PO4 2500   3.829  14.531  10.349 -0.1399  0.2361 -0.0187
  157loPI   GL1 2501   3.599  14.526   9.988 -0.0031 -0.0366 -0.2543
  157loPI   GL2 2502   3.921  14.722   9.863 -0.1408  0.2124  0.0098
  157loPI   C1A 2503   3.367  14.785   9.722  0.1867 -0.2024  0.2815
  157loPI   C2A 2504   3.431  14.786   9.319  0.3511 -0.1612  0.2411
  157loPI   C3A 2505   3.328  14.786   8.903 -0.1414  0.0522  0.0646
  157loPI   C4A 2506   3.290  14.879   8.445  0.1110 -0.1198 -0.0524
  157loPI   C5A 2507   3.265  14.806   8.069  0.3516 -0.1591  0.2444
  157loPI   C6A 2508   3.247  14.481   7.771  0.4802 -0.0805 -0.1285
  157loPI   C1B 2509   3.777  14.478   9.515  0.0642  0.5166  0.2503
  157loPI   C2B 2510   3.882  14.560   9.148  0.0452  0.0781  0.0738
  157loPI   C3B 2511   3.759  14.577   8.625 -0.1256 -0.0112 -0.0233
  157loPI   C4B 2512   3.746  14.554   8.183 -0.3141 -0.0708  0.0581
  158loPI    C1 2513  14.500  14.641  11.195 -0.0886 -0.0150  0.1002
  158loPI    C2 2514  14.835  14.478  11.340  0.0748  0.4406  0.2533
  158loPI    C3 2515  14.532  14.564  11.586 -0.1543  0.0451  0.1177
  158loPI   PO4 2516  14.565  14.758  10.965  0.1111  0.1558  0.0766
  158loPI   GL1 2517  14.426  14.957  10.586 -0.3434  0.0678 -0.2386
  158loPI   GL2 2518  14.708  14.860  10.435 -0.0082 -0.3343  0.3380
  158loPI   C1A 2519  14.285  14.806  10.155  0.0285  0.2650 -0.0119
  158loPI   C2A 2520  14.436  14.916   9.736  0.0052  0.2626 -0.1523
  158loPI   C3A 2521  14.327  14.848   9.251  0.1776  0.3047 -0.5011
  158loPI   C4A 2522  14.339  14.789   8.891 -0.1124 -0.0738  0.0892
  158loPI   C5A 2523  14.420  14.831   8.412  0.3499 -0.0504  0.3844
  158loPI   C6A 2524  14.749  14.944   8.196 -0.3007  0.0472  0.0746
  158loPI   C1B 2525  14.784  14.703  10.049 -0.0021  0.0196  0.0689
  158loPI   C2B 2526  14.784  14.515   9.548 -0.0427  0.1953 -0.1044
  158loPI   C3B 2527  14.733  14.593   9.137 -0.0176 -0.0364 -0.1544
  158loPI   C4B 2528  14.734  14.560   8.717  0.3491 -0.0300  0.1642
  159loPI    C1 2529  13.165  18.268  10.539 -0.1861 -0.1272  0.0567
  159loPI    C2 2530  13.150  18.646  10.669 -0.0447 -0.0652 -0.1038
  159loPI    C3 2531  13.138  18.344  10.931  0.0201  0.0536  0.0380
  159loPI   PO4 2532  13.016  18.290  10.287  0.0178  0.0675  0.1812
  159loPI   GL1 2533  12.737  18.282   9.972 -0.1687 -0.0282 -0.2425
  159loPI   GL2 2534  12.526  18.005   9.958  0.0229  0.0146  0.0341
  159loPI   C1A 2535  12.950  18.336   9.587 -0.4198  0.1052 -0.1389
  159loPI   C2A 2536  13.000  18.331   9.141  0.1964 -0.0362  0.2407
  159loPI   C3A 2537  12.923  18.156   8.733 -0.1380 -0.1870 -0.0307
  159loPI   C4A 2538  12.849  18.219   8.336  0.0623 -0.0178  0.1643
  159loPI   C5A 2539  12.873  18.496   7.933  0.0865 -0.1906 -0.2267
  159loPI   C6A 2540  13.272  18.683   7.721 -0.2896  0.1050 -0.0659
  159loPI   C1B 2541  12.603  17.967   9.531 -0.0436  0.0762 -0.1122
  159loPI   C2B 2542  12.539  18.017   9.078  0.1545 -0.0291 -0.3391
  159loPI   C3B 2543  12.463  17.910   8.657  0.0045 -0.0147 -0.2309
  159loPI   C4B 2544  12.467  17.873   8.101 -0.0144 -0.0050 -0.1416
  160loPI    C1 2545   7.777  15.848  10.402  0.3550  0.0411 -0.1036
  160loPI    C2 2546   7.648  16.076  10.705 -0.0120  0.0741 -0.2783
  160loPI    C3 2547   7.791  15.709  10.777 -0.0198  0.1132 -0.0583
  160loPI   PO4 2548   7.632  15.908  10.262 -0.0972  0.4471 -0.3591
  160loPI   GL1 2549   7.595  15.652   9.880  0.1048  0.0442  0.0358
  160loPI   GL2 2550   7.768  16.013   9.806  0.1114  0.1292  0.4500
  160loPI   C1A 2551   7.467  15.688   9.470 -0.0362  0.0076 -0.1382
  160loPI   C2A 2552   7.479  15.750   9.063 -0.2282 -0.2681  0.1006
  160loPI   C3A 2553   7.499  15.703   8.597 -0.2498  0.2123  0.2518
  160loPI   C4A 2554   7.526  15.736   8.247  0.5316 -0.2386  0.4429
  160loPI   C5A 2555   7.483  15.448   7.895 -0.3035 -0.1209 -0.1417
  160loPI   C6A 2556   7.361  15.640   7.592  0.2155 -0.2541 -0.1583
  160loPI   C1B 2557   7.902  16.002   9.364  0.2731  0.2622  0.2557
  160loPI   C2B 2558   7.935  15.944   8.913 -0.0187  0.5485  0.0363
  160loPI   C3B 2559   7.949  15.933   8.463  0.3438 -0.0688 -0.3294
  160loPI   C4B 2560   7.975  15.818   8.080  0.2249  0.1047  0.1446
  161loPI    C1 2561  17.726  13.571  10.507 -0.0448 -0.0236  0.1629
  161loPI    C2 2562  17.494  13.871  10.378 -0.1497 -0.1875 -0.0375
  161loPI    C3 2563  17.547  13.813  10.770 -0.2603 -0.0081  0.0053
  161loPI   PO4 2564  17.927  13.590  10.437 -0.0924  0.1639 -0.0393
  161loPI   GL1 2565  18.155  13.842  10.110  0.1912  0.0630  0.2203
  161loPI   GL2 2566  17.896  13.694   9.951  0.1105  0.0286 -0.1235
  161loPI   C1A 2567  18.375  13.930   9.723  0.1704  0.0172  0.0362
  161loPI   C2A 2568  18.446  14.078   9.219  0.0308  0.0117  0.0629
  161loPI   C3A 2569  18.439  14.092   8.779  0.0215  0.0775 -0.1473
  161loPI   C4A 2570  18.530  14.004   8.378  0.2438 -0.1217  0.1280
  161loPI   C5A 2571  18.517  13.850   7.965 -0.2844 -0.1180  0.1095
  161loPI   C6A 2572  18.516  13.459   8.089 -0.5164 -0.0465 -0.1668
  161loPI   C1B 2573  17.985  13.718   9.527 -0.2662  0.1715 -0.2095
  161loPI   C2B 2574  17.968  13.840   9.032 -0.3303  0.1221 -0.1801
  161loPI   C3B 2575  18.003  13.839   8.591  0.2901  0.0802 -0.2347
  161loPI   C4B 2576  18.066  13.650   8.119 -0.0372  0.1090  0.0680
  162loPI    C1 2577   1.098   4.638  11.085  0.1588  0.1032 -0.2509
  162loPI    C2 2578   0.764   4.857  11.106  0.0146 -0.0928 -0.4553
  162loPI    C3 2579   0.949   4.743  11.441 -0.1446 -0.0158 -0.3398
  162loPI   PO4 2580   1.124   4.714  10.794 -0.2737 -0.1470  0.1839
  162loPI   GL1 2581   1.002   4.553  10.401 -0.2394  0.1878  0.0782
  162loPI   GL2 2582   1.313   4.683  10.285 -0.0328  0.2160 -0.0786
  162loPI   C1A 2583   0.917   4.574  10.049 -0.1410 -0.2758  0.0029
  162loPI   C2A 2584   0.882   4.581   9.634  0.2891 -0.0352  0.0101
  162loPI   C3A 2585   1.042   4.656   9.221 -0.0507 -0.0362  0.0406
  162loPI   C4A 2586   0.914   4.511   8.883 -0.0129 -0.0937 -0.0511
  162loPI   C5A 2587   0.841   4.491   8.426 -0.1541  0.0035 -0.2477
  162loPI   C6A 2588   0.547   4.357   8.047 -0.0801 -0.0598  0.4142
  162loPI   C1B 2589   1.322   4.372   9.903  0.1994  0.0189 -0.1354
  162loPI   C2B 2590   1.327   4.281   9.467  0.0299 -0.1738  0.3392
  162loPI   C3B 2591   1.459   4.334   9.087 -0.0947 -0.4370  0.4728
  162loPI   C4B 2592   1.330   4.410   8.640 -0.0825  0.1543  0.2021
  163loPI    C1 2593   4.539   5.940  10.972 -0.1090  0.0345 -0.1936
  163loPI    C2 2594   4.332   6.084  11.283  0.1894 -0.4160  0.2300
  163loPI    C3 2595   4.719   6.176  11.241  0.0824 -0.1211 -0.1829
  163loPI   PO4 2596   4.361   5.989  10.742  0.0659  0.0555  0.0917
  163loPI   GL1 2597   4.475   6.167  10.469  0.0887 -0.3221  0.0413
  163loPI   GL2 2598   4.457   6.541  10.363  0.2459 -0.0924  0.0299
  163loPI   C1A 2599   4.656   6.208  10.081  0.2161 -0.4464  0.0362
  163loPI   C2A 2600   4.735   6.297   9.611  0.0581 -0.1130 -0.1918
  163loPI   C3A 2601   4.665   6.167   9.217  0.0777  0.0981 -0.1964
  163loPI   C4A 2602   4.621   6.133   8.770 -0.1506 -0.0049 -0.5169
  163loPI   C5A 2603   4.669   6.106   8.376 -0.0106 -0.0070  0.0178
  163loPI   C6A 2604   4.753   6.235   7.907 -0.1091  0.4032  0.1930
  163loPI   C1B 2605   4.339   6.571   9.827 -0.1725  0.1351 -0.1102
  163loPI   C2B 2606   4.252   6.475   9.422  0.1242  0.0893 -0.2868
  163loPI   C3B 2607   4.208   6.365   8.912  0.0436  0.0034 -0.2212
  163loPI   C4B 2608   4.184   6.309   8.460  0.2410 -0.0153  0.3114
  164loPI    C1 2609   0.766   0.733  10.945 -0.0506  0.2138  0.0788
  164loPI    C2 2610   0.500   0.611  11.217 -0.0401  0.1837  0.0755
  164loPI    C3 2611   0.831   0.802  11.333  0.1883 -0.2300  0.1234
  164loPI   PO4 2612   0.810   0.511  10.733 -0.2629  0.3426  0.1012
  164loPI   GL1 2613   0.758   0.162  10.444 -0.2787 -0.0727 -0.0173
  164loPI   GL2 2614   1.027  -0.082  10.173  0.0433  0.0622 -0.0398
  164loPI   C1A 2615   0.582   0.205  10.062 -0.2905 -0.1083  0.3822
  164loPI   C2A 2616   0.539   0.198   9.669 -0.3810 -0.0753  0.2015
  164loPI   C3A 2617   0.639   0.274   9.317 -0.0649 -0.0235 -0.0613
  164loPI   C4A 2618   0.640   0.180   8.891  0.1548 -0.2239 -0.0241
  164loPI   C5A 2619   0.722   0.119   8.494  0.2182  0.1000 -0.2182
  164loPI   C6A 2620   0.491   0.011   8.138 -0.1244 -0.2564 -0.0872
  164loPI   C1B 2621   0.961  -0.164   9.713 -0.1712  0.0582 -0.0032
  164loPI   C2B 2622   0.911  -0.101   9.242 -0.0669 -0.2638  0.2056
  164loPI   C3B 2623   1.201  -0.070   9.039 -0.0259  0.1076  0.1648
  164loPI   C4B 2624   1.232   0.025   8.517  0.2669  0.0606 -0.2612
  165loPI    C1 2625  14.179   8.014  10.487  0.1241 -0.0752  0.0187
  165loPI    C2 2626  14.158   8.249  10.810 -0.2740 -0.1875  0.0791
  165loPI    C3 2627  14.221   8.410  10.449 -0.4897  0.0091  0.1271
  165loPI   PO4 2628  13.973   7.896  10.415 -0.2360 -0.2404 -0.1733
  165loPI   GL1 2629  13.990   7.853   9.997  0.1778  0.0656  0.0564
  165loPI   GL2 2630  13.932   8.232  10.012  0.2698 -0.0482 -0.2143
  165loPI   C1A 2631  13.902   7.759   9.565  0.1483  0.0407 -0.0459
  165loPI   C2A 2632  13.920   7.818   9.220 -0.3135  0.3188  0.2735
  165loPI   C3A 2633  13.940   7.793   8.752 -0.1381 -0.0783  0.0927
  165loPI   C4A 2634  13.894   7.734   8.374 -0.0474 -0.3021 -0.1205
  165loPI   C5A 2635  13.988   7.532   7.885  0.0134 -0.0034 -0.1572
  165loPI   C6A 2636  14.314   7.284   7.784  0.0573 -0.0160 -0.0715
  165loPI   C1B 2637  13.851   8.271   9.595  0.1278 -0.1058 -0.0085
  165loPI   C2B 2638  13.871   8.327   9.212  0.3281  0.3328  0.0252
  165loPI   C3B 2639  13.947   8.282   8.804  0.1058 -0.1224 -0.2635
  165loPI   C4B 2640  13.822   8.272   8.411 -0.0454  0.1997 -0.2703
  166loPI    C1 2641  16.219  16.234  11.322  0.0335  0.3509  0.1137
  166loPI    C2 2642  16.415  16.193  11.668  0.1179  0.0291  0.0305
  166loPI    C3 2643  16.159  15.910  11.548  0.2358  0.0430 -0.2627
  166loPI   PO4 2644  16.320  16.362  11.159 -0.1419  0.0832 -0.3518
  166loPI   GL1 2645  16.383  16.409  10.630  0.0995  0.0394 -0.3434
  166loPI   GL2 2646  16.537  16.624  10.456 -0.0587 -0.1117  0.0254
  166loPI   C1A 2647  16.202  16.350  10.202 -0.0700  0.0497  0.2248
  166loPI   C2A 2648  16.254  16.382   9.721  0.0724 -0.2713  0.0116
  166loPI   C3A 2649  16.070  16.441   9.292 -0.1755  0.0138  0.0110
  166loPI   C4A 2650  16.121  16.443   8.803 -0.2223 -0.0131  0.1764
  166loPI   C5A 2651  16.377  16.517   8.407 -0.0096  0.0841 -0.4481
  166loPI   C6A 2652  16.770  16.704   8.358  0.2415 -0.0813  0.0139
  166loPI   C1B 2653  16.612  16.659  10.082 -0.1830 -0.0651 -0.1168
  166loPI   C2B 2654  16.633  16.691   9.596 -0.2134  0.1125 -0.4006
  166loPI   C3B 2655  16.638  16.670   9.250 -0.0003 -0.0475  0.1524
  166loPI   C4B 2656  16.599  16.752   8.815 -0.1453  0.0762  0.2740
  167loPI    C1 2657  15.060  13.235  11.041 -0.0115  0.0671 -0.3395
  167loPI    C2 2658  14.667  13.276  11.102  0.0217 -0.0816  0.0018
  167loPI    C3 2659  14.927  13.437  11.360  0.1812 -0.1995 -0.0837
  167loPI   PO4 2660  15.039  13.369  10.766 -0.0951 -0.0893 -0.2182
  167loPI   GL1 2661  15.026  13.401  10.400  0.2826 -0.0391 -0.0188
  167loPI   GL2 2662  14.722  13.476  10.267  0.0564  0.0430  0.2548
  167loPI   C1A 2663  15.285  13.215  10.112 -0.0731 -0.2249  0.1559
  167loPI   C2A 2664  15.414  13.238   9.660  0.0157 -0.1640 -0.0084
  167loPI   C3A 2665  15.275  13.195   9.339 -0.0261 -0.2282 -0.0981
  167loPI   C4A 2666  15.263  13.168   8.983  0.2929  0.0285  0.1614
  167loPI   C5A 2667  15.389  13.284   8.608 -0.1153 -0.4104  0.0652
  167loPI   C6A 2668  15.300  13.395   8.220  0.0409 -0.1429  0.0848
  167loPI   C1B 2669  14.860  13.518   9.867  0.0774  0.0418  0.3628
  167loPI   C2B 2670  14.741  13.479   9.432  0.1017 -0.2279  0.2509
  167loPI   C3B 2671  14.794  13.430   8.952  0.1311  0.1822 -0.2105
  167loPI   C4B 2672  14.899  13.541   8.533 -0.0144  0.1222 -0.0427
  168loPI    C1 2673   9.090   6.179  10.060 -0.0435  0.0483  0.0965
  168loPI    C2 2674   9.235   5.853  10.241 -0.0119 -0.0594 -0.1202
  168loPI    C3 2675   9.381   6.214  10.334 -0.0661 -0.1025  0.1404
  168loPI   PO4 2676   9.119   6.057   9.807 -0.1304 -0.0234 -0.0289
  168loPI   GL1 2677   9.278   6.120   9.487 -0.1300 -0.1318 -0.0687
  168loPI   GL2 2678   9.600   6.216   9.435  0.1716  0.3515  0.1608
  168loPI   C1A 2679   9.326   6.033   9.082  0.1198 -0.2637 -0.0895
  168loPI   C2A 2680   9.181   6.060   8.691  0.1865  0.1274  0.0624
  168loPI   C3A 2681   9.399   5.843   8.385  0.2007  0.2926 -0.0547
  168loPI   C4A 2682   9.570   5.915   7.948  0.2600 -0.2191 -0.2158
  168loPI   C5A 2683   9.801   5.632   7.687  0.0169  0.0177 -0.0250
  168loPI   C6A 2684  10.238   5.378   7.530  0.0946 -0.0608  0.1910
  168loPI   C1B 2685   9.708   6.310   8.976  0.0908 -0.1472  0.3102
  168loPI   C2B 2686   9.670   6.319   8.551 -0.1134 -0.1593 -0.1003
  168loPI   C3B 2687   9.299   6.274   8.259  0.1581 -0.1011 -0.1000
  168loPI   C4B 2688   9.358   6.386   7.848 -0.4231  0.3414  0.3904
  169loPI    C1 2689  12.355  14.310  10.830  0.0348  0.0193  0.2534
  169loPI    C2 2690  12.257  13.961  10.663 -0.2512  0.0204  0.4119
  169loPI    C3 2691  12.475  13.968  10.998  0.0326  0.0081  0.2319
  169loPI   PO4 2692  12.078  14.543  10.645 -0.0742  0.0487 -0.0097
  169loPI   GL1 2693  11.975  14.400  10.312  0.2772  0.0907 -0.2390
  169loPI   GL2 2694  12.052  14.620  10.124  0.1613  0.0665 -0.2026
  169loPI   C1A 2695  12.056  14.073  10.041 -0.0521 -0.2348 -0.0539
  169loPI   C2A 2696  11.999  13.951   9.581  0.0605  0.0649 -0.0090
  169loPI   C3A 2697  12.157  14.005   9.248 -0.1527 -0.0078 -0.2493
  169loPI   C4A 2698  12.109  14.169   8.958  0.1006 -0.3237  0.0757
  169loPI   C5A 2699  12.094  14.139   8.545 -0.1992  0.1213  0.1862
  169loPI   C6A 2700  12.090  13.833   8.224  0.0867  0.0991 -0.2139
  169loPI   C1B 2701  12.119  14.573   9.692  0.2102 -0.0465 -0.0727
  169loPI   C2B 2702  12.074  14.554   9.280  0.0638 -0.3019 -0.1117
  169loPI   C3B 2703  12.112  14.608   8.785 -0.2981  0.1262  0.1601
  169loPI   C4B 2704  12.028  14.644   8.357 -0.1946  0.0510 -0.1755
  170loPI    C1 2705   0.290  15.762  11.017 -0.0099 -0.1432  0.1035
  170loPI    C2 2706  -0.038  15.557  11.119  0.0278 -0.1066  0.3033
  170loPI    C3 2707   0.156  15.774  11.394  0.2572 -0.1800  0.2019
  170loPI   PO4 2708   0.197  15.863  10.760  0.1329  0.3456 -0.0982
  170loPI   GL1 2709   0.112  16.018  10.386  0.0407 -0.0371  0.1881
  170loPI   GL2 2710  -0.231  15.902  10.265  0.0577 -0.3275  0.1415
  170loPI   C1A 2711   0.128  16.132   9.934 -0.1099  0.1400 -0.0629
  170loPI   C2A 2712   0.062  16.190   9.494  0.0113 -0.1270  0.1862
  170loPI   C3A 2713   0.133  16.143   9.024  0.2245  0.1304  0.0057
  170loPI   C4A 2714   0.051  16.058   8.600  0.3452  0.0340  0.0393
  170loPI   C5A 2715  -0.052  16.039   8.230  0.0216  0.0757  0.0372
  170loPI   C6A 2716  -0.079  16.144   7.835 -0.0245  0.0926 -0.0587
  170loPI   C1B 2717  -0.310  15.843   9.780  0.2524  0.0507 -0.1443
  170loPI   C2B 2718  -0.333  15.846   9.300  0.3207  0.0396 -0.1806
  170loPI   C3B 2719  -0.358  15.984   8.860  0.1778  0.4547  0.0279
  170loPI   C4B 2720  -0.356  15.760   8.512  0.0519 -0.0903 -0.0223
  171loPI    C1 2721  11.723   2.323  10.022  0.0967  0.1329 -0.1773
  171loPI    C2 2722  11.404   2.533  10.141  0.0033  0.0224 -0.2310
  171loPI    C3 2723  11.498   2.190  10.324 -0.0230 -0.0448 -0.3427
  171loPI   PO4 2724  11.930   2.425  10.011 -0.2082 -0.3160  0.2435
  171loPI   GL1 2725  12.125   2.538   9.628  0.0905 -0.1599 -0.0611
  171loPI   GL2 2726  12.398   2.360   9.593 -0.0239 -0.1228 -0.2478
  171loPI   C1A 2727  12.191   2.540   9.149 -0.1054 -0.1337 -0.2401
  171loPI   C2A 2728  12.106   2.592   8.842  0.0799 -0.0600 -0.1236
  171loPI   C3A 2729  12.175   2.495   8.499 -0.3037 -0.3717  0.4677
  171loPI   C4A 2730  12.026   2.448   8.099 -0.2268  0.2571  0.0756
  171loPI   C5A 2731  12.115   2.439   7.645 -0.0604  0.0090  0.1189
  171loPI   C6A 2732  12.066   2.361   7.203  0.0511 -0.1854  0.1704
  171loPI   C1B 2733  12.510   2.191   9.215 -0.0263 -0.1155  0.0473
  171loPI   C2B 2734  12.559   2.256   8.728 -0.1328  0.1812 -0.0227
  171loPI   C3B 2735  12.558   2.272   8.293 -0.0739 -0.3745  0.0196
  171loPI   C4B 2736  12.419   2.124   7.869  0.1138 -0.0105  0.0105
  172loPI    C1 2737   4.151  12.370  10.581  0.2995 -0.0907  0.1276
  172loPI    C2 2738   4.134  12.074  10.850 -0.3876 -0.2585 -0.0804
  172loPI    C3 2739   3.948  12.421  10.922  0.2520  0.0688  0.0766
  172loPI   PO4 2740   4.132  12.249  10.360  0.1687 -0.4274  0.3155
  172loPI   GL1 2741   4.307  12.316  10.065 -0.1078 -0.5604  0.1143
  172loPI   GL2 2742   4.595  12.318  10.055  0.0824  0.1141  0.1234
  172loPI   C1A 2743   4.337  12.179   9.642  0.2718  0.3440  0.1176
  172loPI   C2A 2744   4.337  12.167   9.206 -0.2481 -0.2219  0.1250
  172loPI   C3A 2745   4.165  12.245   8.809 -0.0724 -0.3515 -0.1276
  172loPI   C4A 2746   4.132  12.388   8.410  0.2615  0.1011  0.3065
  172loPI   C5A 2747   4.132  12.657   8.038  0.2672 -0.0231  0.0143
  172loPI   C6A 2748   4.088  12.952   7.715  0.0861  0.5053 -0.1903
  172loPI   C1B 2749   4.796  12.511   9.651  0.2152 -0.1335 -0.4513
  172loPI   C2B 2750   4.778  12.382   9.298  0.0111 -0.0607  0.2840
  172loPI   C3B 2751   4.653  12.352   8.901  0.1229 -0.1440 -0.1770
  172loPI   C4B 2752   4.637  12.531   8.584 -0.1006 -0.2982 -0.3201
  173loPI    C1 2753  16.582   4.931  11.043  0.5126  0.0499 -0.0382
  173loPI    C2 2754  16.914   4.752  11.177  0.2865 -0.1816  0.2252
  173loPI    C3 2755  16.590   4.534  11.091  0.1033  0.0715  0.2609
  173loPI   PO4 2756  16.726   5.115  10.903 -0.0673 -0.1275  0.1609
  173loPI   GL1 2757  16.896   5.364  10.546 -0.2879  0.1319  0.2066
  173loPI   GL2 2758  16.709   5.051  10.378 -0.0386 -0.1216  0.1504
  173loPI   C1A 2759  17.058   5.414  10.144 -0.0491  0.3482  0.1799
  173loPI   C2A 2760  17.074   5.470   9.707 -0.1224 -0.0373  0.0753
  173loPI   C3A 2761  17.066   5.482   9.278  0.3650 -0.1116  0.0311
  173loPI   C4A 2762  17.004   5.409   8.871  0.3621 -0.2397 -0.0295
  173loPI   C5A 2763  17.021   5.478   8.385  0.0043  0.2190 -0.0874
  173loPI   C6A 2764  17.451   5.522   8.085 -0.1220  0.0682 -0.0584
  173loPI   C1B 2765  16.681   5.137   9.907 -0.2807  0.1444 -0.0669
  173loPI   C2B 2766  16.679   5.163   9.399 -0.1086  0.0353 -0.2508
  173loPI   C3B 2767  16.530   5.228   9.000 -0.0777  0.1331 -0.0909
  173loPI   C4B 2768  16.593   5.226   8.529 -0.1221  0.2605 -0.2226
  174loPI    C1 2769   5.891   4.310  10.724  0.1204  0.1742  0.0901
  174loPI    C2 2770   6.093   4.000  10.878 -0.0319 -0.0313 -0.1162
  174loPI    C3 2771   5.775   4.147  11.071  0.0569  0.0157 -0.0042
  174loPI   PO4 2772   5.980   4.271  10.422 -0.1965 -0.2238  0.0281
  174loPI   GL1 2773   5.769   4.048  10.095 -0.0961  0.3004  0.1461
  174loPI   GL2 2774   5.627   4.129   9.952  0.0179 -0.2705 -0.0219
  174loPI   C1A 2775   5.791   3.726   9.701  0.1376 -0.1936 -0.2282
  174loPI   C2A 2776   5.583   3.609   9.217 -0.0132  0.0322 -0.1024
  174loPI   C3A 2777   5.602   3.609   8.771  0.0180 -0.0120 -0.3499
  174loPI   C4A 2778   5.402   3.449   8.448 -0.2765  0.0084  0.4249
  174loPI   C5A 2779   5.332   3.377   8.012 -0.0464 -0.0415 -0.2771
  174loPI   C6A 2780   5.218   3.511   7.652  0.2144  0.4359 -0.0185
  174loPI   C1B 2781   5.614   4.146   9.507 -0.2690  0.0625 -0.1580
  174loPI   C2B 2782   5.540   4.034   9.045 -0.1114  0.0097 -0.0846
  174loPI   C3B 2783   5.685   4.058   8.599 -0.0757 -0.0637 -0.3474
  174loPI   C4B 2784   5.561   3.854   8.231  0.0684  0.1325 -0.1673
  175loPI    C1 2785  14.549   7.966  10.830  0.0206  0.0046  0.0177
  175loPI    C2 2786  14.878   8.022  11.050  0.0782 -0.2468 -0.0003
  175loPI    C3 2787  14.525   8.159  11.179  0.1718 -0.0651  0.0676
  175loPI   PO4 2788  14.617   8.091  10.631  0.1390  0.2576  0.2391
  175loPI   GL1 2789  14.725   8.160  10.219  0.1244 -0.2123 -0.0852
  175loPI   GL2 2790  14.425   8.160  10.062 -0.4829  0.0319  0.0273
  175loPI   C1A 2791  14.853   8.264   9.794 -0.2466 -0.1506 -0.1144
  175loPI   C2A 2792  14.786   8.381   9.415  0.0785 -0.1446  0.2466
  175loPI   C3A 2793  14.787   8.308   8.994  0.0727 -0.3650 -0.3968
  175loPI   C4A 2794  14.727   8.331   8.578  0.0242 -0.0508 -0.0174
  175loPI   C5A 2795  14.760   8.318   8.148 -0.1795  0.0860 -0.0099
  175loPI   C6A 2796  14.831   8.726   7.940  0.1883 -0.2217  0.1801
  175loPI   C1B 2797  14.410   8.125   9.728  0.1182 -0.1026  0.1205
  175loPI   C2B 2798  14.362   8.128   9.315 -0.1240 -0.3142  0.2603
  175loPI   C3B 2799  14.431   8.002   8.857 -0.0375 -0.3616 -0.2077
  175loPI   C4B 2800  14.425   8.024   8.428  0.2273  0.0379 -0.0262
  176loPI    C1 2801   4.184  11.280  10.585 -0.1351  0.0877 -0.1715
  176loPI    C2 2802   4.215  10.951  10.809  0.1152  0.1616 -0.0950
  176loPI    C3 2803   3.867  11.147  10.789 -0.0251 -0.0853 -0.1122
  176loPI   PO4 2804   4.255  11.157  10.309  0.0454 -0.1232 -0.1682
  176loPI   GL1 2805   4.368  11.256   9.935  0.1012 -0.0810 -0.1027
  176loPI   GL2 2806   4.140  10.906   9.909 -0.4564 -0.1351 -0.0816
  176loPI   C1A 2807   4.397  11.199   9.517  0.1411  0.1609  0.0067
  176loPI   C2A 2808   4.288  11.210   9.078  0.2274 -0.2923 -0.0435
  176loPI   C3A 2809   4.098  11.212   8.593  0.2336 -0.0385  0.0277
  176loPI   C4A 2810   4.110  11.410   8.158 -0.1217 -0.3748  0.0646
  176loPI   C5A 2811   3.841  11.362   7.927  0.1239  0.0314 -0.1172
  176loPI   C6A 2812   3.778  10.969   7.820 -0.1168 -0.2497 -0.1704
  176loPI   C1B 2813   3.829  10.940   9.493  0.2545 -0.3397 -0.3150
  176loPI   C2B 2814   3.720  10.880   9.127  0.1074 -0.0234  0.2343
  176loPI   C3B 2815   3.635  10.990   8.607  0.0898 -0.0085 -0.0743
  176loPI   C4B 2816   3.404  10.927   8.175  0.1107  0.0590 -0.0554
  177loPI    C1 2817  15.521  10.489  10.827 -0.1144 -0.1281 -0.0868
  177loPI    C2 2818  15.733  10.246  11.063  0.1242  0.1474 -0.0115
  177loPI    C3 2819  15.467  10.499  11.223 -0.1150 -0.0508 -0.0886
  177loPI   PO4 2820  15.671  10.504  10.582  0.2212  0.1740 -0.0857
  177loPI   GL1 2821  15.681  10.389  10.276 -0.1265 -0.0941  0.0387
  177loPI   GL2 2822  16.039  10.215  10.318  0.2019 -0.2759 -0.0510
  177loPI   C1A 2823  15.815  10.497   9.872 -0.0187  0.1010  0.0961
  177loPI   C2A 2824  15.718  10.407   9.413 -0.2176  0.0942  0.0341
  177loPI   C3A 2825  15.659  10.474   9.026 -0.0018  0.6034  0.1346
  177loPI   C4A 2826  15.534  10.396   8.594 -0.2464 -0.1583 -0.1592
  177loPI   C5A 2827  15.655  10.241   8.148 -0.3047 -0.0796 -0.0194
  177loPI   C6A 2828  15.771   9.911   7.909 -0.0230  0.1436 -0.2157
  177loPI   C1B 2829  16.180  10.191   9.961  0.1939  0.1693  0.2129
  177loPI   C2B 2830  16.160  10.210   9.425 -0.0621 -0.1500 -0.0884
  177loPI   C3B 2831  16.001  10.151   9.038  0.0393 -0.2299 -0.0348
  177loPI   C4B 2832  16.002  10.162   8.539  0.0603 -0.1051 -0.1895
  178loPI    C1 2833  16.903   8.419  10.997 -0.3472  0.1150 -0.0317
  178loPI    C2 2834  16.513   8.488  11.053 -0.3134  0.2340  0.0615
  178loPI    C3 2835  16.766   8.507  11.362 -0.2805 -0.1709  0.0641
  178loPI   PO4 2836  16.954   8.553  10.805  0.5639  0.1988 -0.0587
  178loPI   GL1 2837  16.998   8.573  10.428  0.0379 -0.0084  0.0579
  178loPI   GL2 2838  17.327   8.315  10.496  0.0554 -0.1044 -0.3164
  178loPI   C1A 2839  17.041   8.570  10.033  0.1278  0.0833  0.1858
  178loPI   C2A 2840  17.026   8.562   9.580  0.0951 -0.3117  0.0541
  178loPI   C3A 2841  17.014   8.572   9.249 -0.0343  0.0892  0.1359
  178loPI   C4A 2842  16.985   8.609   8.861  0.1357  0.2424  0.0890
  178loPI   C5A 2843  17.037   8.414   8.534  0.1136  0.0804  0.1440
  178loPI   C6A 2844  16.930   8.576   8.110  0.3935  0.0047  0.2907
  178loPI   C1B 2845  17.501   8.288  10.030  0.1977 -0.0268  0.1589
  178loPI   C2B 2846  17.512   8.381   9.593 -0.3009 -0.2500 -0.1924
  178loPI   C3B 2847  17.428   8.341   9.207 -0.0197 -0.0728  0.2010
  178loPI   C4B 2848  17.376   8.259   8.816 -0.2287  0.0119 -0.4065
  179loPI    C1 2849  17.589   6.826  11.077 -0.0036  0.1533  0.0856
  179loPI    C2 2850  17.428   7.189  11.128 -0.1991  0.0705  0.0679
  179loPI    C3 2851  17.468   6.942  11.441 -0.1023  0.0920  0.0728
  179loPI   PO4 2852  17.877   6.794  10.983  0.0311 -0.0879  0.1053
  179loPI   GL1 2853  17.965   6.536  10.646 -0.0092  0.1126  0.2120
  179loPI   GL2 2854  17.652   6.522  10.475  0.0408 -0.1028 -0.2633
  179loPI   C1A 2855  17.960   6.183  10.227 -0.2034 -0.0605  0.3679
  179loPI   C2A 2856  18.041   5.959   9.907 -0.0107 -0.0572  0.1855
  179loPI   C3A 2857  17.954   5.915   9.529  0.2591  0.0472  0.3713
  179loPI   C4A 2858  18.019   5.953   9.098 -0.0216 -0.0857  0.0775
  179loPI   C5A 2859  17.883   5.875   8.675  0.2124 -0.0442  0.0023
  179loPI   C6A 2860  17.916   5.807   8.217  0.1605  0.0435  0.1264
  179loPI   C1B 2861  17.604   6.664  10.061  0.0245  0.2496  0.3926
  179loPI   C2B 2862  17.556   6.784   9.691 -0.1430 -0.1021 -0.2924
  179loPI   C3B 2863  17.544   6.717   9.148 -0.1896  0.1638  0.0785
  179loPI   C4B 2864  17.554   6.688   8.655  0.0530 -0.0021 -0.0685
  180loPI    C1 2865  13.146   7.674  10.324  0.0598 -0.0952  0.1148
  180loPI    C2 2866  13.007   7.808  10.674  0.0837  0.0711  0.0615
  180loPI    C3 2867  12.762   7.781  10.360  0.0151 -0.2614  0.1401
  180loPI   PO4 2868  13.347   7.470  10.256  0.2832 -0.0784  0.0492
  180loPI   GL1 2869  13.370   7.400   9.893  0.1361 -0.1357  0.0562
  180loPI   GL2 2870  13.182   7.094   9.749  0.0105 -0.0536  0.2805
  180loPI   C1A 2871  13.506   7.517   9.412 -0.0731 -0.0616 -0.1379
  180loPI   C2A 2872  13.475   7.606   8.905 -0.0460 -0.0310 -0.2965
  180loPI   C3A 2873  13.523   7.466   8.455 -0.0132 -0.0540  0.0767
  180loPI   C4A 2874  13.417   7.602   8.083 -0.1164  0.0969  0.1978
  180loPI   C5A 2875  13.017   7.640   7.809  0.0755  0.0024 -0.1825
  180loPI   C6A 2876  12.747   7.950   7.853 -0.2262 -0.3536 -0.1217
  180loPI   C1B 2877  13.251   7.034   9.313 -0.1749  0.0774 -0.1088
  180loPI   C2B 2878  13.438   7.022   8.940 -0.0934  0.3074 -0.0898
  180loPI   C3B 2879  13.273   6.936   8.498  0.1284 -0.0902  0.2588
  180loPI   C4B 2880  13.361   7.012   8.060  0.1587  0.0539 -0.2151
  181loPI    C1 2881   4.829  14.089  10.703  0.1858 -0.2268  0.1226
  181loPI    C2 2882   5.027  14.005  10.366  0.4300  0.0633  0.1892
  181loPI    C3 2883   4.928  13.711  10.618  0.5508 -0.1149  0.0316
  181loPI   PO4 2884   4.618  14.168  10.691  0.3756  0.3132 -0.1039
  181loPI   GL1 2885   4.385  14.089  10.345 -0.3709  0.2346  0.1668
  181loPI   GL2 2886   4.203  14.225  10.165  0.2936  0.1810  0.1094
  181loPI   C1A 2887   4.569  13.986   9.845 -0.0688 -0.2408 -0.1747
  181loPI   C2A 2888   4.491  13.931   9.493 -0.2487  0.1179  0.4572
  181loPI   C3A 2889   4.723  14.097   9.092  0.3515  0.1129 -0.2282
  181loPI   C4A 2890   4.641  14.075   8.707 -0.0807  0.0250  0.2639
  181loPI   C5A 2891   4.548  14.008   8.161 -0.0098 -0.2688 -0.3667
  181loPI   C6A 2892   4.386  13.823   7.788 -0.1928 -0.1336  0.0376
  181loPI   C1B 2893   4.275  14.344   9.710 -0.0590 -0.2715  0.4632
  181loPI   C2B 2894   4.348  14.349   9.256  0.1034 -0.0816  0.1126
  181loPI   C3B 2895   4.240  14.284   8.832  0.2994 -0.0407  0.2427
  181loPI   C4B 2896   4.155  14.258   8.374  0.1670  0.0625  0.0823
  182loPI    C1 2897  17.634   3.461  11.071 -0.0700  0.0094 -0.0339
  182loPI    C2 2898  17.407   3.272  11.340  0.0227 -0.2045 -0.1045
  182loPI    C3 2899  17.782   3.150  11.273  0.0520 -0.0537 -0.2181
  182loPI   PO4 2900  17.473   3.458  10.835  0.0042  0.0541 -0.3936
  182loPI   GL1 2901  17.369   3.330  10.451  0.1161  0.0363  0.1048
  182loPI   GL2 2902  16.989   3.432  10.242 -0.3217 -0.0035  0.1435
  182loPI   C1A 2903  17.471   3.181  10.017  0.0033  0.1821  0.2053
  182loPI   C2A 2904  17.399   3.171   9.607 -0.0487 -0.1667 -0.1386
  182loPI   C3A 2905  17.378   3.122   9.258 -0.0225  0.2107  0.1706
  182loPI   C4A 2906  17.478   3.071   8.870 -0.0474  0.1814  0.0343
  182loPI   C5A 2907  17.546   3.218   8.484 -0.3147 -0.0937 -0.1368
  182loPI   C6A 2908  17.315   3.058   8.168  0.1917  0.1649 -0.1613
  182loPI   C1B 2909  16.973   3.353   9.823 -0.0037 -0.1613 -0.3751
  182loPI   C2B 2910  16.975   3.399   9.379 -0.1837  0.0499  0.3528
  182loPI   C3B 2911  17.029   3.306   8.942  0.0992  0.1148  0.3679
  182loPI   C4B 2912  17.016   3.271   8.542 -0.3344  0.2064  0.0234
  183loPI    C1 2913  13.225  16.132  11.088 -0.0147  0.1477  0.3767
  183loPI    C2 2914  12.893  15.914  11.039  0.1017  0.0589 -0.0601
  183loPI    C3 2915  13.054  15.955  11.403 -0.2143 -0.1496  0.1079
  183loPI   PO4 2916  13.381  16.029  10.844  0.1178 -0.0792 -0.2544
  183loPI   GL1 2917  13.289  15.994  10.470 -0.2115 -0.0479 -0.0135
  183loPI   GL2 2918  13.037  15.804  10.499  0.0317  0.0042 -0.1826
  183loPI   C1A 2919  13.406  15.967   9.943 -0.1925 -0.0660 -0.0688
  183loPI   C2A 2920  13.380  15.873   9.560 -0.0015 -0.1226  0.3586
  183loPI   C3A 2921  13.410  15.893   9.095 -0.1074 -0.1411 -0.4372
  183loPI   C4A 2922  13.432  15.815   8.659 -0.2377 -0.0189  0.1902
  183loPI   C5A 2923  13.468  15.856   8.319 -0.0246 -0.0946  0.0493
  183loPI   C6A 2924  13.212  15.820   7.885  0.0573 -0.4379  0.0507
  183loPI   C1B 2925  12.954  15.790  10.065 -0.1023  0.1592  0.1125
  183loPI   C2B 2926  12.922  15.725   9.712 -0.1794 -0.1333 -0.2026
  183loPI   C3B 2927  12.996  15.593   9.243 -0.1417 -0.1191 -0.2560
  183loPI   C4B 2928  12.988  15.711   8.853 -0.1643  0.6885  0.0424
  184loPI    C1 2929  11.448   7.202  10.575 -0.0502  0.3759 -0.0568
  184loPI    C2 2930  11.092   7.096  10.724 -0.2428  0.4965 -0.4179
  184loPI    C3 2931  11.419   7.080  10.955 -0.3371 -0.4164 -0.3115
  184loPI   PO4 2932  11.560   7.133  10.313 -0.0539 -0.0601  0.1373
  184loPI   GL1 2933  11.588   7.363   9.983  0.4695  0.0619 -0.0121
  184loPI   GL2 2934  11.330   7.542  10.067  0.4040 -0.1699 -0.0316
  184loPI   C1A 2935  11.591   7.446   9.621 -0.1156 -0.2883  0.0445
  184loPI   C2A 2936  11.597   7.467   9.206  0.3128 -0.1600 -0.3397
  184loPI   C3A 2937  11.814   7.348   8.832  0.0544  0.1993  0.0331
  184loPI   C4A 2938  11.998   7.258   8.490 -0.0576  0.0984 -0.0259
  184loPI   C5A 2939  12.081   7.282   8.128 -0.0776 -0.1128  0.0147
  184loPI   C6A 2940  12.222   7.133   7.722 -0.0114  0.1426 -0.0790
  184loPI   C1B 2941  11.293   7.794   9.812  0.4895 -0.2245 -0.2248
  184loPI   C2B 2942  11.176   7.867   9.338  0.0934  0.1073  0.2126
  184loPI   C3B 2943  11.184   7.888   8.897  0.1608  0.1441  0.0018
  184loPI   C4B 2944  11.079   7.868   8.544 -0.0992  0.0517  0.3158
  185loPI    C1 2945   5.794   8.003  10.633  0.1461 -0.1257 -0.0973
  185loPI    C2 2946   5.506   8.013  10.355 -0.0114 -0.1759  0.0616
  185loPI    C3 2947   5.413   7.939  10.737  0.2209 -0.2533  0.1052
  185loPI   PO4 2948   5.985   7.849  10.522  0.2815  0.1770 -0.1398
  185loPI   GL1 2949   6.117   7.800  10.133  0.1164  0.1841  0.0146
  185loPI   GL2 2950   6.511   7.822  10.119  0.0301 -0.0434  0.0006
  185loPI   C1A 2951   6.168   7.954   9.644  0.1067 -0.0331  0.2678
  185loPI   C2A 2952   6.107   7.982   9.189 -0.3700 -0.1168  0.1656
  185loPI   C3A 2953   5.983   8.023   8.788 -0.4479  0.1035 -0.2758
  185loPI   C4A 2954   6.060   8.099   8.325 -0.0214  0.0332  0.3521
  185loPI   C5A 2955   5.838   7.953   8.024  0.0554 -0.4600  0.5008
  185loPI   C6A 2956   5.441   7.900   7.821  0.0696  0.0129  0.0829
  185loPI   C1B 2957   6.563   7.739   9.807  0.0997 -0.1266  0.0257
  185loPI   C2B 2958   6.532   7.693   9.374 -0.0305  0.1213 -0.0947
  185loPI   C3B 2959   6.519   7.664   8.996  0.3840 -0.1316 -0.3011
  185loPI   C4B 2960   6.434   7.856   8.620  0.1815 -0.0007 -0.0021
  186loPI    C1 2961   8.500  10.429  10.993  0.2003 -0.2316 -0.0802
  186loPI    C2 2962   8.813  10.287  11.197  0.3013  0.1180  0.0157
  186loPI    C3 2963   8.698  10.667  11.247 -0.1384 -0.0048 -0.0213
  186loPI   PO4 2964   8.523  10.420  10.730  0.1262 -0.2038 -0.2112
  186loPI   GL1 2965   8.430  10.631  10.323  0.0686  0.1323 -0.3247
  186loPI   GL2 2966   8.683  10.756  10.278 -0.0548 -0.0785  0.0468
  186loPI   C1A 2967   8.524  10.373   9.960 -0.2778  0.0610  0.0484
  186loPI   C2A 2968   8.466  10.347   9.544 -0.2123  0.1006 -0.1193
  186loPI   C3A 2969   8.506  10.355   9.181  0.2295  0.0216  0.0245
  186loPI   C4A 2970   8.399  10.348   8.743  0.1408 -0.0955 -0.1321
  186loPI   C5A 2971   8.363  10.505   8.357  0.0914  0.1953  0.1957
  186loPI   C6A 2972   8.256  10.574   7.943  0.0447  0.1064 -0.3086
  186loPI   C1B 2973   8.521  10.818   9.826  0.1428 -0.0225  0.1270
  186loPI   C2B 2974   8.427  10.844   9.430 -0.1150 -0.4511  0.1199
  186loPI   C3B 2975   8.529  10.855   9.078  0.0565  0.1951  0.2393
  186loPI   C4B 2976   8.331  10.904   8.740 -0.0203  0.0617 -0.0646
  187loPI    C1 2977  15.849   0.203  10.764  0.1396 -0.2792 -0.1234
  187loPI    C2 2978  16.023   0.220  11.124  0.0712  0.1084 -0.1052
  187loPI    C3 2979  16.245   0.155  10.797  0.1394 -0.2004 -0.0005
  187loPI   PO4 2980  15.730   0.419  10.746 -0.1126 -0.3825  0.1262
  187loPI   GL1 2981  16.014   0.598  10.379 -0.0106  0.2409  0.0287
  187loPI   GL2 2982  15.746   0.631  10.334 -0.2375  0.0227  0.0484
  187loPI   C1A 2983  16.133   0.712   9.969 -0.2276  0.1095 -0.0875
  187loPI   C2A 2984  16.049   0.720   9.600  0.1303  0.1973  0.0942
  187loPI   C3A 2985  16.039   0.671   9.192 -0.0055  0.0599 -0.2195
  187loPI   C4A 2986  16.224   0.777   8.752  0.3743  0.1689 -0.0006
  187loPI   C5A 2987  16.157   0.693   8.412  0.1922 -0.1477 -0.1365
  187loPI   C6A 2988  15.772   0.519   8.203 -0.1391 -0.2154  0.0651
  187loPI   C1B 2989  15.649   0.535   9.937 -0.2836 -0.1471 -0.1204
  187loPI   C2B 2990  15.605   0.475   9.441  0.2649  0.3599  0.2062
  187loPI   C3B 2991  15.623   0.326   9.134 -0.0557  0.2972  0.0072
  187loPI   C4B 2992  15.700   0.530   8.751 -0.3848  0.0936 -0.1620
  188loPI    C1 2993   2.761   8.221  10.526  0.0779 -0.0905  0.0945
  188loPI    C2 2994   2.580   8.350  10.859 -0.1171 -0.4004  0.1128
  188loPI    C3 2995   2.973   8.276  10.860  0.0110  0.2278  0.0878
  188loPI   PO4 2996   2.690   8.333  10.318 -0.5058 -0.1145  0.1501
  188loPI   GL1 2997   2.429   8.535   9.936 -0.1966  0.1004  0.0495
  188loPI   GL2 2998   2.401   8.152   9.918 -0.0337  0.3288 -0.3250
  188loPI   C1A 2999   2.398   8.629   9.553 -0.0947 -0.0261  0.0899
  188loPI   C2A 3000   2.283   8.697   9.157  0.2191 -0.2600 -0.0495
  188loPI   C3A 3001   2.218   8.614   8.808 -0.0934  0.0526 -0.0217
  188loPI   C4A 3002   2.293   8.574   8.443 -0.0971 -0.2578  0.1422
  188loPI   C5A 3003   2.266   8.537   8.011 -0.2246 -0.1395  0.2336
  188loPI   C6A 3004   2.176   8.758   7.545 -0.1366  0.4381 -0.2320
  188loPI   C1B 3005   2.489   8.001   9.440 -0.0782  0.1162 -0.0035
  188loPI   C2B 3006   2.350   7.930   9.047  0.2146 -0.1055 -0.1260
  188loPI   C3B 3007   2.233   8.169   8.639 -0.0987  0.2679  0.1478
  188loPI   C4B 3008   2.164   8.122   8.282 -0.2040  0.1657 -0.0168
  189loPI    C1 3009  11.797  11.970  10.806 -0.0720  0.0857 -0.2116
  189loPI    C2 3010  11.439  11.940  10.983  0.0263 -0.0163 -0.0266
  189loPI    C3 3011  11.617  12.297  10.949  0.2022 -0.0488  0.4778
  189loPI   PO4 3012  11.825  11.813  10.584 -0.0198  0.1431 -0.1237
  189loPI   GL1 3013  11.612  11.949  10.127  0.1380  0.1062  0.1392
  189loPI   GL2 3014  11.610  11.678  10.152  0.2044  0.5772 -0.2210
  189loPI   C1A 3015  11.654  12.162   9.684 -0.1821 -0.2259 -0.1105
  189loPI   C2A 3016  11.657  12.300   9.297 -0.1008  0.2672 -0.2806
  189loPI   C3A 3017  11.612  12.268   8.969  0.0618  0.1851  0.1657
  189loPI   C4A 3018  11.629  12.265   8.607  0.1110 -0.1170 -0.1532
  189loPI   C5A 3019  11.865  12.091   8.224  0.2108  0.2270  0.0082
  189loPI   C6A 3020  12.198  12.055   7.884 -0.0087  0.1570 -0.1922
  189loPI   C1B 3021  11.544  11.564   9.731  0.2136 -0.2380  0.2288
  189loPI   C2B 3022  11.561  11.587   9.359  0.0286  0.0663 -0.1615
  189loPI   C3B 3023  11.557  11.679   8.939 -0.3201 -0.0522  0.0212
  189loPI   C4B 3024  11.529  11.831   8.528  0.2938 -0.1459 -0.1384
  190loPI    C1 3025  16.921   3.270  11.112 -0.2645 -0.1547 -0.0669
  190loPI    C2 3026  16.607   3.161  11.335 -0.0825 -0.3189  0.1135
  190loPI    C3 3027  16.940   2.939  11.336 -0.0043 -0.2078 -0.1634
  190loPI   PO4 3028  16.914   3.308  10.879 -0.0338  0.1760 -0.0673
  190loPI   GL1 3029  16.591   3.417  10.548 -0.0831 -0.1415 -0.1436
  190loPI   GL2 3030  16.602   3.718  10.415  0.1803  0.0318  0.4250
  190loPI   C1A 3031  16.533   3.144  10.275 -0.1193 -0.3758 -0.0724
  190loPI   C2A 3032  16.573   3.047   9.907  0.1014  0.2695  0.0588
  190loPI   C3A 3033  16.485   2.995   9.477 -0.0596 -0.2494 -0.0163
  190loPI   C4A 3034  16.619   3.068   9.070  0.2832  0.0269  0.3515
  190loPI   C5A 3035  16.601   2.989   8.652 -0.2769 -0.0616 -0.0684
  190loPI   C6A 3036  16.718   2.971   8.243 -0.0637 -0.2222  0.2271
  190loPI   C1B 3037  16.442   3.590   9.989 -0.1975  0.0380  0.1307
  190loPI   C2B 3038  16.545   3.514   9.538 -0.1517 -0.0031 -0.1431
  190loPI   C3B 3039  16.564   3.528   9.061  0.0293  0.2515  0.0704
  190loPI   C4B 3040  16.586   3.484   8.561 -0.1749  0.0589 -0.1028
  191loPI    C1 3041   2.269  12.987  10.646  0.0088  0.1434  0.1490
  191loPI    C2 3042   2.387  12.619  10.750  0.0669  0.0713 -0.1623
  191loPI    C3 3043   2.351  12.903  11.029  0.2593 -0.1039  0.0452
  191loPI   PO4 3044   2.077  12.930  10.394 -0.2034 -0.2877  0.0257
  191loPI   GL1 3045   1.982  12.662  10.172 -0.0008 -0.4875  0.0192
  191loPI   GL2 3046   1.962  12.388  10.215 -0.1749 -0.0551 -0.0638
  191loPI   C1A 3047   2.009  12.498   9.714  0.0954 -0.0221  0.0830
  191loPI   C2A 3048   1.930  12.508   9.243  0.2289 -0.0635 -0.4155
  191loPI   C3A 3049   1.814  12.537   8.760  0.0757  0.2694  0.1420
  191loPI   C4A 3050   1.896  12.417   8.273 -0.3244 -0.0115 -0.0215
  191loPI   C5A 3051   1.696  12.262   7.930 -0.1809  0.0339  0.1619
  191loPI   C6A 3052   1.632  12.553   7.534 -0.1748  0.0558  0.1043
  191loPI   C1B 3053   1.939  12.040   9.998  0.2121 -0.4156  0.2585
  191loPI   C2B 3054   1.930  11.941   9.557 -0.1673 -0.1785 -0.2112
  191loPI   C3B 3055   1.902  11.969   9.154 -0.1596 -0.4102  0.2539
  191loPI   C4B 3056   1.876  11.890   8.772  0.1497 -0.1176  0.1587
  192loPI    C1 3057  15.718   0.755  11.130 -0.0382 -0.1059  0.0436
  192loPI    C2 3058  15.772   0.863  11.511 -0.0179  0.0122  0.0073
  192loPI    C3 3059  16.074   0.892  11.250 -0.0804  0.0938 -0.0563
  192loPI   PO4 3060  15.499   0.895  10.985 -0.2168  0.3684  0.1192
  192loPI   GL1 3061  15.323   0.869  10.502  0.3087 -0.1340 -0.0673
  192loPI   GL2 3062  15.574   1.145  10.487  0.1093 -0.1298 -0.2210
  192loPI   C1A 3063  15.189   0.613  10.180  0.0027  0.0561 -0.3398
  192loPI   C2A 3064  15.228   0.734   9.766 -0.1009  0.3722  0.0352
  192loPI   C3A 3065  15.213   0.740   9.321 -0.1718 -0.0984 -0.2747
  192loPI   C4A 3066  15.241   0.594   8.904 -0.1934 -0.0734 -0.1170
  192loPI   C5A 3067  15.249   0.714   8.489  0.2522 -0.3652 -0.0056
  192loPI   C6A 3068  14.879   0.797   8.179 -0.4332 -0.2843  0.2711
  192loPI   C1B 3069  15.490   1.047  10.069 -0.0495  0.2612 -0.0601
  192loPI   C2B 3070  15.609   0.977   9.591  0.0256 -0.1807  0.1052
  192loPI   C3B 3071  15.615   0.979   9.118 -0.2089 -0.3160  0.0779
  192loPI   C4B 3072  15.776   1.002   8.815  0.2670  0.0406  0.3937
  193loPI    C1 3073   2.760  13.595  10.367 -0.1236 -0.1435 -0.0199
  193loPI    C2 3074   2.600  13.415  10.687  0.1105 -0.0633  0.1452
  193loPI    C3 3075   2.995  13.480  10.670  0.0913 -0.0064 -0.1316
  193loPI   PO4 3076   2.678  13.536  10.065 -0.4419  0.0333  0.0526
  193loPI   GL1 3077   2.829  13.567   9.739  0.0308 -0.0757  0.0297
  193loPI   GL2 3078   3.149  13.712   9.708  0.1210  0.0505 -0.1516
  193loPI   C1A 3079   2.773  13.478   9.341 -0.1780  0.2805  0.4122
  193loPI   C2A 3080   2.746  13.444   8.942  0.2486 -0.0326 -0.0030
  193loPI   C3A 3081   2.801  13.523   8.498  0.2898  0.0528 -0.0371
  193loPI   C4A 3082   2.841  13.560   8.114  0.1951 -0.2994 -0.1852
  193loPI   C5A 3083   2.751  13.879   7.701 -0.2640 -0.2465 -0.1079
  193loPI   C6A 3084   2.848  13.986   7.302 -0.1375  0.0024 -0.3291
  193loPI   C1B 3085   3.217  13.685   9.273  0.1646 -0.1673 -0.2409
  193loPI   C2B 3086   3.161  13.760   8.816  0.2554  0.0352 -0.1604
  193loPI   C3B 3087   3.303  13.805   8.358  0.2993  0.0231 -0.1801
  193loPI   C4B 3088   3.231  14.024   7.948 -0.1798 -0.2159  0.0690
  194loPI    C1 3089   7.081   7.039  10.522 -0.3277 -0.2983 -0.1623
  194loPI    C2 3090   7.046   7.008  10.919  0.1844  0.0279 -0.0823
  194loPI    C3 3091   6.827   7.277  10.719 -0.0336 -0.0986 -0.0167
  194loPI   PO4 3092   6.956   6.849  10.410 -0.2003  0.1726 -0.1386
  194loPI   GL1 3093   6.894   6.644  10.022 -0.0298  0.0435 -0.0805
  194loPI   GL2 3094   6.560   6.557   9.953  0.0453 -0.2452 -0.0616
  194loPI   C1A 3095   7.198   6.765   9.762 -0.0847  0.1806 -0.0097
  194loPI   C2A 3096   7.105   6.944   9.275  0.1379 -0.0351 -0.6907
  194loPI   C3A 3097   6.971   7.048   8.788  0.0688  0.0227  0.1635
  194loPI   C4A 3098   6.743   6.961   8.410  0.0421  0.0606 -0.1880
  194loPI   C5A 3099   6.827   6.688   8.030  0.0078  0.1433  0.0159
  194loPI   C6A 3100   6.592   6.546   7.677  0.0763  0.0005  0.2194
  194loPI   C1B 3101   6.671   6.715   9.556 -0.0186 -0.0758 -0.1817
  194loPI   C2B 3102   6.698   6.793   9.075 -0.1929  0.3241  0.1296
  194loPI   C3B 3103   6.410   6.679   8.746  0.1484  0.0148  0.0011
  194loPI   C4B 3104   6.381   6.600   8.310 -0.3321 -0.2752  0.1360
  195loPI    C1 3105   5.715  16.545  10.608  0.0368 -0.3226 -0.0689
  195loPI    C2 3106   5.850  16.406  10.958 -0.1763 -0.1365  0.0908
  195loPI    C3 3107   5.500  16.277  10.814 -0.1294 -0.1488 -0.0134
  195loPI   PO4 3108   5.866  16.547  10.454 -0.1887 -0.0548 -0.2084
  195loPI   GL1 3109   5.900  16.488  10.145  0.0866  0.0250  0.0703
  195loPI   GL2 3110   5.685  16.496   9.867 -0.2123 -0.1016  0.2866
  195loPI   C1A 3111   6.178  16.469   9.731  0.0752 -0.1116 -0.3146
  195loPI   C2A 3112   6.133  16.490   9.330  0.4330  0.1380  0.1086
  195loPI   C3A 3113   6.092  16.497   8.949  0.0004  0.0903 -0.0440
  195loPI   C4A 3114   6.037  16.402   8.492  0.1143  0.2961  0.1342
  195loPI   C5A 3115   6.130  16.365   8.060 -0.1181  0.3033 -0.0609
  195loPI   C6A 3116   6.042  16.380   7.648 -0.1273  0.0498  0.0374
  195loPI   C1B 3117   5.669  16.662   9.560 -0.0969 -0.1536 -0.0661
  195loPI   C2B 3118   5.626  16.683   9.097 -0.0115  0.1047  0.4648
  195loPI   C3B 3119   5.669  16.631   8.727  0.0649  0.1092  0.0176
  195loPI   C4B 3120   5.587  16.611   8.312 -0.1931  0.0140 -0.2575
  196loPI    C1 3121  12.204  12.868  10.808  0.0702  0.3728 -0.1890
  196loPI    C2 3122  12.381  13.020  10.483  0.1219  0.1641 -0.2599
  196loPI    C3 3123  12.602  12.854  10.772  0.0557  0.0861 -0.2541
  196loPI   PO4 3124  11.918  12.771  10.620 -0.0481  0.1193 -0.2625
  196loPI   GL1 3125  11.760  12.835  10.239  0.0438 -0.0383 -0.1218
  196loPI   GL2 3126  12.088  12.632  10.177  0.2179 -0.3325 -0.2031
  196loPI   C1A 3127  11.622  12.646   9.852  0.1726 -0.1236 -0.2300
  196loPI   C2A 3128  11.541  12.725   9.473 -0.1111 -0.0317  0.1035
  196loPI   C3A 3129  11.508  12.748   8.944 -0.1753 -0.0613 -0.2672
  196loPI   C4A 3130  11.598  12.755   8.506 -0.3813  0.2086  0.4530
  196loPI   C5A 3131  11.354  12.516   8.195 -0.0713  0.4660 -0.1028
  196loPI   C6A 3132  11.014  12.520   7.844 -0.3089  0.0400 -0.1106
  196loPI   C1B 3133  12.091  12.467   9.842 -0.2545  0.0205  0.0415
  196loPI   C2B 3134  12.124  12.421   9.348 -0.0774  0.0118  0.2519
  196loPI   C3B 3135  12.056  12.398   8.865 -0.1613  0.1022  0.1006
  196loPI   C4B 3136  12.035  12.509   8.497 -0.2063 -0.0357  0.0645
  197loPI    C1 3137   3.538   0.354  10.839  0.0578  0.0356  0.1328
  197loPI    C2 3138   3.444   0.340  10.451  0.1415 -0.1310  0.1175
  197loPI    C3 3139   3.182   0.488  10.714  0.1657  0.1763 -0.0267
  197loPI   PO4 3140   3.785   0.439  10.818  0.1595  0.0152 -0.0951
  197loPI   GL1 3141   3.848   0.697  10.429  0.1851  0.0472 -0.0112
  197loPI   GL2 3142   4.039   0.333  10.286 -0.1160  0.1251 -0.0515
  197loPI   C1A 3143   3.847   1.035  10.112  0.0303 -0.1384  0.0740
  197loPI   C2A 3144   3.813   0.944   9.712 -0.1408  0.1714 -0.1461
  197loPI   C3A 3145   3.743   0.953   9.284  0.1252  0.2831 -0.0636
  197loPI   C4A 3146   3.735   0.950   8.863 -0.0421 -0.3184  0.1888
  197loPI   C5A 3147   3.626   0.834   8.467 -0.0426 -0.1097  0.2779
  197loPI   C6A 3148   3.423   0.834   8.066 -0.0828 -0.2394  0.2446
  197loPI   C1B 3149   3.823   0.418   9.833  0.0304 -0.1645  0.1135
  197loPI   C2B 3150   3.753   0.386   9.477 -0.1710  0.1673  0.2949
  197loPI   C3B 3151   3.726   0.438   9.022  0.2709 -0.3291  0.0890
  197loPI   C4B 3152   3.815   0.365   8.621  0.0224 -0.1482 -0.0649
  198loPI    C1 3153  16.813  14.336  10.779 -0.2713 -0.1410 -0.1079
  198loPI    C2 3154  16.418  14.400  10.775 -0.2219  0.1977  0.0790
  198loPI    C3 3155  16.627  14.459  11.111 -0.0598 -0.3093  0.0761
  198loPI   PO4 3156  16.892  14.422  10.563  0.0989  0.0428 -0.1254
  198loPI   GL1 3157  17.239  14.363  10.158 -0.0811  0.0054 -0.2919
  198loPI   GL2 3158  17.501  14.222   9.979 -0.3494  0.1054  0.2694
  198loPI   C1A 3159  17.070  14.287   9.724 -0.1940  0.1085 -0.3488
  198loPI   C2A 3160  17.112  14.277   9.270  0.0557  0.1518 -0.0637
  198loPI   C3A 3161  17.042  14.155   8.870 -0.1362 -0.0537  0.1454
  198loPI   C4A 3162  17.153  14.249   8.429  0.0004 -0.2664  0.1405
  198loPI   C5A 3163  17.405  14.364   8.097  0.0408  0.0664 -0.0347
  198loPI   C6A 3164  17.762  14.524   7.969  0.0323  0.0518  0.0652
  198loPI   C1B 3165  17.511  14.067   9.525 -0.1769  0.0694 -0.0710
  198loPI   C2B 3166  17.454  13.992   9.053  0.1983  0.0477  0.1255
  198loPI   C3B 3167  17.581  14.071   8.666  0.1556 -0.2329  0.0500
  198loPI   C4B 3168  17.708  13.934   8.201  0.1838 -0.1425 -0.2789
  199loPI    C1 3169   8.242  15.705  10.218 -0.2238  0.3309  0.1129
  199loPI    C2 3170   8.042  15.365  10.282  0.1198  0.0966 -0.0243
  199loPI    C3 3171   8.221  15.551  10.587  0.2776 -0.0697 -0.0140
  199loPI   PO4 3172   8.183  15.740  10.004  0.2810  0.0281 -0.3084
  199loPI   GL1 3173   8.360  15.769   9.640 -0.1918 -0.1463  0.0758
  199loPI   GL2 3174   8.463  16.120   9.767  0.1137  0.0233  0.0004
  199loPI   C1A 3175   8.418  15.797   9.277  0.2714 -0.4299 -0.2894
  199loPI   C2A 3176   8.375  15.733   8.871 -0.1858 -0.2091 -0.0159
  199loPI   C3A 3177   8.478  15.602   8.446 -0.2321 -0.0858 -0.1229
  199loPI   C4A 3178   8.452  15.563   7.996 -0.2779  0.1014 -0.1692
  199loPI   C5A 3179   8.846  15.575   7.695  0.1645  0.1531 -0.0134
  199loPI   C6A 3180   9.083  15.734   7.344 -0.1146  0.0938 -0.2202
  199loPI   C1B 3181   8.396  16.358   9.309 -0.0302  0.0027 -0.2914
  199loPI   C2B 3182   8.392  16.204   8.824 -0.2870 -0.0053  0.1361
  199loPI   C3B 3183   8.534  16.157   8.333  0.1734 -0.1207 -0.1663
  199loPI   C4B 3184   8.352  16.070   7.943 -0.3491 -0.1335  0.1489
  200loPI    C1 3185  10.576  16.731  10.775 -0.0137  0.0174 -0.0603
  200loPI    C2 3186  10.531  16.427  11.032  0.3124 -0.0601 -0.0895
  200loPI    C3 3187  10.633  16.790  11.167  0.1280 -0.0120 -0.0759
  200loPI   PO4 3188  10.333  16.811  10.641 -0.0647 -0.3242 -0.0560
  200loPI   GL1 3189  10.146  16.955  10.248 -0.3644  0.0039 -0.0700
  200loPI   GL2 3190  10.066  16.714  10.118  0.1064 -0.0706 -0.1796
  200loPI   C1A 3191  10.485  16.997   9.926  0.1904  0.1661 -0.0043
  200loPI   C2A 3192  10.608  16.916   9.534  0.0278 -0.1175 -0.0638
  200loPI   C3A 3193  10.638  16.835   9.027  0.1475  0.0687  0.0675
  200loPI   C4A 3194  10.724  16.914   8.556  0.0376 -0.0826 -0.1922
  200loPI   C5A 3195  10.749  16.835   8.145  0.0933 -0.2363  0.0653
  200loPI   C6A 3196  10.761  16.912   7.751  0.1161  0.0129 -0.1893
  200loPI   C1B 3197  10.238  16.604   9.706  0.0025 -0.1715  0.1397
  200loPI   C2B 3198  10.232  16.664   9.195 -0.1867 -0.0742  0.1100
  200loPI   C3B 3199  10.212  16.571   8.831 -0.0943 -0.1926 -0.0324
  200loPI   C4B 3200  10.264  16.678   8.458 -0.0280  0.0413  0.0873
  201loPI    C1 3201   5.826   5.979  10.405  0.0038  0.0364 -0.0500
  201loPI    C2 3202   5.887   5.764  10.737 -0.0282 -0.0523 -0.1011
  201loPI    C3 3203   5.996   6.149  10.725 -0.1439 -0.0138  0.0560
  201loPI   PO4 3204   5.821   5.795  10.239  0.0138 -0.1402  0.3276
  201loPI   GL1 3205   5.394   5.584  10.050  0.0161  0.1884 -0.1834
  201loPI   GL2 3206   5.689   5.598   9.828  0.0647 -0.1500  0.3281
  201loPI   C1A 3207   5.173   5.500   9.669 -0.2612 -0.2362  0.1219
  201loPI   C2A 3208   5.016   5.388   9.289 -0.2346 -0.2043  0.0259
  201loPI   C3A 3209   4.995   5.420   8.882  0.0470  0.0669 -0.1969
  201loPI   C4A 3210   4.964   5.375   8.417  0.2466  0.0992 -0.0518
  201loPI   C5A 3211   4.613   5.195   8.244  0.2369 -0.3516  0.1583
  201loPI   C6A 3212   4.316   4.919   8.025 -0.1056 -0.2838 -0.2839
  201loPI   C1B 3213   5.504   5.712   9.368  0.0753 -0.0920 -0.0427
  201loPI   C2B 3214   5.499   5.652   8.944  0.1491 -0.2825  0.0036
  201loPI   C3B 3215   5.542   5.620   8.459  0.0063 -0.2561 -0.1032
  201loPI   C4B 3216   5.700   5.778   7.993 -0.1490  0.0146  0.2024
  202loPI    C1 3217  16.050   9.579  11.085 -0.0042  0.0240 -0.0933
  202loPI    C2 3218  15.689   9.750  11.086 -0.0593 -0.0905  0.1613
  202loPI    C3 3219  15.944   9.819  11.386  0.0748 -0.1264  0.0564
  202loPI   PO4 3220  16.035   9.556  10.762 -0.0508  0.0484 -0.0860
  202loPI   GL1 3221  15.971   9.514  10.258  0.1319  0.2476 -0.1768
  202loPI   GL2 3222  16.240   9.685  10.269 -0.1392 -0.1250 -0.3031
  202loPI   C1A 3223  15.774   9.391   9.864 -0.1365  0.1437 -0.1947
  202loPI   C2A 3224  15.684   9.360   9.531  0.1938 -0.2221  0.1696
  202loPI   C3A 3225  15.770   9.346   9.047  0.1348  0.3726 -0.1424
  202loPI   C4A 3226  15.649   9.389   8.519  0.1616 -0.1170 -0.2161
  202loPI   C5A 3227  15.553   9.497   8.045 -0.0857  0.1970 -0.0656
  202loPI   C6A 3228  15.759   9.496   7.633  0.0270  0.1213 -0.0143
  202loPI   C1B 3229  16.150   9.732   9.803 -0.1704 -0.3334 -0.1831
  202loPI   C2B 3230  16.193   9.643   9.251 -0.0248  0.1761  0.1637
  202loPI   C3B 3231  16.079   9.694   8.754 -0.4230  0.1635  0.0177
  202loPI   C4B 3232  15.948   9.687   8.331  0.1489 -0.0795 -0.3987
  203loPI    C1 3233   9.960  11.634  10.717 -0.0524 -0.0019 -0.4625
  203loPI    C2 3234   9.573  11.661  10.813  0.0113 -0.0045 -0.1974
  203loPI    C3 3235   9.737  11.304  10.741  0.0257 -0.0298 -0.0430
  203loPI   PO4 3236  10.001  11.721  10.556  0.0240  0.3459 -0.2727
  203loPI   GL1 3237   9.972  11.772  10.135 -0.0925 -0.0381  0.2194
  203loPI   GL2 3238  10.272  11.913  10.192  0.0945 -0.1868 -0.1212
  203loPI   C1A 3239   9.845  11.730   9.682  0.0791 -0.1607  0.1016
  203loPI   C2A 3240   9.823  11.702   9.206  0.0684  0.1558 -0.1970
  203loPI   C3A 3241   9.775  11.660   8.791  0.2205 -0.4684  0.0226
  203loPI   C4A 3242   9.574  11.600   8.442  0.0016  0.0753  0.1031
  203loPI   C5A 3243   9.312  11.353   8.155  0.0084 -0.1668 -0.2031
  203loPI   C6A 3244   9.173  11.004   7.992  0.0629 -0.3343 -0.1466
  203loPI   C1B 3245  10.290  11.969   9.688 -0.0522 -0.0030 -0.0291
  203loPI   C2B 3246  10.221  11.950   9.264  0.0903 -0.1385 -0.1937
  203loPI   C3B 3247  10.177  11.914   8.876 -0.2272  0.1074 -0.0735
  203loPI   C4B 3248  10.037  11.887   8.419 -0.0129 -0.0606  0.3605
  204loPI    C1 3249  10.759   9.902  10.996 -0.0688 -0.0002 -0.0063
  204loPI    C2 3250  11.123   9.881  11.160 -0.0482  0.0057 -0.0507
  204loPI    C3 3251  10.802   9.946  11.391 -0.0182  0.0249 -0.0146
  204loPI   PO4 3252  10.864   9.947  10.711 -0.2719 -0.1322 -0.0539
  204loPI   GL1 3253  10.902  10.269  10.486  0.0153  0.1015  0.0100
  204loPI   GL2 3254  11.138  10.218  10.270  0.2106 -0.1934  0.1375
  204loPI   C1A 3255  10.713  10.073  10.009 -0.3315 -0.3658  0.0966
  204loPI   C2A 3256  10.825  10.078   9.598 -0.2421  0.0992  0.2884
  204loPI   C3A 3257  10.668  10.127   9.110  0.3187  0.1125 -0.1817
  204loPI   C4A 3258  10.631  10.241   8.748  0.0276 -0.0874 -0.0215
  204loPI   C5A 3259  10.682  10.332   8.271 -0.2254 -0.0277  0.0381
  204loPI   C6A 3260  10.733  10.331   7.811 -0.0306 -0.0453  0.1802
  204loPI   C1B 3261  11.150  10.342   9.917  0.2541 -0.1087 -0.0882
  204loPI   C2B 3262  11.202  10.404   9.487 -0.0792 -0.2608 -0.2341
  204loPI   C3B 3263  11.087  10.513   9.013  0.0340  0.1471 -0.1732
  204loPI   C4B 3264  11.108  10.514   8.539 -0.0153  0.3632  0.2639
  205loPI    C1 3265  18.272   2.243  11.286  0.1657 -0.1592  0.0571
  205loPI    C2 3266  18.460   1.907  11.394  0.1708 -0.1828 -0.0241
  205loPI    C3 3267  18.245   2.112  11.662  0.3257 -0.1466  0.0738
  205loPI   PO4 3268  18.215   2.136  11.028  0.0835 -0.2049  0.3355
  205loPI   GL1 3269  18.200   2.017  10.559 -0.0691 -0.1069  0.0654
  205loPI   GL2 3270  18.415   2.175  10.423 -0.0619 -0.1964  0.0822
  205loPI   C1A 3271  17.939   1.793  10.271  0.2334 -0.0301  0.0683
  205loPI   C2A 3272  18.032   1.668   9.798 -0.1136 -0.0709 -0.4251
  205loPI   C3A 3273  18.033   1.697   9.387  0.1420 -0.3190  0.4223
  205loPI   C4A 3274  18.013   1.688   8.974  0.4096 -0.1164  0.0729
  205loPI   C5A 3275  17.956   1.696   8.610 -0.0715 -0.4097  0.0865
  205loPI   C6A 3276  18.026   1.692   8.113 -0.1155  0.2130  0.0161
  205loPI   C1B 3277  18.402   2.005  10.039  0.0070  0.1582 -0.1699
  205loPI   C2B 3278  18.426   1.984   9.544 -0.0818  0.1038 -0.0627
  205loPI   C3B 3279  18.381   2.014   9.135 -0.1042 -0.0106  0.1086
  205loPI   C4B 3280  18.410   1.937   8.763  0.2657 -0.1059 -0.2962
  206loPI    C1 3281  13.385  10.484  10.957 -0.1099 -0.0057  0.1670
  206loPI    C2 3282  13.406  10.884  10.969  0.1282 -0.0196  0.2580
  206loPI    C3 3283  13.244  10.683  11.275 -0.2029  0.0175  0.1120
  206loPI   PO4 3284  13.324  10.471  10.633  0.0323  0.0140 -0.0114
  206loPI   GL1 3285  13.569  10.461  10.186  0.0604 -0.1924  0.0521
  206loPI   GL2 3286  13.846  10.268  10.140  0.2319 -0.0891  0.0201
  206loPI   C1A 3287  13.421  10.551   9.813  0.2731  0.0016  0.0626
  206loPI   C2A 3288  13.439  10.611   9.433  0.4358 -0.0230 -0.1671
  206loPI   C3A 3289  13.347  10.683   8.977 -0.0226  0.3872  0.0192
  206loPI   C4A 3290  13.304  10.653   8.590 -0.0773  0.1349 -0.1693
  206loPI   C5A 3291  13.345  10.587   8.175  0.2236  0.0724  0.1028
  206loPI   C6A 3292  13.465  10.502   7.947 -0.1640 -0.1220  0.3571
  206loPI   C1B 3293  13.897  10.400   9.707  0.0138 -0.0055  0.0292
  206loPI   C2B 3294  13.834  10.348   9.284  0.1349  0.1215  0.2495
  206loPI   C3B 3295  13.819  10.406   8.815  0.0984  0.1374  0.0557
  206loPI   C4B 3296  13.757  10.463   8.415 -0.3774  0.2716  0.1794
  207loPI    C1 3297  16.273  14.993  10.919  0.0146 -0.1445 -0.2783
  207loPI    C2 3298  16.539  14.945  11.213 -0.0468  0.1219 -0.1768
  207loPI    C3 3299  16.228  14.696  11.182  0.3149 -0.3147 -0.4141
  207loPI   PO4 3300  16.301  14.965  10.641 -0.1286  0.1264  0.0667
  207loPI   GL1 3301  16.506  14.661  10.321 -0.0899 -0.0029 -0.0618
  207loPI   GL2 3302  16.752  14.511  10.066 -0.0745 -0.4008  0.1004
  207loPI   C1A 3303  16.239  14.886  10.030 -0.3677  0.0795  0.0855
  207loPI   C2A 3304  16.176  14.768   9.575 -0.0929 -0.0628  0.0795
  207loPI   C3A 3305  16.228  14.786   9.147  0.1780 -0.3253  0.1879
  207loPI   C4A 3306  16.067  14.780   8.650  0.1028 -0.1265  0.1049
  207loPI   C5A 3307  15.946  14.492   8.312 -0.0344  0.0819  0.0025
  207loPI   C6A 3308  15.563  14.452   8.200 -0.1438 -0.2423 -0.0240
  207loPI   C1B 3309  16.645  14.617   9.676 -0.2427  0.2307 -0.1287
  207loPI   C2B 3310  16.659  14.616   9.269  0.3497 -0.0200 -0.2410
  207loPI   C3B 3311  16.550  14.521   8.851  0.0801  0.1273 -0.0945
  207loPI   C4B 3312  16.700  14.492   8.387  0.0342 -0.0222  0.3196
  208loPI    C1 3313  15.068   6.702  10.707  0.1292  0.1365 -0.2399
  208loPI    C2 3314  14.983   6.377  10.490  0.0944  0.0156 -0.0472
  208loPI    C3 3315  15.046   6.344  10.884  0.2039  0.2264 -0.0459
  208loPI   PO4 3316  15.265   6.779  10.559 -0.1867 -0.0006  0.0419
  208loPI   GL1 3317  15.332   6.784  10.205 -0.2373 -0.1779  0.1083
  208loPI   GL2 3318  15.231   6.555  10.083 -0.2866  0.1455  0.1752
  208loPI   C1A 3319  15.392   6.962   9.775  0.2711  0.2044  0.1725
  208loPI   C2A 3320  15.250   6.990   9.437  0.4622  0.1413 -0.0481
  208loPI   C3A 3321  15.261   7.012   9.042  0.0376  0.1295 -0.0975
  208loPI   C4A 3322  15.258   6.966   8.643  0.3173 -0.0848 -0.4860
  208loPI   C5A 3323  15.196   7.036   8.174 -0.0089  0.1492  0.0474
  208loPI   C6A 3324  14.857   7.029   7.909  0.1499  0.0329  0.3168
  208loPI   C1B 3325  15.080   6.546   9.718 -0.0280  0.0403  0.0982
  208loPI   C2B 3326  15.210   6.456   9.328  0.0266 -0.2837 -0.1270
  208loPI   C3B 3327  15.287   6.501   8.881  0.0186  0.2925 -0.0075
  208loPI   C4B 3328  15.300   6.465   8.459  0.0972 -0.1282  0.0507
  209loPI    C1 3329   5.613   8.446  10.683  0.0291  0.0592 -0.1038
  209loPI    C2 3330   5.736   8.715  10.953 -0.0332  0.0381 -0.0540
  209loPI    C3 3331   5.710   8.328  11.053 -0.2013  0.0511 -0.0447
  209loPI   PO4 3332   5.754   8.464  10.475  0.2413  0.0659 -0.3028
  209loPI   GL1 3333   5.808   8.391  10.134 -0.0188 -0.4242  0.2465
  209loPI   GL2 3334   5.683   8.813  10.096  0.1183  0.0631  0.2961
  209loPI   C1A 3335   5.740   8.130   9.838 -0.0628 -0.0640  0.1386
  209loPI   C2A 3336   5.673   8.216   9.480 -0.0794 -0.0960  0.1205
  209loPI   C3A 3337   5.626   8.264   9.097  0.3575 -0.4993 -0.2405
  209loPI   C4A 3338   5.503   8.266   8.685 -0.4155  0.2589 -0.0972
  209loPI   C5A 3339   5.530   8.298   8.158 -0.2371  0.1536  0.1994
  209loPI   C6A 3340   5.510   8.654   7.925 -0.2449 -0.1553 -0.0433
  209loPI   C1B 3341   5.627   8.687   9.648  0.1279  0.1414 -0.0672
  209loPI   C2B 3342   5.658   8.738   9.204 -0.1672 -0.1034 -0.2329
  209loPI   C3B 3343   5.503   8.740   8.776  0.1597 -0.0805  0.0712
  209loPI   C4B 3344   5.390   8.856   8.356 -0.0293  0.4307  0.2098
  210loPI    C1 3345   2.425   4.264  11.036 -0.1819 -0.1007 -0.4651
  210loPI    C2 3346   2.598   3.971  11.247 -0.0351  0.2339 -0.1091
  210loPI    C3 3347   2.231   4.096  11.343 -0.0967  0.1711 -0.2593
  210loPI   PO4 3348   2.578   4.193  10.763 -0.0590  0.5030  0.1111
  210loPI   GL1 3349   2.638   4.213  10.267 -0.0550 -0.0208  0.0513
  210loPI   GL2 3350   2.413   3.960  10.351 -0.1196  0.2026  0.0712
  210loPI   C1A 3351   2.789   4.085   9.822 -0.1320 -0.1012 -0.3203
  210loPI   C2A 3352   2.804   4.088   9.395 -0.4471 -0.0973  0.0959
  210loPI   C3A 3353   2.848   4.139   9.030 -0.0884 -0.4681  0.2321
  210loPI   C4A 3354   2.764   4.127   8.606  0.3322  0.0485 -0.0053
  210loPI   C5A 3355   2.527   4.004   8.242  0.3096 -0.1114  0.3626
  210loPI   C6A 3356   2.164   3.860   8.296 -0.2110  0.0374  0.6334
  210loPI   C1B 3357   2.294   3.987   9.961 -0.0553  0.2413 -0.1151
  210loPI   C2B 3358   2.410   3.857   9.519  0.1041 -0.2520  0.2949
  210loPI   C3B 3359   2.322   3.834   9.220  0.0120 -0.0657  0.0959
  210loPI   C4B 3360   2.323   3.891   8.823  0.3007 -0.1544  0.0721
  211loPI    C1 3361  14.719   5.758  10.559  0.1517 -0.1838  0.3125
  211loPI    C2 3362  14.360   5.881  10.686  0.1224 -0.0249  0.0826
  211loPI    C3 3363  14.676   5.900  10.930  0.0221  0.0580  0.2075
  211loPI   PO4 3364  14.526   5.692  10.240 -0.2076  0.1572  0.1747
  211loPI   GL1 3365  14.597   5.662   9.823  0.1903  0.4841 -0.0919
  211loPI   GL2 3366  14.242   5.451   9.823  0.2787 -0.1617  0.2210
  211loPI   C1A 3367  14.670   5.677   9.404 -0.2042  0.0439  0.0813
  211loPI   C2A 3368  14.767   5.602   9.017 -0.2577  0.1998 -0.0257
  211loPI   C3A 3369  14.852   5.705   8.636  0.2962  0.0722  0.0577
  211loPI   C4A 3370  14.829   5.615   8.167 -0.0006 -0.3311  0.3825
  211loPI   C5A 3371  14.572   5.879   7.850 -0.3900  0.0965  0.0379
  211loPI   C6A 3372  14.450   6.252   7.924  0.0745  0.0142  0.2853
  211loPI   C1B 3373  14.296   5.412   9.393  0.1571  0.0688 -0.0135
  211loPI   C2B 3374  14.335   5.330   9.026  0.2574  0.1014  0.0319
  211loPI   C3B 3375  14.422   5.467   8.588 -0.0669 -0.2199 -0.2300
  211loPI   C4B 3376  14.374   5.499   8.171 -0.3891  0.0376  0.0806
  212loPI    C1 3377   4.284   6.851  10.865  0.0910 -0.0039 -0.0310
  212loPI    C2 3378   4.408   6.475  10.920  0.2172  0.0717  0.2156
  212loPI    C3 3379   4.116   6.625  11.149 -0.0502  0.0271 -0.0891
  212loPI   PO4 3380   4.140   6.931  10.641  0.2564 -0.0541 -0.0048
  212loPI   GL1 3381   4.045   6.920  10.262 -0.0041  0.1750 -0.0126
  212loPI   GL2 3382   3.931   6.558  10.217  0.0960  0.0279  0.0830
  212loPI   C1A 3383   3.866   6.829   9.838  0.3656  0.0399  0.1645
  212loPI   C2A 3384   3.834   6.721   9.389 -0.0141 -0.3325  0.0180
  212loPI   C3A 3385   3.756   6.603   8.936  0.4193 -0.1134  0.0028
  212loPI   C4A 3386   3.782   6.634   8.485 -0.0144 -0.1298  0.0529
  212loPI   C5A 3387   3.587   6.751   8.018  0.1820  0.3037 -0.3277
  212loPI   C6A 3388   3.847   7.015   7.779  0.0202  0.5872 -0.0362
  212loPI   C1B 3389   3.832   6.135   9.958  0.0936  0.0333  0.1250
  212loPI   C2B 3390   3.810   6.142   9.460  0.1045  0.1695 -0.1746
  212loPI   C3B 3391   3.706   6.095   8.998  0.0675  0.0044  0.0478
  212loPI   C4B 3392   3.701   6.066   8.576 -0.0284  0.1430 -0.1289
  213loPI    C1 3393   1.267  10.464  10.629  0.0181 -0.3171  0.0311
  213loPI    C2 3394   1.035  10.438  10.954  0.0705  0.0852  0.1064
  213loPI    C3 3395   1.079  10.789  10.767  0.0668 -0.1343 -0.3196
  213loPI   PO4 3396   1.203  10.292  10.434  0.3685 -0.0059  0.2989
  213loPI   GL1 3397   1.147  10.248   9.954  0.1379 -0.1360 -0.4030
  213loPI   GL2 3398   1.279  10.012  10.030  0.0641  0.1389 -0.0583
  213loPI   C1A 3399   1.112  10.342   9.569  0.0608 -0.1772 -0.1428
  213loPI   C2A 3400   0.887  10.454   9.148  0.2684 -0.0336 -0.2317
  213loPI   C3A 3401   0.897  10.433   8.702  0.1287  0.0465  0.1402
  213loPI   C4A 3402   0.832  10.565   8.267  0.2667  0.0853 -0.0474
  213loPI   C5A 3403   0.532  10.518   8.023  0.3143 -0.1675 -0.1483
  213loPI   C6A 3404   0.222  10.732   7.834  0.0159 -0.0759  0.0820
  213loPI   C1B 3405   1.032   9.816   9.687  0.1590 -0.0860 -0.0164
  213loPI   C2B 3406   0.990   9.926   9.253  0.0002 -0.3443 -0.4253
  213loPI   C3B 3407   0.885   9.974   8.895  0.0314 -0.0752 -0.2414
  213loPI   C4B 3408   0.986   9.970   8.422 -0.2565  0.0798  0.2157
  214loPI    C1 3409  11.709   1.398  10.437  0.0515 -0.1510 -0.0061
  214loPI    C2 3410  11.419   1.648  10.555 -0.0666 -0.0784 -0.4358
  214loPI    C3 3411  11.801   1.764  10.572 -0.0764 -0.0880 -0.0874
  214loPI   PO4 3412  11.656   1.298  10.168 -0.2077  0.0118  0.0691
  214loPI   GL1 3413  11.791   1.313   9.794  0.0428  0.0142  0.0822
  214loPI   GL2 3414  11.936   1.554   9.672  0.1176  0.2167 -0.1314
  214loPI   C1A 3415  11.601   1.229   9.455 -0.0947  0.1966 -0.0146
  214loPI   C2A 3416  11.645   1.143   9.013  0.3489  0.0005  0.1329
  214loPI   C3A 3417  11.689   1.122   8.533  0.1066 -0.1756 -0.0240
  214loPI   C4A 3418  11.516   1.089   8.178 -0.1367  0.2886 -0.1823
  214loPI   C5A 3419  11.599   1.181   7.770 -0.0936 -0.2577 -0.0108
  214loPI   C6A 3420  11.237   1.350   7.573 -0.0941 -0.1005 -0.0687
  214loPI   C1B 3421  12.090   1.460   9.302  0.2013 -0.1781 -0.0886
  214loPI   C2B 3422  12.129   1.408   8.924  0.3761 -0.2419  0.1407
  214loPI   C3B 3423  12.067   1.402   8.497  0.1427 -0.0486  0.2401
  214loPI   C4B 3424  11.998   1.405   8.119 -0.1182 -0.0523  0.0445
  215loPI    C1 3425   4.775  10.879  10.766  0.1837 -0.1279 -0.0785
  215loPI    C2 3426   4.700  11.145  10.476 -0.2399 -0.2344 -0.0730
  215loPI    C3 3427   4.761  11.270  10.851  0.2428 -0.1013 -0.1888
  215loPI   PO4 3428   4.926  10.585  10.602  0.4114 -0.0574 -0.1180
  215loPI   GL1 3429   4.944  10.339  10.206 -0.0224  0.1553 -0.2956
  215loPI   GL2 3430   4.919  10.112  10.021 -0.0289  0.1558  0.1644
  215loPI   C1A 3431   5.152  10.496   9.788 -0.3990  0.2783 -0.1245
  215loPI   C2A 3432   5.189  10.680   9.418  0.1773  0.0858  0.0839
  215loPI   C3A 3433   5.149  10.607   8.957 -0.2623  0.0350 -0.0273
  215loPI   C4A 3434   5.242  10.681   8.536  0.1607 -0.4635 -0.0145
  215loPI   C5A 3435   4.953  10.513   8.171 -0.1987  0.2437  0.1767
  215loPI   C6A 3436   4.747  10.221   7.825 -0.2693  0.0960 -0.1418
  215loPI   C1B 3437   4.796  10.236   9.633 -0.1330  0.1732  0.3795
  215loPI   C2B 3438   4.727  10.476   9.196 -0.1735 -0.1192 -0.0066
  215loPI   C3B 3439   4.609  10.435   8.765 -0.1766 -0.0810  0.2719
  215loPI   C4B 3440   4.534  10.432   8.415  0.2758  0.1652  0.1296
  216loPI    C1 3441   1.695   4.703  10.744 -0.0708  0.0950 -0.0010
  216loPI    C2 3442   1.534   4.346  10.664  0.0797  0.0213  0.0221
  216loPI    C3 3443   1.581   4.464  11.044 -0.2251  0.1841  0.0129
  216loPI   PO4 3444   1.723   4.818  10.491 -0.1249  0.0358  0.0051
  216loPI   GL1 3445   1.696   4.850   9.972  0.0692 -0.0132 -0.0712
  216loPI   GL2 3446   1.511   5.098  10.037  0.2932 -0.0095 -0.2171
  216loPI   C1A 3447   1.900   4.674   9.744  0.1060 -0.3786  0.1778
  216loPI   C2A 3448   1.878   4.624   9.303 -0.1160 -0.0316  0.3594
  216loPI   C3A 3449   1.847   4.560   8.731  0.1780 -0.1131  0.2764
  216loPI   C4A 3450   1.747   4.627   8.381  0.1973 -0.0950  0.0665
  216loPI   C5A 3451   1.691   4.686   7.933 -0.0628  0.0595 -0.2293
  216loPI   C6A 3452   1.426   4.904   7.721  0.3081  0.0430  0.2539
  216loPI   C1B 3453   1.399   4.836   9.575 -0.0650  0.3534  0.5607
  216loPI   C2B 3454   1.487   4.929   9.178  0.2010 -0.0580 -0.1714
  216loPI   C3B 3455   1.411   4.883   8.765  0.4762 -0.3957  0.2950
  216loPI   C4B 3456   1.373   4.979   8.309  0.0920  0.3455 -0.1249
  217loPI    C1 3457  16.872  16.255  11.271  0.0095  0.0534 -0.1747
  217loPI    C2 3458  16.986  16.128  11.633  0.0413  0.1257 -0.1591
  217loPI    C3 3459  16.919  16.517  11.569 -0.1006  0.0962 -0.1946
  217loPI   PO4 3460  17.109  16.132  11.110  0.0576  0.0407  0.2299
  217loPI   GL1 3461  17.273  16.093  10.667  0.2956 -0.1864  0.1949
  217loPI   GL2 3462  17.616  16.107  10.477 -0.0568  0.1346 -0.1984
  217loPI   C1A 3463  17.120  15.908  10.279  0.1054 -0.1084 -0.0967
  217loPI   C2A 3464  17.156  15.838   9.906 -0.0121  0.2042  0.0561
  217loPI   C3A 3465  17.136  15.923   9.578  0.1182 -0.1137  0.0236
  217loPI   C4A 3466  17.166  15.844   9.126  0.0715 -0.1254  0.0927
  217loPI   C5A 3467  16.983  15.859   8.660 -0.0329  0.0306  0.1024
  217loPI   C6A 3468  17.107  16.140   8.400 -0.2965 -0.1670  0.2028
  217loPI   C1B 3469  17.607  16.056  10.056  0.0702 -0.1175 -0.0002
  217loPI   C2B 3470  17.639  16.186   9.595  0.1956  0.2347 -0.0490
  217loPI   C3B 3471  17.605  16.129   9.133  0.0766 -0.0607 -0.3112
  217loPI   C4B 3472  17.531  16.142   8.648 -0.0307  0.3493 -0.3324
  218loPI    C1 3473  16.614   4.085  10.790  0.0782 -0.0558  0.0807
  218loPI    C2 3474  16.718   3.759  10.998 -0.0088 -0.1243  0.0181
  218loPI    C3 3475  16.521   4.057  11.178 -0.0757 -0.1793  0.0363
  218loPI   PO4 3476  16.826   4.172  10.697  0.2081 -0.0033  0.2056
  218loPI   GL1 3477  17.037   4.225  10.377 -0.1678 -0.3445 -0.0410
  218loPI   GL2 3478  16.874   4.484  10.193  0.2361 -0.0964  0.0132
  218loPI   C1A 3479  16.962   3.927  10.053  0.0125  0.1871 -0.0172
  218loPI   C2A 3480  17.001   3.860   9.624 -0.1409  0.1862 -0.0389
  218loPI   C3A 3481  17.070   3.883   9.172 -0.2234 -0.1241  0.1364
  218loPI   C4A 3482  16.894   3.811   8.804  0.2440 -0.2306 -0.0060
  218loPI   C5A 3483  16.864   3.945   8.452  0.2891 -0.1885 -0.0872
  218loPI   C6A 3484  16.915   3.538   8.146 -0.1721 -0.1334 -0.0408
  218loPI   C1B 3485  17.074   4.382   9.837 -0.0608 -0.0019 -0.1106
  218loPI   C2B 3486  16.996   4.426   9.481  0.0948 -0.0240 -0.0714
  218loPI   C3B 3487  17.148   4.398   9.096  0.0846  0.0802  0.4491
  218loPI   C4B 3488  17.031   4.381   8.649  0.0900  0.4407  0.0978
  219loPI    C1 3489   2.700   6.903  10.730 -0.0456 -0.0410 -0.3255
  219loPI    C2 3490   2.473   6.574  10.749 -0.2395  0.1071  0.0162
  219loPI    C3 3491   2.637   6.724  11.082  0.0668  0.2083 -0.1756
  219loPI   PO4 3492   2.797   6.891  10.569  0.1075  0.1267  0.1045
  219loPI   GL1 3493   2.909   6.872  10.076  0.0897 -0.0873 -0.1006
  219loPI   GL2 3494   2.950   7.187   9.865 -0.0160 -0.2405 -0.2106
  219loPI   C1A 3495   2.892   6.682   9.656 -0.1457  0.2533  0.1470
  219loPI   C2A 3496   2.814   6.684   9.175 -0.1479 -0.3456 -0.1680
  219loPI   C3A 3497   2.855   6.738   8.695 -0.2349 -0.1303 -0.1815
  219loPI   C4A 3498   2.749   6.759   8.279 -0.0298 -0.0979  0.0809
  219loPI   C5A 3499   2.591   6.456   8.030  0.2606  0.0454 -0.1180
  219loPI   C6A 3500   2.472   6.146   7.679  0.2651  0.1496  0.0980
  219loPI   C1B 3501   2.923   7.208   9.406  0.1184 -0.1817  0.1099
  219loPI   C2B 3502   2.864   7.133   8.937 -0.0713  0.0390 -0.0612
  219loPI   C3B 3503   2.734   7.211   8.517  0.0216  0.1581 -0.0464
  219loPI   C4B 3504   2.723   7.229   8.056 -0.0355 -0.1788 -0.0441
  220loPI    C1 3505   2.038  17.989  10.861  0.1231 -0.0516  0.3507
  220loPI    C2 3506   2.373  18.130  11.028  0.1080  0.1014  0.2534
  220loPI    C3 3507   2.018  18.209  11.194  0.1024  0.1458  0.2206
  220loPI   PO4 3508   1.986  18.094  10.680 -0.1295 -0.3975  0.0600
  220loPI   GL1 3509   1.938  17.797  10.325 -0.2689  0.1106  0.4577
  220loPI   GL2 3510   1.986  17.527  10.174 -0.0362 -0.2018 -0.0386
  220loPI   C1A 3511   1.979  18.101  10.041  0.2614  0.2783 -0.1012
  220loPI   C2A 3512   1.915  18.250   9.675  0.1313 -0.0028 -0.0261
  220loPI   C3A 3513   1.935  18.239   9.281 -0.0179  0.1166  0.0196
  220loPI   C4A 3514   2.016  18.272   8.918  0.2767 -0.2414 -0.2364
  220loPI   C5A 3515   1.818  18.197   8.510 -0.0910  0.0525 -0.1853
  220loPI   C6A 3516   1.529  18.056   8.205  0.3208 -0.2610  0.3465
  220loPI   C1B 3517   1.883  17.717   9.735 -0.1510 -0.0367  0.1109
  220loPI   C2B 3518   1.950  17.678   9.289  0.3033 -0.2634 -0.2166
  220loPI   C3B 3519   2.025  17.799   8.842  0.0913 -0.1166  0.1666
  220loPI   C4B 3520   1.988  17.711   8.352  0.0780 -0.3491 -0.1779
  221loPI    C1 3521   9.012   7.177  10.314 -0.0077 -0.2233 -0.1093
  221loPI    C2 3522   8.714   7.015  10.526 -0.0200 -0.1948 -0.1049
  221loPI    C3 3523   9.057   7.112  10.706 -0.0454 -0.1324 -0.0899
  221loPI   PO4 3524   8.930   7.281  10.014  0.0671  0.2389  0.1345
  221loPI   GL1 3525   9.102   7.517   9.696 -0.0218 -0.1543 -0.3195
  221loPI   GL2 3526   9.377   7.574   9.535 -0.1171 -0.0158  0.2083
  221loPI   C1A 3527   8.870   7.513   9.333  0.1045  0.1668  0.1104
  221loPI   C2A 3528   8.775   7.576   8.973  0.0503 -0.1298  0.1847
  221loPI   C3A 3529   8.750   7.388   8.593 -0.0006  0.1616  0.1792
  221loPI   C4A 3530   8.812   7.372   8.164 -0.2350 -0.1692 -0.0475
  221loPI   C5A 3531   8.507   7.189   7.776 -0.0602  0.1168 -0.1576
  221loPI   C6A 3532   8.090   7.295   7.715  0.1284  0.0201 -0.1307
  221loPI   C1B 3533   9.322   7.752   9.194 -0.2910 -0.2397  0.0776
  221loPI   C2B 3534   9.326   7.758   8.760 -0.2355  0.2027  0.1027
  221loPI   C3B 3535   9.214   7.454   8.480  0.3109 -0.1839 -0.0923
  221loPI   C4B 3536   9.338   7.237   8.084 -0.1437 -0.0278 -0.0995
  222loPI    C1 3537  10.776   6.784  10.084  0.3373  0.2829  0.2931
  222loPI    C2 3538  10.722   6.802  10.480  0.1339  0.0708  0.2773
  222loPI    C3 3539  10.765   6.448  10.300 -0.0685  0.1477  0.0721
  222loPI   PO4 3540  10.685   6.883   9.955  0.0035  0.0560 -0.0158
  222loPI   GL1 3541  10.670   6.860   9.498  0.2830 -0.2915  0.2221
  222loPI   GL2 3542  10.783   6.610   9.553 -0.0441  0.2740  0.4054
  222loPI   C1A 3543  10.778   6.966   9.089 -0.0164 -0.0793 -0.1678
  222loPI   C2A 3544  10.869   7.119   8.717  0.1295  0.1546 -0.2589
  222loPI   C3A 3545  11.046   7.376   8.298 -0.2041  0.1098  0.0392
  222loPI   C4A 3546  10.927   7.558   7.841  0.1398  0.1199 -0.0575
  222loPI   C5A 3547  10.741   7.663   7.391  0.0204  0.0851 -0.0774
  222loPI   C6A 3548  10.648   8.014   7.227  0.0435 -0.3537  0.0845
  222loPI   C1B 3549  10.657   6.302   9.205  0.0998 -0.1911  0.0125
  222loPI   C2B 3550  10.695   6.181   8.696  0.1245 -0.0176  0.0919
  222loPI   C3B 3551  10.665   6.082   8.234  0.0732  0.0721  0.1118
  222loPI   C4B 3552  10.400   6.185   7.818  0.0936  0.0670 -0.4058
  223loPI    C1 3553   8.947  13.005  10.936 -0.1475 -0.0291  0.0991
  223loPI    C2 3554   9.198  12.738  11.095 -0.1814 -0.2440 -0.1986
  223loPI    C3 3555   8.982  12.976  11.333  0.2347 -0.1165  0.0628
  223loPI   PO4 3556   8.805  12.886  10.794  0.1044 -0.2140  0.1446
  223loPI   GL1 3557   8.843  12.790  10.272 -0.1734 -0.0715  0.1047
  223loPI   GL2 3558   8.913  12.486  10.052 -0.1010  0.1292  0.0347
  223loPI   C1A 3559   8.539  13.013   9.985 -0.0834 -0.0991  0.0159
  223loPI   C2A 3560   8.387  13.074   9.528 -0.0433  0.1466  0.0704
  223loPI   C3A 3561   8.426  12.983   9.116  0.4659 -0.0506  0.0207
  223loPI   C4A 3562   8.291  13.005   8.643  0.2001  0.3277 -0.0863
  223loPI   C5A 3563   8.153  12.849   8.194 -0.0908  0.0812 -0.0334
  223loPI   C6A 3564   7.971  12.641   7.801 -0.3061  0.0848 -0.1020
  223loPI   C1B 3565   8.895  12.743   9.713 -0.1740 -0.0367 -0.2190
  223loPI   C2B 3566   8.852  12.730   9.202 -0.1389  0.2622  0.0284
  223loPI   C3B 3567   8.887  12.753   8.810 -0.1320  0.1595 -0.1696
  223loPI   C4B 3568   8.607  12.787   8.363 -0.4205 -0.0539  0.0859
  224loPI    C1 3569  17.879   9.895  11.014 -0.0776 -0.1720 -0.0041
  224loPI    C2 3570  17.731   9.989  11.374  0.0262  0.0414 -0.0156
  224loPI    C3 3571  18.102   9.844  11.342 -0.0799 -0.2376 -0.0126
  224loPI   PO4 3572  17.685   9.789  10.893 -0.0270  0.1535  0.1112
  224loPI   GL1 3573  17.808   9.594  10.483  0.2467 -0.0748 -0.1330
  224loPI   GL2 3574  18.052   9.358  10.329 -0.0346  0.0023  0.1424
  224loPI   C1A 3575  17.541   9.358  10.100  0.2974 -0.1393  0.3512
  224loPI   C2A 3576  17.526   9.370   9.671 -0.4353 -0.0188  0.1593
  224loPI   C3A 3577  17.485   9.382   9.257  0.2214 -0.1383 -0.0101
  224loPI   C4A 3578  17.445   9.286   8.806  0.1484  0.1823 -0.1492
  224loPI   C5A 3579  17.569   9.366   8.471  0.3011  0.3862  0.0066
  224loPI   C6A 3580  17.639   9.646   8.256  0.2141  0.3283  0.2297
  224loPI   C1B 3581  17.949   9.181   9.999 -0.0724  0.2193 -0.0621
  224loPI   C2B 3582  17.919   9.111   9.611  0.1957 -0.1541  0.0430
  224loPI   C3B 3583  17.923   9.178   9.240 -0.1859  0.1902  0.0423
  224loPI   C4B 3584  17.872   9.095   8.785 -0.1084  0.1261 -0.0792
  225loPI    C1 3585   5.261  10.994  10.791  0.1586  0.0162 -0.2475
  225loPI    C2 3586   5.520  11.292  10.850  0.2304 -0.1083  0.0921
  225loPI    C3 3587   5.201  11.255  11.088 -0.0675  0.0030 -0.2799
  225loPI   PO4 3588   5.214  11.027  10.543 -0.2777  0.3279 -0.2486
  225loPI   GL1 3589   5.128  11.212  10.170 -0.2027 -0.3719  0.2592
  225loPI   GL2 3590   4.987  10.870  10.135 -0.2016  0.0710  0.2508
  225loPI   C1A 3591   5.219  11.089   9.739  0.2106 -0.0794  0.1671
  225loPI   C2A 3592   5.264  11.130   9.293  0.2897 -0.1475  0.0608
  225loPI   C3A 3593   5.193  11.155   8.929 -0.1002  0.2891 -0.0733
  225loPI   C4A 3594   5.024  11.136   8.507 -0.2034  0.3383  0.1578
  225loPI   C5A 3595   4.953  11.173   8.042  0.0254  0.1937  0.0942
  225loPI   C6A 3596   4.619  11.229   7.799  0.1105 -0.1457 -0.0130
  225loPI   C1B 3597   4.742  10.896   9.852 -0.0657  0.1404 -0.2131
  225loPI   C2B 3598   4.813  10.949   9.330 -0.0086  0.2509 -0.2542
  225loPI   C3B 3599   4.740  10.892   8.886  0.1423 -0.1954 -0.3659
  225loPI   C4B 3600   4.516  10.939   8.447 -0.0130 -0.0531 -0.0255
  226loPI    C1 3601   6.982   5.101  10.376 -0.1048 -0.1059  0.0192
  226loPI    C2 3602   7.370   5.161  10.451 -0.0405 -0.1327 -0.2814
  226loPI    C3 3603   7.183   4.845  10.608  0.0556 -0.1126 -0.1251
  226loPI   PO4 3604   6.971   5.108  10.153  0.0858 -0.0359  0.1256
  226loPI   GL1 3605   6.953   5.340   9.832  0.0594 -0.1775  0.0452
  226loPI   GL2 3606   6.623   5.374   9.756  0.1436 -0.0244  0.0656
  226loPI   C1A 3607   6.951   5.350   9.340  0.4423  0.0310  0.1544
  226loPI   C2A 3608   6.792   5.389   8.931 -0.4376  0.1405 -0.0787
  226loPI   C3A 3609   6.915   5.484   8.481  0.1329  0.0073  0.1580
  226loPI   C4A 3610   7.007   5.443   8.056 -0.0397  0.0342 -0.0214
  226loPI   C5A 3611   7.170   5.571   7.749  0.1917  0.3014  0.0429
  226loPI   C6A 3612   7.540   5.269   7.605  0.1549  0.3168 -0.0615
  226loPI   C1B 3613   6.364   5.247   9.446  0.3060 -0.1549 -0.0343
  226loPI   C2B 3614   6.359   5.373   9.094  0.0083  0.0141  0.0258
  226loPI   C3B 3615   6.416   5.113   8.689 -0.1162  0.1735 -0.0278
  226loPI   C4B 3616   6.523   4.710   8.526  0.2281 -0.3721  0.1253
  227loPI    C1 3617   8.441  10.966  10.707 -0.1485 -0.1347  0.1453
  227loPI    C2 3618   8.771  11.172  10.613 -0.1547 -0.2075 -0.0395
  227loPI    C3 3619   8.661  11.133  10.996 -0.0624 -0.0087  0.0081
  227loPI   PO4 3620   8.251  11.004  10.508  0.0431  0.0701 -0.1669
  227loPI   GL1 3621   8.266  11.159  10.113  0.0551  0.0964 -0.2597
  227loPI   GL2 3622   8.587  11.244  10.111 -0.2235 -0.0380  0.0949
  227loPI   C1A 3623   8.002  11.079   9.643  0.1201  0.1400 -0.1163
  227loPI   C2A 3624   8.024  11.076   9.203 -0.0297  0.0202  0.1423
  227loPI   C3A 3625   7.915  11.117   8.836 -0.1352 -0.1017  0.4502
  227loPI   C4A 3626   8.006  10.880   8.343 -0.1103 -0.1724 -0.2414
  227loPI   C5A 3627   7.768  10.527   8.260  0.2149  0.0936 -0.1621
  227loPI   C6A 3628   7.456  10.244   8.127 -0.2716  0.1194 -0.1054
  227loPI   C1B 3629   8.409  11.293   9.669  0.0183 -0.0519  0.0017
  227loPI   C2B 3630   8.434  11.329   9.246  0.1297  0.1796 -0.0782
  227loPI   C3B 3631   8.460  11.473   8.766  0.1509  0.1420  0.0561
  227loPI   C4B 3632   8.309  11.427   8.405 -0.1554 -0.1153 -0.3044
  228loPI    C1 3633  15.845  13.802  11.028 -0.1927  0.1403 -0.1780
  228loPI    C2 3634  15.986  14.172  11.083  0.1753 -0.0781  0.4527
  228loPI    C3 3635  15.660  14.050  11.281 -0.1305 -0.0017  0.0096
  228loPI   PO4 3636  15.803  13.697  10.746 -0.3507 -0.0401  0.2026
  228loPI   GL1 3637  15.986  13.445  10.466 -0.1913  0.0259 -0.1188
  228loPI   GL2 3638  15.655  13.369  10.384 -0.1060 -0.5290 -0.5156
  228loPI   C1A 3639  16.160  13.260  10.134 -0.1131 -0.0819  0.1412
  228loPI   C2A 3640  16.161  13.160   9.748 -0.1099 -0.2550  0.1597
  228loPI   C3A 3641  16.190  13.188   9.334  0.1745  0.0590 -0.2820
  228loPI   C4A 3642  16.081  13.208   8.908 -0.2106 -0.0318  0.1391
  228loPI   C5A 3643  15.975  13.253   8.475  0.1391 -0.3232 -0.0616
  228loPI   C6A 3644  15.982  13.463   8.077 -0.2515 -0.1894 -0.0388
  228loPI   C1B 3645  15.674  13.475   9.978 -0.2215  0.1116  0.4144
  228loPI   C2B 3646  15.814  13.423   9.522 -0.0925 -0.0484  0.1389
  228loPI   C3B 3647  15.652  13.486   9.068  0.1006 -0.3172  0.1128
  228loPI   C4B 3648  15.665  13.700   8.545 -0.2560  0.0661 -0.0181
  229loPI    C1 3649  18.282  17.106  11.060  0.3861 -0.3086 -0.0903
  229loPI    C2 3650  18.575  17.369  11.130  0.2160 -0.1881  0.1891
  229loPI    C3 3651  18.506  17.072  11.389  0.0320 -0.1600  0.1735
  229loPI   PO4 3652  18.079  17.269  10.919 -0.1842  0.2054  0.0750
  229loPI   GL1 3653  17.868  17.473  10.493  0.0638 -0.1613  0.1607
  229loPI   GL2 3654  18.227  17.344  10.421  0.1432  0.1060  0.0188
  229loPI   C1A 3655  17.942  17.586  10.060  0.1781 -0.0336 -0.0343
  229loPI   C2A 3656  17.998  17.669   9.679  0.1855 -0.0736  0.0913
  229loPI   C3A 3657  17.925  17.522   9.396 -0.2119  0.1404  0.5148
  229loPI   C4A 3658  18.055  17.531   8.860  0.2099  0.0353 -0.0199
  229loPI   C5A 3659  18.103  17.597   8.369  0.0778 -0.2238  0.1826
  229loPI   C6A 3660  18.121  17.699   7.954  0.0763  0.0408  0.1052
  229loPI   C1B 3661  18.340  17.369   9.976 -0.0950  0.0586 -0.1639
  229loPI   C2B 3662  18.436  17.253   9.622 -0.3244 -0.1097 -0.0156
  229loPI   C3B 3663  18.444  17.121   9.214  0.0217 -0.1124  0.0822
  229loPI   C4B 3664  18.593  17.240   8.887  0.1093 -0.1711  0.1344
  230loPI    C1 3665   1.251  17.744  11.002  0.1113 -0.0318  0.2623
  230loPI    C2 3666   1.519  18.040  11.026 -0.0617  0.1501  0.0113
  230loPI    C3 3667   1.179  18.061  11.236 -0.1050  0.1632 -0.0600
  230loPI   PO4 3668   1.189  17.741  10.708 -0.1855  0.2745  0.0272
  230loPI   GL1 3669   1.238  17.644  10.287  0.0161 -0.1513 -0.2281
  230loPI   GL2 3670   0.995  17.746  10.215 -0.0295  0.6423  0.0380
  230loPI   C1A 3671   1.503  17.450   9.943  0.3766  0.3259  0.3247
  230loPI   C2A 3672   1.408  17.408   9.526  0.0903  0.1624 -0.0143
  230loPI   C3A 3673   1.400  17.502   9.179  0.2319  0.3718 -0.1235
  230loPI   C4A 3674   1.571  17.491   8.728  0.2644  0.0422 -0.4593
  230loPI   C5A 3675   1.522  17.430   8.282  0.2402 -0.2376 -0.2436
  230loPI   C6A 3676   1.736  17.583   7.943  0.1143 -0.5100  0.0145
  230loPI   C1B 3677   1.027  17.705   9.827  0.1102 -0.4661 -0.1491
  230loPI   C2B 3678   0.984  17.751   9.405 -0.1249  0.0246 -0.1695
  230loPI   C3B 3679   1.072  17.802   8.982  0.1651  0.0539 -0.1047
  230loPI   C4B 3680   1.174  17.802   8.496 -0.2147 -0.0831 -0.1045
  231loPI    C1 3681   4.572  12.803  10.756  0.0406  0.1303  0.1448
  231loPI    C2 3682   4.422  12.490  10.956  0.0414  0.0388  0.0032
  231loPI    C3 3683   4.501  12.832  11.149 -0.2812  0.0651  0.0938
  231loPI   PO4 3684   4.540  12.743  10.401  0.0457  0.0225  0.2755
  231loPI   GL1 3685   4.207  12.780  10.116  0.2871 -0.1352  0.0356
  231loPI   GL2 3686   4.405  13.100   9.971  0.2205  0.1066 -0.1517
  231loPI   C1A 3687   4.365  12.703   9.715 -0.0094 -0.1761 -0.0860
  231loPI   C2A 3688   4.405  12.663   9.265  0.1331 -0.2068  0.1783
  231loPI   C3A 3689   4.268  12.761   8.863  0.4602 -0.1364 -0.1195
  231loPI   C4A 3690   4.140  12.896   8.450 -0.0558  0.0987 -0.0532
  231loPI   C5A 3691   4.039  13.114   8.181  0.0545  0.1841 -0.1958
  231loPI   C6A 3692   4.120  13.430   7.857  0.0748  0.4744  0.4064
  231loPI   C1B 3693   4.413  13.200   9.459  0.0808 -0.0086 -0.4133
  231loPI   C2B 3694   4.353  13.179   9.036  0.0171 -0.4278  0.0889
  231loPI   C3B 3695   4.253  13.324   8.634  0.0601  0.2027 -0.1537
  231loPI   C4B 3696   4.428  13.520   8.274  0.0103  0.3472  0.1283
  232loPI    C1 3697  14.806   3.724  10.879  0.1223  0.1492 -0.0552
  232loPI    C2 3698  14.868   3.595  11.253  0.2975  0.3535 -0.0116
  232loPI    C3 3699  14.588   3.872  11.181 -0.0273  0.0130 -0.0947
  232loPI   PO4 3700  15.081   3.635  10.746 -0.0431  0.1959  0.3330
  232loPI   GL1 3701  15.208   3.717  10.378  0.0353  0.1510 -0.0795
  232loPI   GL2 3702  15.429   3.933  10.290 -0.1708  0.0114  0.2177
  232loPI   C1A 3703  15.067   3.427   9.980 -0.0055  0.2089  0.1607
  232loPI   C2A 3704  15.171   3.315   9.597  0.1260  0.0555  0.2997
  232loPI   C3A 3705  15.140   3.315   9.167 -0.0518 -0.1624  0.1101
  232loPI   C4A 3706  15.272   3.235   8.796 -0.2004 -0.2367 -0.3374
  232loPI   C5A 3707  15.262   3.413   8.342 -0.4031 -0.1053 -0.0829
  232loPI   C6A 3708  15.315   3.803   8.343  0.0261  0.0760 -0.0987
  232loPI   C1B 3709  15.571   3.666  10.032  0.0164 -0.0357  0.2538
  232loPI   C2B 3710  15.620   3.545   9.606  0.1001  0.0282  0.0471
  232loPI   C3B 3711  15.665   3.532   9.153 -0.1404 -0.1774 -0.0003
  232loPI   C4B 3712  15.738   3.502   8.735 -0.0385  0.0918  0.0315
  233loPI    C1 3713   1.286  16.493  11.287 -0.2250  0.0926 -0.0976
  233loPI    C2 3714   1.389  16.877  11.331 -0.2420  0.1245 -0.3261
  233loPI    C3 3715   1.015  16.760  11.410 -0.1744  0.1075 -0.0176
  233loPI   PO4 3716   1.371  16.382  11.047 -0.1627 -0.2261  0.0903
  233loPI   GL1 3717   1.170  16.372  10.648 -0.0884 -0.0433  0.0414
  233loPI   GL2 3718   1.028  16.246  10.420 -0.1881  0.1289 -0.0451
  233loPI   C1A 3719   1.454  16.707  10.358  0.3122  0.0310  0.0096
  233loPI   C2A 3720   1.476  16.847   9.864  0.3652  0.4829  0.1409
  233loPI   C3A 3721   1.512  16.940   9.414  0.0688 -0.3518  0.0322
  233loPI   C4A 3722   1.469  16.947   9.008 -0.0132  0.2369 -0.0352
  233loPI   C5A 3723   1.607  17.026   8.588 -0.0219 -0.2030  0.1062
  233loPI   C6A 3724   1.965  17.126   8.511 -0.0278  0.3335  0.2169
  233loPI   C1B 3725   1.019  16.213   9.912 -0.0996 -0.2582 -0.0814
  233loPI   C2B 3726   1.011  16.173   9.507 -0.0640  0.1111  0.0195
  233loPI   C3B 3727   1.098  16.206   9.081  0.2904 -0.0797 -0.2440
  233loPI   C4B 3728   0.972  16.264   8.615  0.1076 -0.1596  0.1221
  234loPI    C1 3729   0.516  11.967  10.766  0.1988  0.0643 -0.0352
  234loPI    C2 3730   0.785  11.756  10.974  0.2333  0.0704 -0.0735
  234loPI    C3 3731   0.606  12.072  11.141  0.1827  0.0120 -0.0167
  234loPI   PO4 3732   0.595  12.037  10.555 -0.2566  0.4041  0.1570
  234loPI   GL1 3733   0.564  11.995  10.128  0.0074  0.0050  0.1027
  234loPI   GL2 3734   0.642  11.774  10.146 -0.0410  0.3339 -0.1274
  234loPI   C1A 3735   0.622  12.213   9.721 -0.1770 -0.0599 -0.0876
  234loPI   C2A 3736   0.649  12.227   9.302  0.0839  0.0198  0.0904
  234loPI   C3A 3737   0.573  12.227   8.844  0.3426 -0.2508  0.0134
  234loPI   C4A 3738   0.481  12.257   8.385 -0.0868  0.4412 -0.0118
  234loPI   C5A 3739   0.581  12.356   8.051 -0.1522  0.1961  0.3336
  234loPI   C6A 3740   0.677  12.736   7.917 -0.1256 -0.0678  0.0482
  234loPI   C1B 3741   0.637  11.699   9.681  0.2516  0.0941  0.1008
  234loPI   C2B 3742   0.611  11.706   9.194  0.0305  0.0344  0.0152
  234loPI   C3B 3743   0.530  11.750   8.721  0.1473  0.1336  0.1195
  234loPI   C4B 3744   0.453  11.771   8.283  0.2072  0.2674  0.0552
  235loPI    C1 3745  16.931   7.975  10.831 -0.0595  0.1421  0.0021
  235loPI    C2 3746  16.547   7.931  10.934 -0.0426  0.4337  0.2013
  235loPI    C3 3747  16.834   7.907  11.213  0.1258 -0.2148 -0.0100
  235loPI   PO4 3748  16.928   8.049  10.646  0.0324  0.1784  0.0183
  235loPI   GL1 3749  16.639   7.857  10.446  0.2898  0.0089 -0.0914
  235loPI   GL2 3750  16.702   7.551  10.255 -0.0472  0.3810 -0.3161
  235loPI   C1A 3751  16.530   7.915   9.972  0.0111 -0.2770 -0.3059
  235loPI   C2A 3752  16.572   7.843   9.497  0.0392  0.0306 -0.1754
  235loPI   C3A 3753  16.557   7.804   9.068 -0.0686  0.2075  0.0023
  235loPI   C4A 3754  16.617   7.784   8.690 -0.0029  0.1204 -0.0134
  235loPI   C5A 3755  16.745   7.596   8.336 -0.2431 -0.3078  0.0387
  235loPI   C6A 3756  17.139   7.343   8.208  0.1016 -0.0907  0.1260
  235loPI   C1B 3757  16.967   7.612   9.931 -0.1345 -0.0097 -0.1545
  235loPI   C2B 3758  17.063   7.634   9.512 -0.0467  0.0280  0.0548
  235loPI   C3B 3759  17.082   7.475   9.108 -0.0743 -0.2901  0.2371
  235loPI   C4B 3760  17.087   7.463   8.713 -0.1186 -0.0418  0.1104
  236loPI    C1 3761   8.365   8.323  10.361 -0.0604 -0.0253  0.0323
  236loPI    C2 3762   8.695   8.101  10.320  0.0962  0.2432 -0.1990
  236loPI    C3 3763   8.532   8.151  10.682  0.0904 -0.1950 -0.1352
  236loPI   PO4 3764   8.375   8.540  10.152  0.2863  0.3143  0.0623
  236loPI   GL1 3765   8.533   8.658   9.854 -0.0482  0.2081 -0.1780
  236loPI   GL2 3766   8.679   8.928   9.730 -0.2783  0.0335 -0.1716
  236loPI   C1A 3767   8.337   8.694   9.483 -0.1109 -0.0695  0.1085
  236loPI   C2A 3768   8.382   8.766   9.043 -0.1009 -0.0038  0.2270
  236loPI   C3A 3769   8.356   8.799   8.643  0.0037 -0.2177  0.1509
  236loPI   C4A 3770   8.312   8.877   8.199 -0.0075 -0.6328 -0.0038
  236loPI   C5A 3771   7.966   8.802   7.916  0.1666 -0.4166  0.0517
  236loPI   C6A 3772   7.847   8.982   7.593  0.4189 -0.0868 -0.3151
  236loPI   C1B 3773   8.842   9.033   9.350  0.2027 -0.0940  0.1357
  236loPI   C2B 3774   8.788   9.051   8.920  0.0591  0.2303  0.1849
  236loPI   C3B 3775   8.880   9.083   8.476  0.2949 -0.1096 -0.0176
  236loPI   C4B 3776   8.908   8.773   8.153  0.0927  0.1365  0.1946
  237loPI    C1 3777   7.471   7.941  10.252 -0.2400  0.0183 -0.0002
  237loPI    C2 3778   7.435   8.131  10.602 -0.0255 -0.1800  0.1326
  237loPI    C3 3779   7.530   7.743  10.595  0.3843 -0.0818 -0.1530
  237loPI   PO4 3780   7.530   8.135  10.099 -0.2412 -0.1903  0.1484
  237loPI   GL1 3781   7.547   8.492   9.867 -0.0364  0.0907  0.4364
  237loPI   GL2 3782   7.905   8.476   9.729  0.2480  0.2332  0.2405
  237loPI   C1A 3783   7.511   8.685   9.487  0.0714  0.0237 -0.2647
  237loPI   C2A 3784   7.405   8.776   9.089  0.2777 -0.0034 -0.0814
  237loPI   C3A 3785   7.474   8.796   8.698  0.1051 -0.3903 -0.0954
  237loPI   C4A 3786   7.407   8.758   8.274  0.0256  0.1775  0.0197
  237loPI   C5A 3787   7.285   8.602   7.807  0.1338 -0.2074 -0.1464
  237loPI   C6A 3788   7.206   8.380   7.382  0.2383  0.1263 -0.3637
  237loPI   C1B 3789   7.930   8.421   9.293 -0.0053 -0.0299 -0.0623
  237loPI   C2B 3790   7.892   8.527   8.874  0.1953 -0.2550 -0.1913
  237loPI   C3B 3791   7.884   8.657   8.472  0.0074 -0.1754 -0.0596
  237loPI   C4B 3792   7.793   8.401   8.126 -0.0821  0.0934  0.2779
  238loPI    C1 3793   5.790   1.093  10.648  0.0050 -0.0114 -0.0492
  238loPI    C2 3794   5.841   1.451  10.820  0.0726  0.0421 -0.1790
  238loPI    C3 3795   5.494   1.256  10.862  0.2612 -0.1817  0.4519
  238loPI   PO4 3796   5.910   1.113  10.429  0.1393 -0.3393 -0.2046
  238loPI   GL1 3797   5.911   1.003   9.970 -0.0250 -0.0692  0.0293
  238loPI   GL2 3798   6.099   1.230   9.725  0.0267 -0.2615  0.2174
  238loPI   C1A 3799   5.646   1.055   9.646  0.5114  0.0027 -0.0921
  238loPI   C2A 3800   5.544   0.964   9.242  0.0433 -0.0744 -0.2259
  238loPI   C3A 3801   5.448   0.932   8.807  0.0529  0.2628 -0.2361
  238loPI   C4A 3802   5.259   0.893   8.425 -0.0844 -0.1735  0.0148
  238loPI   C5A 3803   5.168   0.720   8.094 -0.1511 -0.0324  0.0050
  238loPI   C6A 3804   5.457   0.484   7.819  0.4500 -0.0386 -0.0487
  238loPI   C1B 3805   5.959   1.245   9.312  0.0646  0.1388  0.0468
  238loPI   C2B 3806   6.017   1.265   8.955  0.2346  0.0914 -0.1602
  238loPI   C3B 3807   5.962   1.151   8.615 -0.1199 -0.0939  0.1507
  238loPI   C4B 3808   5.855   0.890   8.355 -0.0088  0.0760  0.1284
  239loPI    C1 3809   4.062   3.235  10.623 -0.1415 -0.0778  0.0821
  239loPI    C2 3810   4.025   3.251  11.021 -0.0073 -0.0996  0.0961
  239loPI    C3 3811   4.052   3.589  10.809 -0.1124 -0.0872  0.1019
  239loPI   PO4 3812   3.843   3.030  10.504 -0.0215 -0.0007  0.3266
  239loPI   GL1 3813   3.625   3.017  10.136 -0.3681 -0.1350 -0.1882
  239loPI   GL2 3814   3.597   2.602   9.960 -0.2842 -0.1905  0.3056
  239loPI   C1A 3815   3.610   3.094   9.752  0.1659  0.1981 -0.0662
  239loPI   C2A 3816   3.626   3.068   9.278  0.1412 -0.2012  0.1891
  239loPI   C3A 3817   3.624   3.074   8.845  0.1370 -0.1701 -0.0697
  239loPI   C4A 3818   3.618   2.928   8.452 -0.3036  0.5986  0.0282
  239loPI   C5A 3819   3.542   2.946   8.033  0.0377 -0.0039 -0.1286
  239loPI   C6A 3820   3.696   2.885   7.657 -0.0966 -0.0267 -0.2351
  239loPI   C1B 3821   3.623   2.555   9.541  0.0397  0.0498  0.1968
  239loPI   C2B 3822   3.644   2.544   9.087  0.0544  0.0282  0.0601
  239loPI   C3B 3823   3.695   2.448   8.634  0.0424  0.1328 -0.2401
  239loPI   C4B 3824   3.664   2.487   8.156  0.3885  0.0075  0.0760
  240loPI    C1 3825   0.886  17.249  10.973  0.0386  0.0006  0.1128
  240loPI    C2 3826   0.720  17.200  11.334 -0.1136  0.3535  0.0951
  240loPI    C3 3827   1.086  17.356  11.303  0.0471 -0.0089  0.1107
  240loPI   PO4 3828   0.695  17.425  10.895  0.1018 -0.1347  0.2195
  240loPI   GL1 3829   0.387  17.412  10.567  0.2797  0.2494  0.2520
  240loPI   GL2 3830   0.590  17.662  10.428  0.2072 -0.2099 -0.3803
  240loPI   C1A 3831   0.059  17.793  10.274 -0.4139  0.0465  0.2218
  240loPI   C2A 3832   0.138  17.837   9.863 -0.1863  0.1648 -0.1322
  240loPI   C3A 3833   0.067  17.814   9.447  0.3540 -0.1762  0.0866
  240loPI   C4A 3834   0.153  17.731   9.035  0.1469 -0.0406 -0.0588
  240loPI   C5A 3835   0.281  17.761   8.568  0.0052 -0.1118  0.0324
  240loPI   C6A 3836   0.166  18.010   8.217  0.1002 -0.3236  0.1723
  240loPI   C1B 3837   0.534  17.534   9.974 -0.2288 -0.3790  0.2697
  240loPI   C2B 3838   0.541  17.484   9.566 -0.1391  0.2031 -0.2825
  240loPI   C3B 3839   0.678  17.482   9.175  0.0008  0.0939  0.2150
  240loPI   C4B 3840   0.695  17.493   8.699  0.1701  0.1945 -0.0044
  241loPI    C1 3841  13.004  11.422  10.786  0.0005 -0.2464  0.0215
  241loPI    C2 3842  13.306  11.363  11.042 -0.0265 -0.1137  0.0850
  241loPI    C3 3843  12.968  11.537  11.168  0.0851  0.2582 -0.1154
  241loPI   PO4 3844  13.058  11.132  10.615 -0.3313 -0.0953  0.0336
  241loPI   GL1 3845  13.267  11.427  10.270  0.0081  0.0673 -0.3524
  241loPI   GL2 3846  13.586  11.484  10.131 -0.0941 -0.0712  0.1751
  241loPI   C1A 3847  13.175  11.458   9.865  0.3392  0.0020 -0.2866
  241loPI   C2A 3848  13.008  11.429   9.422  0.0623  0.0754 -0.0704
  241loPI   C3A 3849  12.956  11.437   9.058 -0.0195  0.3725 -0.2977
  241loPI   C4A 3850  12.886  11.360   8.676 -0.0692  0.2207 -0.0173
  241loPI   C5A 3851  12.945  11.506   8.181 -0.3439 -0.1378  0.1013
  241loPI   C6A 3852  13.028  11.322   7.705 -0.1258  0.3019 -0.2644
  241loPI   C1B 3853  13.584  11.640   9.755 -0.0764 -0.1942  0.0311
  241loPI   C2B 3854  13.450  11.814   9.322  0.0336 -0.0877 -0.0043
  241loPI   C3B 3855  13.380  11.697   8.947  0.0816  0.0683  0.0231
  241loPI   C4B 3856  13.376  11.596   8.436  0.1366 -0.0692 -0.2738
  242loPI    C1 3857  16.888  12.464  10.907  0.2206  0.0726 -0.0122
  242loPI    C2 3858  17.039  12.094  10.936 -0.0128  0.0001  0.3477
  242loPI    C3 3859  17.270  12.412  11.013  0.1222 -0.0809  0.2798
  242loPI   PO4 3860  16.836  12.454  10.655  0.0180  0.2528 -0.2335
  242loPI   GL1 3861  16.731  12.512  10.278  0.2986 -0.0342 -0.3744
  242loPI   GL2 3862  17.001  12.685  10.200 -0.1522 -0.1525 -0.1448
  242loPI   C1A 3863  16.637  12.423   9.913 -0.0003  0.3843  0.0852
  242loPI   C2A 3864  16.591  12.485   9.436 -0.0361  0.1624  0.3636
  242loPI   C3A 3865  16.511  12.425   8.980  0.1732 -0.2422 -0.3302
  242loPI   C4A 3866  16.701  12.573   8.674 -0.2950  0.3116  0.0743
  242loPI   C5A 3867  16.729  12.728   8.260  0.0588  0.3629 -0.1475
  242loPI   C6A 3868  16.948  12.398   8.022  0.0442 -0.2025  0.1102
  242loPI   C1B 3869  17.152  12.755   9.848 -0.1296 -0.0916 -0.1207
  242loPI   C2B 3870  17.157  12.728   9.461  0.0331 -0.1979  0.2081
  242loPI   C3B 3871  17.011  12.691   9.045 -0.0804  0.1604  0.0277
  242loPI   C4B 3872  17.122  12.840   8.606 -0.2204  0.2777  0.1806
  243loPI    C1 3873   9.042  17.898  10.452  0.1158  0.1791  0.0846
  243loPI    C2 3874   9.248  18.185  10.639 -0.0238  0.1718  0.2520
  243loPI    C3 3875   9.197  17.830  10.815  0.0986  0.0627  0.0704
  243loPI   PO4 3876   9.166  17.935  10.225  0.0596  0.2099 -0.1932
  243loPI   GL1 3877   9.214  17.823   9.790 -0.1010 -0.0756 -0.3024
  243loPI   GL2 3878   8.864  17.703   9.677 -0.5810 -0.1320  0.0037
  243loPI   C1A 3879   9.277  17.851   9.316 -0.4172  0.2722 -0.0911
  243loPI   C2A 3880   9.299  17.728   8.845  0.0684  0.2749  0.1042
  243loPI   C3A 3881   9.306  17.806   8.400 -0.2608 -0.0180 -0.0022
  243loPI   C4A 3882   9.269  17.664   8.003  0.0741 -0.0501 -0.0276
  243loPI   C5A 3883   9.012  17.504   7.662 -0.2114  0.3342  0.0476
  243loPI   C6A 3884   8.733  17.611   7.375  0.0861 -0.1870  0.0656
  243loPI   C1B 3885   8.844  17.537   9.313 -0.1899 -0.1964  0.3301
  243loPI   C2B 3886   8.762  17.442   8.888 -0.3178  0.1054  0.1538
  243loPI   C3B 3887   8.863  17.429   8.442 -0.0088  0.1141  0.2616
  243loPI   C4B 3888   8.808  17.250   8.093 -0.0084  0.3540 -0.2244
  244loPI    C1 3889  13.363   4.232  10.606  0.1092  0.0365 -0.0966
  244loPI    C2 3890  13.702   4.174  10.809  0.0802  0.2737  0.0229
  244loPI    C3 3891  13.394   4.360  10.983 -0.1370 -0.0014 -0.0618
  244loPI   PO4 3892  13.415   4.337  10.299  0.1179  0.0568 -0.1733
  244loPI   GL1 3893  13.480   4.143   9.961 -0.0277 -0.1077  0.2252
  244loPI   GL2 3894  13.655   3.829   9.962 -0.1143  0.1104  0.2530
  244loPI   C1A 3895  13.808   4.130   9.619 -0.0649  0.0064  0.2594
  244loPI   C2A 3896  13.861   4.119   9.198  0.1154 -0.2515 -0.4297
  244loPI   C3A 3897  13.877   4.046   8.692  0.0097 -0.0451  0.0706
  244loPI   C4A 3898  13.892   4.159   8.341  0.4990  0.0366  0.0392
  244loPI   C5A 3899  13.942   4.083   7.952  0.1756  0.0481  0.1819
  244loPI   C6A 3900  14.122   4.104   7.577 -0.0769  0.1329  0.2864
  244loPI   C1B 3901  13.699   3.588   9.632  0.0650 -0.0423 -0.1387
  244loPI   C2B 3902  13.834   3.603   9.221  0.0134 -0.1560  0.1324
  244loPI   C3B 3903  13.866   3.553   8.845 -0.3651 -0.1357  0.0033
  244loPI   C4B 3904  13.992   3.599   8.470  0.0015  0.2947 -0.0946
  245loPI    C1 3905   0.888   3.876  10.670  0.0637 -0.0493 -0.1375
  245loPI    C2 3906   0.944   3.941  11.060  0.0582 -0.2026 -0.1106
  245loPI    C3 3907   1.009   4.235  10.797 -0.0307 -0.0702  0.0139
  245loPI   PO4 3908   0.620   3.807  10.634  0.0183  0.3179 -0.0778
  245loPI   GL1 3909   0.475   3.920  10.136  0.0596 -0.1653 -0.0280
  245loPI   GL2 3910   0.637   4.169  10.283  0.0032  0.0952 -0.0398
  245loPI   C1A 3911   0.510   3.847   9.705 -0.0082 -0.2358  0.0617
  245loPI   C2A 3912   0.458   3.840   9.296  0.2265  0.0142  0.0458
  245loPI   C3A 3913   0.487   3.784   8.907  0.0834  0.1595  0.0078
  245loPI   C4A 3914   0.391   3.863   8.403  0.0230  0.0371 -0.1913
  245loPI   C5A 3915   0.556   3.785   8.021 -0.0940  0.3568  0.0153
  245loPI   C6A 3916   0.581   3.973   7.645  0.1251 -0.2374  0.1525
  245loPI   C1B 3917   0.905   4.077   9.842  0.0751 -0.3785  0.3343
  245loPI   C2B 3918   0.949   4.024   9.475  0.0547  0.0520 -0.1273
  245loPI   C3B 3919   0.885   4.089   9.145  0.1295 -0.1748 -0.0944
  245loPI   C4B 3920   0.780   4.063   8.659  0.1863  0.0530  0.0874
  246loPI    C1 3921   3.843  12.903  10.492  0.1150  0.0956 -0.1571
  246loPI    C2 3922   3.701  12.944  10.863 -0.1463 -0.5771 -0.1676
  246loPI    C3 3923   4.094  12.896  10.804 -0.0666 -0.1607 -0.0124
  246loPI   PO4 3924   3.782  12.642  10.413  0.1133 -0.2126 -0.0337
  246loPI   GL1 3925   3.691  12.467  10.094 -0.0001 -0.1156  0.0725
  246loPI   GL2 3926   3.422  12.784  10.061 -0.3064 -0.1512 -0.2378
  246loPI   C1A 3927   3.905  12.423   9.662 -0.1115  0.0573  0.0671
  246loPI   C2A 3928   3.932  12.470   9.298  0.1768 -0.0069 -0.0034
  246loPI   C3A 3929   3.760  12.491   8.884  0.2031  0.1129  0.2076
  246loPI   C4A 3930   3.704  12.609   8.548  0.0371  0.1238 -0.0702
  246loPI   C5A 3931   3.647  12.770   8.088 -0.2260 -0.0176  0.1809
  246loPI   C6A 3932   3.346  12.903   7.719  0.1845 -0.1234  0.0263
  246loPI   C1B 3933   3.450  12.714   9.631 -0.0277  0.0294  0.2001
  246loPI   C2B 3934   3.462  12.802   9.219  0.0891 -0.0103  0.1182
  246loPI   C3B 3935   3.343  12.840   8.744  0.1360 -0.0710  0.0276
  246loPI   C4B 3936   3.217  12.828   8.285 -0.1806 -0.0254  0.1336
  247loPI    C1 3937   4.130   4.116  10.644  0.6199 -0.2227  0.3060
  247loPI    C2 3938   4.090   4.511  10.697  0.1902 -0.1999 -0.1245
  247loPI    C3 3939   3.927   4.257  10.960  0.3751 -0.0938  0.0954
  247loPI   PO4 3940   4.420   4.071  10.574 -0.0197  0.0890 -0.1774
  247loPI   GL1 3941   4.493   3.989  10.196 -0.1009 -0.1943  0.2045
  247loPI   GL2 3942   4.110   3.806  10.154  0.3190  0.2184 -0.0469
  247loPI   C1A 3943   4.277   4.262   9.995 -0.0918  0.2082 -0.1147
  247loPI   C2A 3944   4.155   4.393   9.507 -0.1104 -0.0597 -0.1796
  247loPI   C3A 3945   4.159   4.340   9.070  0.2933 -0.0090 -0.0905
  247loPI   C4A 3946   4.221   4.305   8.699 -0.1015  0.0604 -0.2048
  247loPI   C5A 3947   4.235   4.132   8.348 -0.0010  0.1473 -0.0197
  247loPI   C6A 3948   4.505   3.853   8.036  0.2811  0.0040  0.3109
  247loPI   C1B 3949   3.851   4.016   9.786  0.0743  0.2266  0.2189
  247loPI   C2B 3950   3.639   4.128   9.369  0.1860  0.1003 -0.1060
  247loPI   C3B 3951   3.640   4.051   8.916  0.1101  0.0161 -0.2195
  247loPI   C4B 3952   3.755   4.123   8.556 -0.1131  0.3246  0.2187
  248loPI    C1 3953  12.810   4.975  10.493  0.3491 -0.0439 -0.0646
  248loPI    C2 3954  12.977   4.888  10.846 -0.1918  0.1312  0.2451
  248loPI    C3 3955  12.659   4.682  10.719  0.0795 -0.0197 -0.2099
  248loPI   PO4 3956  12.965   5.005  10.264 -0.0676 -0.1044  0.2912
  248loPI   GL1 3957  13.187   4.720  10.034  0.1868 -0.3351  0.0929
  248loPI   GL2 3958  12.933   4.848   9.701  0.2703 -0.2624 -0.0377
  248loPI   C1A 3959  13.224   4.488   9.665 -0.1123  0.4315 -0.0817
  248loPI   C2A 3960  13.404   4.367   9.219  0.0244  0.1389 -0.1995
  248loPI   C3A 3961  13.417   4.293   8.772 -0.2231 -0.0407 -0.2041
  248loPI   C4A 3962  13.129   4.050   8.473 -0.0334 -0.4451  0.0686
  248loPI   C5A 3963  13.121   3.920   8.112 -0.1103 -0.2602  0.1004
  248loPI   C6A 3964  13.353   3.655   7.796  0.1571  0.2445 -0.1551
  248loPI   C1B 3965  13.081   4.814   9.343 -0.1117  0.3875  0.2057
  248loPI   C2B 3966  13.233   4.737   8.943  0.0419 -0.0488  0.0931
  248loPI   C3B 3967  13.422   4.888   8.665  0.0934 -0.0755  0.1248
  248loPI   C4B 3968  13.574   4.901   8.213  0.0750  0.3895  0.2344
  249loPI    C1 3969  12.064  16.112  10.608 -0.0334 -0.0617  0.1243
  249loPI    C2 3970  11.756  16.066  10.357  0.0671 -0.0735  0.0021
  249loPI    C3 3971  11.733  15.923  10.730 -0.0446 -0.1439 -0.0311
  249loPI   PO4 3972  12.230  16.212  10.495  0.2007 -0.0117 -0.1525
  249loPI   GL1 3973  12.279  16.472  10.165 -0.1420  0.2118 -0.2340
  249loPI   GL2 3974  12.137  16.699  10.285  0.0885  0.2658  0.0376
  249loPI   C1A 3975  12.005  16.161   9.897 -0.2952  0.0524  0.2879
  249loPI   C2A 3976  12.025  16.178   9.495  0.0474  0.1959 -0.1789
  249loPI   C3A 3977  12.024  16.112   9.125 -0.2522  0.5565  0.0159
  249loPI   C4A 3978  11.980  16.161   8.705 -0.0824 -0.0998  0.2517
  249loPI   C5A 3979  12.075  16.237   8.190  0.0448 -0.2586 -0.2478
  249loPI   C6A 3980  11.933  16.566   7.905  0.2720  0.0406 -0.1541
  249loPI   C1B 3981  11.979  16.625   9.810 -0.0235 -0.3104 -0.0524
  249loPI   C2B 3982  12.042  16.685   9.483 -0.0156  0.2322 -0.1748
  249loPI   C3B 3983  12.029  16.599   9.002 -0.0462  0.2413 -0.0953
  249loPI   C4B 3984  12.001  16.627   8.520  0.2833  0.0324  0.0471
  250loPI    C1 3985   0.943   1.264  11.256  0.2783 -0.1698 -0.1884
  250loPI    C2 3986   1.300   1.445  11.249  0.1587  0.0873  0.1256
  250loPI    C3 3987   1.173   1.266  11.583 -0.0016 -0.0165  0.0108
  250loPI   PO4 3988   0.898   1.171  11.002 -0.1769  0.0330 -0.0182
  250loPI   GL1 3989   0.746   1.114  10.612 -0.2352  0.3584 -0.0397
  250loPI   GL2 3990   1.027   1.064  10.494 -0.0954  0.1150  0.0848
  250loPI   C1A 3991   0.636   1.252  10.180  0.0341  0.1456  0.1321
  250loPI   C2A 3992   0.582   1.199   9.737 -0.0882 -0.1402 -0.1336
  250loPI   C3A 3993   0.517   1.236   9.380  0.0381 -0.1294 -0.1794
  250loPI   C4A 3994   0.561   1.230   8.948  0.1235  0.0405 -0.1916
  250loPI   C5A 3995   0.579   1.117   8.457 -0.0655  0.1110  0.0611
  250loPI   C6A 3996   0.262   1.025   8.274 -0.0702 -0.0177  0.1515
  250loPI   C1B 3997   0.987   0.933  10.007 -0.3143 -0.0043  0.0933
  250loPI   C2B 3998   0.973   0.967   9.549  0.0991 -0.3461 -0.2498
  250loPI   C3B 3999   1.075   0.950   9.065 -0.1683  0.0872 -0.2030
  250loPI   C4B 4000   1.051   0.981   8.625 -0.1515 -0.2724  0.2358
  251loPI    C1 4001  15.983  13.005  11.011 -0.3137  0.0682  0.2068
  251loPI    C2 4002  15.919  13.341  11.217 -0.1393 -0.0463  0.4533
  251loPI    C3 4003  16.212  13.092  11.327  0.1794  0.0517 -0.1339
  251loPI   PO4 4004  15.998  13.045  10.768 -0.0026  0.0776 -0.0445
  251loPI   GL1 4005  16.007  12.854  10.335  0.1762 -0.0459 -0.0663
  251loPI   GL2 4006  15.788  12.885  10.137 -0.0519  0.1003  0.1982
  251loPI   C1A 4007  16.236  12.691   9.947  0.3667  0.2128 -0.2228
  251loPI   C2A 4008  16.189  12.716   9.519 -0.1080  0.0491 -0.1623
  251loPI   C3A 4009  16.111  12.722   9.097  0.1037 -0.2342  0.2407
  251loPI   C4A 4010  16.142  12.662   8.678  0.4325 -0.0901  0.0478
  251loPI   C5A 4011  16.175  12.637   8.279  0.0484  0.2138 -0.0295
  251loPI   C6A 4012  15.962  12.859   7.948  0.1764  0.2764 -0.3159
  251loPI   C1B 4013  15.752  12.864   9.638  0.1755  0.1027 -0.0508
  251loPI   C2B 4014  15.700  12.914   9.220  0.0131 -0.4260 -0.0814
  251loPI   C3B 4015  15.684  12.918   8.776  0.0389 -0.1424  0.1966
  251loPI   C4B 4016  15.569  12.944   8.226 -0.4543  0.0689  0.1985
  252loPI    C1 4017   0.933   8.147  10.800  0.1634 -0.1600  0.2190
  252loPI    C2 4018   0.668   8.380  10.990  0.2277  0.0999 -0.0038
  252loPI    C3 4019   0.880   8.110  11.195 -0.0527  0.0386  0.2112
  252loPI   PO4 4020   0.934   8.301  10.545 -0.0339 -0.0171  0.0023
  252loPI   GL1 4021   0.859   8.485  10.128  0.2463  0.3002 -0.1385
  252loPI   GL2 4022   0.487   8.520  10.112 -0.1243 -0.0677 -0.2311
  252loPI   C1A 4023   0.946   8.389   9.703  0.1007  0.2796 -0.2491
  252loPI   C2A 4024   0.873   8.286   9.227  0.2390 -0.0641 -0.0043
  252loPI   C3A 4025   0.956   8.243   8.845 -0.0128 -0.2017 -0.2501
  252loPI   C4A 4026   0.926   8.218   8.420 -0.0988  0.0919 -0.0959
  252loPI   C5A 4027   0.936   8.404   7.928 -0.1599 -0.0132 -0.3395
  252loPI   C6A 4028   0.712   8.240   7.466 -0.0631  0.0309 -0.0233
  252loPI   C1B 4029   0.516   8.682   9.744  0.0872  0.0878 -0.2447
  252loPI   C2B 4030   0.520   8.599   9.431  0.0448 -0.2876 -0.2436
  252loPI   C3B 4031   0.417   8.565   9.024  0.1176  0.0117 -0.3777
  252loPI   C4B 4032   0.463   8.471   8.641 -0.0254  0.2925 -0.0613
  253loPI    C1 4033   9.287   0.604  10.164 -0.0570  0.1201  0.0678
  253loPI    C2 4034   9.317   0.431  10.523 -0.0464 -0.0298 -0.0049
  253loPI    C3 4035   9.105   0.767  10.480 -0.0357 -0.0037  0.1444
  253loPI   PO4 4036   9.263   0.407  10.019  0.2286 -0.2244 -0.0916
  253loPI   GL1 4037   9.161   0.142   9.697  0.2882 -0.0305  0.2069
  253loPI   GL2 4038   8.945  -0.060   9.836  0.0385 -0.1961  0.0691
  253loPI   C1A 4039   9.263   0.030   9.281 -0.1063 -0.2536  0.0027
  253loPI   C2A 4040   9.262  -0.101   9.001 -0.0292 -0.0859  0.3822
  253loPI   C3A 4041   9.365  -0.069   8.584  0.2034  0.3254 -0.5810
  253loPI   C4A 4042   9.351  -0.171   8.047 -0.0874 -0.0503  0.2836
  253loPI   C5A 4043   9.103  -0.227   7.682  0.0954  0.3791 -0.3280
  253loPI   C6A 4044   9.007  -0.154   7.341 -0.2183 -0.2064  0.1035
  253loPI   C1B 4045   8.891  -0.157   9.417 -0.0223  0.0233 -0.0667
  253loPI   C2B 4046   8.854  -0.406   9.021  0.1103  0.0055 -0.1833
  253loPI   C3B 4047   8.897  -0.303   8.615  0.2456  0.1094  0.2005
  253loPI   C4B 4048   8.775  -0.459   8.186  0.0329 -0.0834 -0.2295
  254loPI    C1 4049  13.904   0.850  10.848 -0.1641 -0.0671  0.0822
  254loPI    C2 4050  13.611   0.607  10.972  0.0229 -0.2483  0.1750
  254loPI    C3 4051  13.686   0.947  11.170 -0.1454 -0.1841  0.1304
  254loPI   PO4 4052  13.882   0.965  10.608  0.1416 -0.1567  0.3554
  254loPI   GL1 4053  13.853   0.947  10.271 -0.0552  0.0533 -0.3267
  254loPI   GL2 4054  13.872   1.143  10.001 -0.1042 -0.0984 -0.0847
  254loPI   C1A 4055  13.939   0.600   9.944  0.0705  0.2415 -0.0094
  254loPI   C2A 4056  13.892   0.511   9.578 -0.0946 -0.0288 -0.1494
  254loPI   C3A 4057  13.942   0.453   9.176  0.4055 -0.1214 -0.4337
  254loPI   C4A 4058  13.951   0.353   8.741  0.2054 -0.0121 -0.1453
  254loPI   C5A 4059  14.066   0.377   8.306  0.0015 -0.1034  0.0231
  254loPI   C6A 4060  13.693   0.574   7.988 -0.3205  0.4117  0.0486
  254loPI   C1B 4061  13.896   1.060   9.610 -0.2012 -0.0597  0.0794
  254loPI   C2B 4062  13.829   1.030   9.183 -0.1032  0.1135 -0.0229
  254loPI   C3B 4063  13.949   0.935   8.714  0.2211  0.4034  0.1201
  254loPI   C4B 4064  13.874   0.917   8.299 -0.0304  0.1373  0.1068
  255loPI    C1 4065  13.405  13.799  11.017 -0.0124  0.3024 -0.0079
  255loPI    C2 4066  13.542  13.867  11.387  0.0479  0.1631 -0.0040
  255loPI    C3 4067  13.244  14.089  11.239 -0.0468  0.1512  0.1671
  255loPI   PO4 4068  13.618  13.805  10.871 -0.1445 -0.3657  0.0247
  255loPI   GL1 4069  13.741  13.838  10.456  0.1015 -0.0572  0.0354
  255loPI   GL2 4070  14.054  14.090  10.324 -0.2141 -0.0348 -0.1855
  255loPI   C1A 4071  13.548  13.762  10.095  0.0428 -0.2309  0.1500
  255loPI   C2A 4072  13.439  13.883   9.668  0.2044 -0.2852  0.0730
  255loPI   C3A 4073  13.390  13.762   9.264 -0.1135 -0.2273 -0.0947
  255loPI   C4A 4074  13.314  13.839   8.835  0.0047 -0.3176 -0.0313
  255loPI   C5A 4075  13.235  13.707   8.416 -0.0404 -0.0330  0.1665
  255loPI   C6A 4076  12.995  13.825   7.977 -0.1007  0.0866 -0.0245
  255loPI   C1B 4077  13.941  14.061   9.890  0.1093  0.1393 -0.2707
  255loPI   C2B 4078  13.905  13.973   9.325 -0.1533 -0.0770 -0.0084
  255loPI   C3B 4079  13.779  14.041   8.899 -0.0521  0.3105 -0.0966
  255loPI   C4B 4080  13.676  14.091   8.456  0.0917 -0.1605  0.0156
  256loPI    C1 4081   4.493  10.339  10.777 -0.2473  0.0438  0.0309
  256loPI    C2 4082   4.590   9.954  10.826 -0.1074  0.0555 -0.1442
  256loPI    C3 4083   4.517  10.184  11.145 -0.0773 -0.0866 -0.0336
  256loPI   PO4 4084   4.483  10.268  10.397 -0.1303 -0.2293  0.0344
  256loPI   GL1 4085   4.471  10.477  10.091  0.2826  0.2186  0.2864
  256loPI   GL2 4086   4.317  10.167   9.950 -0.3055  0.2898 -0.1790
  256loPI   C1A 4087   4.408  10.563   9.624 -0.0779 -0.2446  0.1099
  256loPI   C2A 4088   4.187  10.679   9.186  0.0272 -0.0812  0.1826
  256loPI   C3A 4089   4.107  10.728   8.814  0.2790 -0.1056 -0.1919
  256loPI   C4A 4090   4.029  10.699   8.408  0.1139 -0.0168  0.0242
  256loPI   C5A 4091   4.296  10.732   8.045  0.5508 -0.0994  0.1009
  256loPI   C6A 4092   4.646  10.722   7.794  0.0128  0.0317 -0.0125
  256loPI   C1B 4093   4.317  10.104   9.534  0.0717  0.3594 -0.3202
  256loPI   C2B 4094   4.280  10.142   9.135 -0.1901  0.0011 -0.2239
  256loPI   C3B 4095   4.176  10.089   8.731 -0.3956  0.1682 -0.1780
  256loPI   C4B 4096   3.999  10.198   8.386  0.1010 -0.1556 -0.0725
  257loPI    C1 4097   5.765  14.397  10.909  0.0394 -0.0026 -0.0160
  257loPI    C2 4098   6.056  14.209  11.108  0.0378 -0.1545 -0.1549
  257loPI    C3 4099   5.824  14.474  11.296  0.1496 -0.1659  0.0007
  257loPI   PO4 4100   5.833  14.460  10.676 -0.0692  0.0576  0.1007
  257loPI   GL1 4101   5.777  14.263  10.290  0.1628 -0.2390 -0.0798
  257loPI   GL2 4102   5.796  14.661  10.157 -0.1340  0.2295 -0.3171
  257loPI   C1A 4103   5.790  14.121   9.864 -0.1665  0.3646  0.0133
  257loPI   C2A 4104   5.679  13.987   9.410  0.0407 -0.2259  0.4476
  257loPI   C3A 4105   5.568  14.036   8.955  0.1398  0.6334  0.1089
  257loPI   C4A 4106   5.591  13.892   8.524 -0.0243 -0.3014 -0.3073
  257loPI   C5A 4107   5.659  14.045   8.117 -0.1324 -0.1076  0.0574
  257loPI   C6A 4108   5.440  14.037   7.719 -0.0050  0.1746  0.2689
  257loPI   C1B 4109   5.765  14.592   9.790 -0.1068  0.0301 -0.0319
  257loPI   C2B 4110   5.711  14.493   9.350  0.1091  0.0139 -0.0350
  257loPI   C3B 4111   5.593  14.576   8.926  0.0957 -0.3493 -0.1068
  257loPI   C4B 4112   5.538  14.406   8.513 -0.1457 -0.2378 -0.0151
  258loPI    C1 4113   9.869   2.860   9.997  0.0324  0.3457 -0.0920
  258loPI    C2 4114   9.869   3.084  10.329  0.2100  0.1699  0.0295
  258loPI    C3 4115   9.702   3.223   9.993  0.1808  0.4193  0.1449
  258loPI   PO4 4116  10.113   2.830   9.951  0.0273  0.1289 -0.0005
  258loPI   GL1 4117  10.267   2.709   9.560  0.1213 -0.0570  0.3381
  258loPI   GL2 4118  10.497   2.903   9.548  0.0009 -0.0725 -0.0970
  258loPI   C1A 4119  10.235   2.567   9.175  0.0658  0.0961 -0.2062
  258loPI   C2A 4120  10.364   2.265   8.830  0.0845  0.0169  0.0456
  258loPI   C3A 4121  10.318   2.088   8.419 -0.0680 -0.3099  0.2292
  258loPI   C4A 4122  10.300   1.998   8.096  0.0193 -0.0650 -0.0172
  258loPI   C5A 4123  10.139   1.857   7.696  0.0530  0.1253 -0.2885
  258loPI   C6A 4124  10.104   1.694   7.227  0.0948 -0.3688 -0.4789
  258loPI   C1B 4125  10.394   3.052   9.149 -0.0790  0.1222  0.5459
  258loPI   C2B 4126  10.465   3.262   8.791  0.2778 -0.0276 -0.2734
  258loPI   C3B 4127  10.587   3.481   8.495 -0.0127  0.1281 -0.1814
  258loPI   C4B 4128  10.485   3.511   8.111 -0.3159 -0.0937  0.0935
  259loPI    C1 4129  15.211  12.717  11.015  0.2343 -0.1467  0.0188
  259loPI    C2 4130  14.904  12.555  11.214  0.2631  0.0730  0.2469
  259loPI    C3 4131  15.235  12.340  11.148 -0.0025 -0.2260 -0.1567
  259loPI   PO4 4132  15.060  12.824  10.705 -0.0034 -0.3477  0.0679
  259loPI   GL1 4133  14.835  12.660  10.376  0.1664 -0.1028  0.2716
  259loPI   GL2 4134  14.795  12.940  10.210 -0.1321  0.0832 -0.0328
  259loPI   C1A 4135  14.795  12.535   9.913 -0.4121  0.0182  0.1075
  259loPI   C2A 4136  14.810  12.531   9.546  0.1299 -0.0292  0.2727
  259loPI   C3A 4137  14.783  12.466   9.028 -0.1383  0.1742 -0.0351
  259loPI   C4A 4138  14.818  12.456   8.602 -0.2097 -0.3983 -0.1906
  259loPI   C5A 4139  14.596  12.582   8.192 -0.0788 -0.0907 -0.0275
  259loPI   C6A 4140  14.419  12.458   7.860 -0.1716 -0.0756  0.4538
  259loPI   C1B 4141  14.899  13.024   9.768 -0.1763  0.1866  0.1133
  259loPI   C2B 4142  14.811  12.985   9.255 -0.2261 -0.1674  0.1118
  259loPI   C3B 4143  14.873  12.941   8.779 -0.0076 -0.2240  0.0685
  259loPI   C4B 4144  14.756  12.987   8.459  0.0246  0.0990  0.2191
  260loPI    C1 4145  14.188  10.202  10.761 -0.1247  0.3168 -0.1729
  260loPI    C2 4146  13.863  10.304  10.970  0.0115  0.1140  0.1457
  260loPI    C3 4147  13.981   9.922  10.959  0.0964  0.1473 -0.1769
  260loPI   PO4 4148  14.179  10.404  10.517  0.3425 -0.2372  0.1247
  260loPI   GL1 4149  14.307  10.648  10.153 -0.2082  0.0695  0.0453
  260loPI   GL2 4150  14.376  10.986  10.194 -0.1647 -0.0825  0.1425
  260loPI   C1A 4151  14.370  10.660   9.677 -0.3519 -0.1287  0.0635
  260loPI   C2A 4152  14.264  10.595   9.277  0.1663  0.1332  0.0906
  260loPI   C3A 4153  14.274  10.752   8.888  0.0287 -0.0562 -0.1980
  260loPI   C4A 4154  14.298  10.679   8.506  0.0079 -0.2762  0.0773
  260loPI   C5A 4155  14.495  10.418   8.228 -0.2154 -0.0897 -0.0723
  260loPI   C6A 4156  14.790  10.190   7.986  0.0381 -0.0336  0.2220
  260loPI   C1B 4157  14.341  11.129   9.806  0.2402  0.1711 -0.0584
  260loPI   C2B 4158  14.387  11.137   9.360 -0.1728 -0.0352  0.1775
  260loPI   C3B 4159  14.343  11.232   8.907 -0.3328 -0.2275  0.0718
  260loPI   C4B 4160  14.236  11.194   8.540  0.0648  0.1316  0.1624
  261loPI    C1 4161   2.784   3.675  10.853  0.2139  0.1045 -0.1598
  261loPI    C2 4162   3.017   3.975  10.978  0.1236  0.1076  0.0044
  261loPI    C3 4163   2.977   3.646  11.202 -0.0242  0.1043 -0.0261
  261loPI   PO4 4164   2.760   3.768  10.605 -0.0554  0.1159  0.0905
  261loPI   GL1 4165   2.943   3.780  10.139 -0.2421  0.3681  0.0044
  261loPI   GL2 4166   3.356   3.872  10.145  0.1514  0.1627  0.0555
  261loPI   C1A 4167   2.784   3.585   9.696 -0.0288  0.3459  0.1744
  261loPI   C2A 4168   2.795   3.620   9.278 -0.1425  0.0523  0.3240
  261loPI   C3A 4169   2.694   3.587   8.842  0.1292 -0.1623 -0.0378
  261loPI   C4A 4170   2.738   3.490   8.334  0.3157  0.1610 -0.1165
  261loPI   C5A 4171   3.062   3.577   7.950 -0.2105  0.3835 -0.1495
  261loPI   C6A 4172   3.428   3.366   7.755  0.1267  0.0946  0.0010
  261loPI   C1B 4173   3.219   3.864   9.646  0.0594  0.1569 -0.2367
  261loPI   C2B 4174   3.258   3.869   9.225  0.2353 -0.0529  0.1355
  261loPI   C3B 4175   3.172   3.787   8.810  0.0654  0.0672  0.0997
  261loPI   C4B 4176   3.219   3.820   8.404  0.2113  0.2437  0.1656
  262loPI    C1 4177   1.328   2.282  10.818 -0.0800 -0.1238  0.0718
  262loPI    C2 4178   1.024   2.192  11.063 -0.1017  0.0305  0.1026
  262loPI    C3 4179   1.386   2.271  11.214 -0.0707 -0.0532  0.0725
  262loPI   PO4 4180   1.292   2.118  10.603  0.1139 -0.1402 -0.2481
  262loPI   GL1 4181   1.319   1.765  10.487 -0.0444 -0.1654 -0.0906
  262loPI   GL2 4182   1.498   1.784  10.269  0.4873  0.4635 -0.1136
  262loPI   C1A 4183   1.012   1.594  10.208  0.0220  0.4461  0.3091
  262loPI   C2A 4184   1.020   1.380   9.807  0.0409 -0.0243  0.0808
  262loPI   C3A 4185   0.995   1.421   9.406 -0.1405  0.0673  0.0493
  262loPI   C4A 4186   1.059   1.421   9.002 -0.0584 -0.0036 -0.1629
  262loPI   C5A 4187   0.928   1.524   8.563 -0.1025 -0.0305 -0.1047
  262loPI   C6A 4188   0.578   1.754   8.450  0.0546  0.1122  0.1512
  262loPI   C1B 4189   1.339   1.778   9.858  0.1351 -0.0703  0.2667
  262loPI   C2B 4190   1.424   1.723   9.393 -0.1683  0.3865 -0.1484
  262loPI   C3B 4191   1.452   1.787   8.909 -0.0086  0.1495  0.0413
  262loPI   C4B 4192   1.383   1.839   8.454  0.1033 -0.1590 -0.1102
  263loPI    C1 4193   5.372   3.469  10.413 -0.1136 -0.0859  0.0605
  263loPI    C2 4194   5.564   3.298  10.719  0.0334 -0.0499 -0.0111
  263loPI    C3 4195   5.196   3.445  10.772  0.2019  0.2962  0.2493
  263loPI   PO4 4196   5.293   3.347  10.226  0.2716  0.2049  0.2632
  263loPI   GL1 4197   5.377   3.496   9.820 -0.1070  0.2135 -0.3408
  263loPI   GL2 4198   5.286   3.812   9.831 -0.0614 -0.0751  0.0699
  263loPI   C1A 4199   5.221   3.435   9.442  0.1439 -0.1214  0.1715
  263loPI   C2A 4200   5.173   3.409   9.033  0.1911 -0.0405  0.2176
  263loPI   C3A 4201   5.014   3.426   8.696 -0.0157  0.1141 -0.0155
  263loPI   C4A 4202   4.986   3.130   8.306 -0.1466  0.2052 -0.2016
  263loPI   C5A 4203   4.948   2.801   8.092 -0.2045  0.1084 -0.1202
  263loPI   C6A 4204   4.913   2.632   7.671  0.3753 -0.2730 -0.0696
  263loPI   C1B 4205   5.200   3.996   9.384  0.0556  0.1235  0.0295
  263loPI   C2B 4206   5.063   3.861   9.005  0.0561 -0.0074  0.0917
  263loPI   C3B 4207   5.206   3.917   8.664 -0.2217  0.3612 -0.1685
  263loPI   C4B 4208   4.995   3.779   8.311  0.1546 -0.0327  0.2801
  264loPI    C1 4209  11.064   1.924  10.355 -0.0718  0.0019 -0.0089
  264loPI    C2 4210  10.953   2.302  10.288 -0.2182 -0.0402 -0.0072
  264loPI    C3 4211  10.968   2.161  10.662  0.1172  0.0481  0.0163
  264loPI   PO4 4212  11.135   1.853  10.001  0.1184  0.3266  0.0597
  264loPI   GL1 4213  11.237   2.147   9.764 -0.0793  0.3198  0.0602
  264loPI   GL2 4214  10.902   2.072   9.606 -0.1923  0.0808  0.1383
  264loPI   C1A 4215  11.242   2.132   9.282 -0.0567  0.3289  0.0123
  264loPI   C2A 4216  11.155   2.058   8.843  0.0020  0.2796  0.0248
  264loPI   C3A 4217  11.140   1.975   8.322 -0.0441 -0.0575 -0.1515
  264loPI   C4A 4218  11.267   1.866   7.867  0.0127 -0.1870  0.0995
  264loPI   C5A 4219  11.228   1.950   7.498  0.1555  0.0714  0.2864
  264loPI   C6A 4220  11.090   2.084   7.148 -0.2625  0.0997  0.0804
  264loPI   C1B 4221  10.710   1.947   9.213  0.1322  0.1674  0.0331
  264loPI   C2B 4222  10.694   1.858   8.851 -0.0832 -0.2144  0.1791
  264loPI   C3B 4223  10.719   1.760   8.432 -0.0118  0.3250  0.1540
  264loPI   C4B 4224  10.769   1.865   7.975 -0.1832 -0.1356 -0.1582
  265loPI    C1 4225   7.546  13.505  10.539  0.2516 -0.0322 -0.0609
  265loPI    C2 4226   7.343  13.161  10.560  0.1147  0.0429 -0.1453
  265loPI    C3 4227   7.609  13.253  10.844 -0.0274 -0.0193  0.0093
  265loPI   PO4 4228   7.491  13.572  10.298  0.2092  0.1489 -0.1481
  265loPI   GL1 4229   7.352  13.403  10.029 -0.0284 -0.1240  0.1702
  265loPI   GL2 4230   7.496  13.499   9.758 -0.0590 -0.5533  0.4438
  265loPI   C1A 4231   7.015  13.236   9.722 -0.1019  0.3032  0.1121
  265loPI   C2A 4232   7.106  13.291   9.237  0.2834  0.0433  0.2266
  265loPI   C3A 4233   7.063  13.160   8.834 -0.2965  0.1182  0.2550
  265loPI   C4A 4234   7.015  13.033   8.423 -0.0524 -0.0465 -0.3826
  265loPI   C5A 4235   6.904  13.142   8.057 -0.0199 -0.2638  0.1017
  265loPI   C6A 4236   6.792  12.979   7.729 -0.3165 -0.1636  0.0272
  265loPI   C1B 4237   7.479  13.563   9.385 -0.0838  0.2672  0.1533
  265loPI   C2B 4238   7.410  13.482   8.912 -0.1371  0.1083  0.2800
  265loPI   C3B 4239   7.142  13.506   8.528 -0.1633 -0.1812 -0.2637
  265loPI   C4B 4240   7.003  13.689   8.173 -0.2370  0.1240 -0.1667
  266loPI    C1 4241   0.571   9.079  10.815  0.0726  0.1421  0.0835
  266loPI    C2 4242   0.846   9.199  11.080  0.2191 -0.0116  0.0031
  266loPI    C3 4243   0.655   8.852  11.133  0.1183  0.0428  0.0007
  266loPI   PO4 4244   0.610   9.154  10.552  0.0094  0.4740 -0.1196
  266loPI   GL1 4245   0.742   8.961  10.189  0.1333 -0.0365 -0.2760
  266loPI   GL2 4246   1.046   8.999  10.018 -0.0420 -0.0199  0.3326
  266loPI   C1A 4247   0.593   9.167   9.854 -0.1820 -0.2105 -0.0412
  266loPI   C2A 4248   0.574   9.128   9.440 -0.1711 -0.1617  0.2085
  266loPI   C3A 4249   0.448   9.088   9.082 -0.2419 -0.3343 -0.0361
  266loPI   C4A 4250   0.496   9.094   8.697  0.1579  0.0651  0.3952
  266loPI   C5A 4251   0.374   9.020   8.326 -0.0122  0.2465  0.1232
  266loPI   C6A 4252   0.614   9.017   7.973  0.0688 -0.0775  0.0115
  266loPI   C1B 4253   1.004   8.882   9.683  0.1483 -0.2383 -0.0247
  266loPI   C2B 4254   0.923   8.804   9.233 -0.1176  0.0171  0.3186
  266loPI   C3B 4255   0.885   8.764   8.797  0.0245  0.4535  0.1728
  266loPI   C4B 4256   0.807   8.722   8.313 -0.2483  0.2254  0.0292
  267loPI    C1 4257   8.225   7.338  10.437 -0.0357 -0.0444  0.0479
  267loPI    C2 4258   8.293   7.724  10.356  0.0260 -0.0383  0.1277
  267loPI    C3 4259   8.251   7.603  10.735  0.0747 -0.1210  0.1070
  267loPI   PO4 4260   8.349   7.253  10.096 -0.0806 -0.2225  0.1000
  267loPI   GL1 4261   8.414   7.141   9.656 -0.4208  0.0335 -0.0391
  267loPI   GL2 4262   8.186   6.933   9.529 -0.1706  0.0389  0.3500
  267loPI   C1A 4263   8.452   7.222   9.223  0.1206  0.0270  0.1708
  267loPI   C2A 4264   8.367   7.139   8.786 -0.1427 -0.1050  0.1121
  267loPI   C3A 4265   8.167   7.130   8.313  0.0236 -0.0447  0.0686
  267loPI   C4A 4266   8.106   6.887   8.041  0.0379 -0.3720 -0.2274
  267loPI   C5A 4267   8.177   6.801   7.607 -0.0974 -0.1399  0.2286
  267loPI   C6A 4268   8.105   6.995   7.267 -0.2089  0.0071  0.0190
  267loPI   C1B 4269   8.036   6.896   9.163 -0.0586  0.0759 -0.1533
  267loPI   C2B 4270   7.851   6.884   8.664 -0.0476  0.0627  0.1462
  267loPI   C3B 4271   7.737   6.650   8.339  0.0628 -0.0847 -0.1816
  267loPI   C4B 4272   7.737   6.516   7.965 -0.2926 -0.0749  0.1624
  268loPI    C1 4273   9.868  18.295  10.451  0.0951  0.1698 -0.2773
  268loPI    C2 4274  10.092  18.411  10.761  0.1796 -0.0380 -0.2592
  268loPI    C3 4275   9.735  18.580  10.698  0.1406 -0.0281 -0.0207
  268loPI   PO4 4276   9.931  18.327  10.268  0.3322 -0.1039  0.0251
  268loPI   GL1 4277   9.885  18.314   9.826  0.0601 -0.1658 -0.0511
  268loPI   GL2 4278   9.640  18.174   9.692  0.0068 -0.0811 -0.1122
  268loPI   C1A 4279  10.162  18.352   9.549  0.0443 -0.0769  0.1370
  268loPI   C2A 4280  10.157  18.198   9.122  0.0285  0.3090 -0.1182
  268loPI   C3A 4281  10.229  18.203   8.715  0.1302  0.0432  0.2261
  268loPI   C4A 4282  10.136  18.233   8.400 -0.1961 -0.1378  0.1703
  268loPI   C5A 4283  10.242  18.136   8.080 -0.0228  0.1628  0.1932
  268loPI   C6A 4284  10.064  18.171   7.753 -0.1568  0.3214 -0.2803
  268loPI   C1B 4285   9.809  18.008   9.424 -0.2611 -0.1793 -0.2881
  268loPI   C2B 4286   9.709  17.892   9.063 -0.1440  0.0097  0.2737
  268loPI   C3B 4287   9.739  17.979   8.657 -0.1030 -0.1547  0.0511
  268loPI   C4B 4288   9.733  17.928   8.158 -0.1902  0.1226 -0.0515
  269loPI    C1 4289   6.511   6.474  10.564 -0.2342  0.2500 -0.0089
  269loPI    C2 4290   6.428   6.373  10.942  0.0452  0.0833  0.0109
  269loPI    C3 4291   6.528   6.750  10.853 -0.0041  0.1190  0.1054
  269loPI   PO4 4292   6.299   6.455  10.385 -0.1007 -0.0249 -0.2586
  269loPI   GL1 4293   6.117   6.257   9.955 -0.2293 -0.0711 -0.1343
  269loPI   GL2 4294   5.913   6.336   9.989 -0.0694 -0.0371  0.0516
  269loPI   C1A 4295   5.982   6.301   9.502 -0.2368 -0.2271 -0.1050
  269loPI   C2A 4296   5.932   6.349   9.083 -0.0124 -0.0746  0.0686
  269loPI   C3A 4297   6.026   6.402   8.665 -0.0327 -0.0384  0.1600
  269loPI   C4A 4298   5.858   6.605   8.253  0.1475  0.3095 -0.1981
  269loPI   C5A 4299   5.590   6.506   7.923  0.2469 -0.0761 -0.2718
  269loPI   C6A 4300   5.430   6.637   7.624 -0.0804 -0.0062  0.0300
  269loPI   C1B 4301   5.691   6.599   9.770 -0.0051 -0.1234  0.0922
  269loPI   C2B 4302   5.567   6.687   9.327  0.2456  0.0229 -0.0162
  269loPI   C3B 4303   5.568   6.618   8.909  0.1521  0.0711 -0.0985
  269loPI   C4B 4304   5.495   6.714   8.542  0.2061  0.0508  0.0737
  270loPI    C1 4305  11.597  14.852  10.611  0.1749  0.0172  0.2410
  270loPI    C2 4306  11.470  14.947  10.978 -0.0303  0.1759  0.1307
  270loPI    C3 4307  11.862  14.932  10.900  0.0146  0.1336  0.3575
  270loPI   PO4 4308  11.443  15.101  10.400 -0.2078 -0.1213  0.1250
  270loPI   GL1 4309  11.539  15.386  10.069  0.0732  0.0967  0.0834
  270loPI   GL2 4310  11.839  15.207   9.915 -0.1226  0.0410  0.1485
  270loPI   C1A 4311  11.621  15.354   9.508 -0.1851 -0.0372 -0.3569
  270loPI   C2A 4312  11.568  15.394   9.143  0.3246  0.3817 -0.3530
  270loPI   C3A 4313  11.576  15.301   8.783 -0.2035  0.1688  0.1562
  270loPI   C4A 4314  11.665  15.349   8.346 -0.0475  0.2509  0.1027
  270loPI   C5A 4315  11.749  15.511   7.974  0.0738 -0.2107 -0.1589
  270loPI   C6A 4316  12.068  15.452   7.678  0.0575  0.1058 -0.1271
  270loPI   C1B 4317  12.063  15.173   9.572  0.3626 -0.0423  0.0869
  270loPI   C2B 4318  12.105  15.147   9.161  0.3326 -0.2375  0.1682
  270loPI   C3B 4319  12.048  15.167   8.688  0.0313  0.2279 -0.1481
  270loPI   C4B 4320  12.158  15.129   8.274 -0.0295 -0.0105 -0.0901
  271loPI    C1 4321  12.090   0.499  10.287 -0.0545  0.1483 -0.1662
  271loPI    C2 4322  12.296   0.731  10.540  0.0365  0.0102 -0.1124
  271loPI    C3 4323  12.000   0.499  10.677 -0.0262  0.0616 -0.1596
  271loPI   PO4 4324  12.108   0.621  10.066  0.1075 -0.1286 -0.3343
  271loPI   GL1 4325  11.830   0.817   9.892 -0.0662 -0.1060 -0.1824
  271loPI   GL2 4326  11.531   0.797   9.687 -0.0088 -0.3473 -0.0444
  271loPI   C1A 4327  12.031   0.923   9.478 -0.0055 -0.0449 -0.0888
  271loPI   C2A 4328  12.125   0.965   9.150  0.1328 -0.1719  0.0919
  271loPI   C3A 4329  12.079   0.907   8.736 -0.0642  0.0350 -0.1444
  271loPI   C4A 4330  12.024   0.923   8.230 -0.0870 -0.2620 -0.1238
  271loPI   C5A 4331  12.013   0.813   7.850  0.0140  0.1911 -0.0975
  271loPI   C6A 4332  12.394   0.886   7.593  0.0330 -0.0782  0.1077
  271loPI   C1B 4333  11.632   0.704   9.263 -0.0748 -0.0468 -0.2200
  271loPI   C2B 4334  11.616   0.713   8.864  0.3928  0.0406  0.0985
  271loPI   C3B 4335  11.583   0.650   8.518 -0.0114  0.0710  0.1208
  271loPI   C4B 4336  11.599   0.647   8.060  0.2310  0.1373 -0.1749
  272loPI    C1 4337  10.027  10.479  10.958  0.0097 -0.0190 -0.0138
  272loPI    C2 4338   9.832  10.813  11.062 -0.0395  0.0161 -0.2137
  272loPI    C3 4339   9.631  10.470  11.015  0.0641 -0.1367  0.3744
  272loPI   PO4 4340  10.202  10.615  10.756  0.2126 -0.0753  0.3494
  272loPI   GL1 4341  10.401  10.825  10.391  0.1159  0.1853 -0.0322
  272loPI   GL2 4342  10.604  10.587  10.278  0.1171  0.1735 -0.0550
  272loPI   C1A 4343  10.299  10.963   9.980  0.2410 -0.0945  0.0113
  272loPI   C2A 4344  10.266  10.861   9.679  0.0781  0.1953 -0.0199
  272loPI   C3A 4345  10.294  10.909   9.281 -0.2788 -0.0401 -0.0173
  272loPI   C4A 4346  10.229  10.982   8.814  0.5509 -0.3160  0.0968
  272loPI   C5A 4347  10.177  10.887   8.326 -0.0103 -0.1709 -0.1377
  272loPI   C6A 4348   9.728  10.935   8.109 -0.1480  0.1533 -0.0496
  272loPI   C1B 4349  10.684  10.624   9.841 -0.1182 -0.0216 -0.1265
  272loPI   C2B 4350  10.732  10.542   9.399 -0.0517  0.1482  0.3618
  272loPI   C3B 4351  10.654  10.726   9.001  0.1221 -0.2931 -0.1838
  272loPI   C4B 4352  10.610  10.770   8.538 -0.0633 -0.1807  0.1417
  273loPI    C1 4353   7.939   8.235  10.629  0.1420  0.2005 -0.0001
  273loPI    C2 4354   8.130   8.148  10.970 -0.0321 -0.0031  0.0479
  273loPI    C3 4355   7.757   8.292  10.981 -0.0514 -0.0446 -0.0578
  273loPI   PO4 4356   7.960   8.048  10.487  0.3393  0.0354 -0.2922
  273loPI   GL1 4357   8.006   8.084  10.018  0.2010 -0.1106  0.1969
  273loPI   GL2 4358   8.306   8.134   9.907 -0.0815 -0.1205 -0.2225
  273loPI   C1A 4359   7.936   8.023   9.586 -0.0937 -0.1007  0.2658
  273loPI   C2A 4360   7.938   7.915   9.249 -0.1566  0.0015  0.0818
  273loPI   C3A 4361   7.969   7.987   8.864 -0.0254  0.0782 -0.0734
  273loPI   C4A 4362   7.882   8.011   8.423 -0.0050  0.0748 -0.4227
  273loPI   C5A 4363   7.867   7.850   8.122  0.0260 -0.1999  0.4913
  273loPI   C6A 4364   7.667   7.679   7.782 -0.4110  0.2329  0.3203
  273loPI   C1B 4365   8.410   8.166   9.533  0.1921  0.0693 -0.2655
  273loPI   C2B 4366   8.361   8.220   9.100 -0.4984 -0.0980  0.0482
  273loPI   C3B 4367   8.331   8.229   8.613  0.3124  0.1083 -0.3036
  273loPI   C4B 4368   8.280   8.260   8.186 -0.2414  0.1413 -0.1884
  274loPI    C1 4369  17.238   5.225  10.990  0.2542 -0.1821  0.0404
  274loPI    C2 4370  17.325   4.940  11.256  0.0067 -0.0640  0.2518
  274loPI    C3 4371  17.425   5.320  11.330 -0.0400 -0.0343  0.1647
  274loPI   PO4 4372  17.288   5.127  10.779 -0.2814  0.5363  0.1874
  274loPI   GL1 4373  17.249   5.059  10.412 -0.1955  0.0736  0.1710
  274loPI   GL2 4374  17.538   5.149  10.157  0.0333 -0.1826  0.2440
  274loPI   C1A 4375  17.131   4.876  10.015  0.0561  0.0914  0.0757
  274loPI   C2A 4376  17.114   4.932   9.559 -0.0104  0.1971 -0.1559
  274loPI   C3A 4377  17.052   4.922   9.211 -0.2983  0.1474  0.0013
  274loPI   C4A 4378  17.018   4.861   8.759  0.1364  0.1610 -0.1312
  274loPI   C5A 4379  16.871   4.793   8.258  0.1164  0.0678  0.0205
  274loPI   C6A 4380  16.722   5.082   7.972  0.2450  0.1638 -0.0087
  274loPI   C1B 4381  17.501   5.210   9.690  0.2575  0.1637 -0.1139
  274loPI   C2B 4382  17.567   5.202   9.300 -0.3253 -0.1898 -0.2742
  274loPI   C3B 4383  17.487   5.168   8.823 -0.0794  0.1345 -0.3449
  274loPI   C4B 4384  17.378   5.113   8.373  0.0785 -0.0158  0.1628
  275loPI    C1 4385   1.781   6.436  11.052 -0.0378 -0.2722  0.0261
  275loPI    C2 4386   1.962   6.623  10.748 -0.1696 -0.0692  0.0701
  275loPI    C3 4387   2.136   6.613  11.108  0.0353 -0.3987 -0.0332
  275loPI   PO4 4388   1.497   6.519  10.878  0.1503 -0.1256 -0.0402
  275loPI   GL1 4389   1.479   6.757  10.465  0.0049 -0.3343  0.0542
  275loPI   GL2 4390   1.115   6.909  10.312  0.3275 -0.1796  0.3581
  275loPI   C1A 4391   1.598   6.648  10.129  0.1382 -0.1267 -0.1490
  275loPI   C2A 4392   1.494   6.466   9.724 -0.0110 -0.0143  0.0979
  275loPI   C3A 4393   1.485   6.508   9.222 -0.2100  0.1021 -0.2526
  275loPI   C4A 4394   1.465   6.491   8.776  0.2713  0.1103  0.1616
  275loPI   C5A 4395   1.464   6.843   8.345  0.1441  0.1128  0.1082
  275loPI   C6A 4396   1.080   7.206   8.300  0.1870  0.0255 -0.0678
  275loPI   C1B 4397   1.021   6.754   9.903  0.1750  0.2153  0.0006
  275loPI   C2B 4398   1.101   6.636   9.474 -0.0421  0.3355 -0.2621
  275loPI   C3B 4399   1.004   6.732   9.040  0.1642 -0.2885  0.1963
  275loPI   C4B 4400   0.983   6.783   8.728 -0.0371  0.3988  0.0790
  276loPI    C1 4401   9.662   8.888  10.666 -0.0196  0.1175  0.0194
  276loPI    C2 4402   9.389   9.074  10.892  0.3314  0.2354  0.3587
  276loPI    C3 4403   9.466   8.685  10.950 -0.1561  0.0538 -0.1189
  276loPI   PO4 4404   9.583   8.988  10.436 -0.2671 -0.0426 -0.2191
  276loPI   GL1 4405   9.626   9.006  10.037  0.1389 -0.1879  0.3353
  276loPI   GL2 4406   9.646   9.298   9.951 -0.0399  0.2233  0.3021
  276loPI   C1A 4407   9.708   8.938   9.599  0.1053 -0.3168  0.2358
  276loPI   C2A 4408   9.818   9.036   9.114 -0.1925 -0.2667 -0.0288
  276loPI   C3A 4409   9.755   9.109   8.618 -0.1816 -0.0751  0.1405
  276loPI   C4A 4410   9.671   8.875   8.198  0.0752  0.1053 -0.0955
  276loPI   C5A 4411   9.748   8.690   7.820  0.1013 -0.0666 -0.1442
  276loPI   C6A 4412   9.665   8.580   7.441 -0.0068 -0.1093 -0.3504
  276loPI   C1B 4413   9.790   9.509   9.664  0.0167 -0.0887  0.0829
  276loPI   C2B 4414   9.789   9.532   9.205  0.0824  0.3091  0.1815
  276loPI   C3B 4415   9.778   9.686   8.731 -0.0977  0.0744 -0.1206
  276loPI   C4B 4416   9.711   9.576   8.459 -0.0727  0.0623  0.1038
  277loPI    C1 4417  15.109   5.409  10.823 -0.0211  0.0500 -0.0906
  277loPI    C2 4418  14.727   5.415  10.942 -0.0548 -0.0502 -0.1925
  277loPI    C3 4419  15.017   5.337  11.205 -0.1117 -0.0607 -0.1327
  277loPI   PO4 4420  15.105   5.269  10.636  0.4244 -0.3822 -0.1692
  277loPI   GL1 4421  15.043   5.523  10.240  0.1195  0.2325  0.1646
  277loPI   GL2 4422  15.315   5.672  10.129 -0.3854  0.2526 -0.1289
  277loPI   C1A 4423  15.081   5.368   9.861  0.1458 -0.0373  0.1341
  277loPI   C2A 4424  15.159   5.422   9.340 -0.0230 -0.1190  0.0240
  277loPI   C3A 4425  15.203   5.481   8.879 -0.0493  0.2481 -0.0604
  277loPI   C4A 4426  15.224   5.422   8.374  0.1209  0.5064  0.0980
  277loPI   C5A 4427  15.274   5.361   7.889 -0.0788  0.1044 -0.5373
  277loPI   C6A 4428  15.513   5.371   7.683 -0.2385  0.2175  0.1272
  277loPI   C1B 4429  15.547   5.677   9.748  0.1157 -0.1234  0.0257
  277loPI   C2B 4430  15.744   5.768   9.379 -0.1898  0.4023 -0.0417
  277loPI   C3B 4431  15.631   5.633   9.104 -0.2892  0.0300 -0.1558
  277loPI   C4B 4432  15.663   5.561   8.670  0.0242 -0.0714  0.3371
  278loPI    C1 4433   6.190   8.719  10.718 -0.0438  0.1185  0.0329
  278loPI    C2 4434   6.182   8.319  10.717  0.1717  0.1121  0.1325
  278loPI    C3 4435   6.172   8.518  11.064 -0.0717  0.1983  0.0780
  278loPI   PO4 4436   6.211   8.810  10.514 -0.0413 -0.0798  0.3013
  278loPI   GL1 4437   6.189   8.715  10.113  0.1649  0.0899  0.4764
  278loPI   GL2 4438   6.145   9.121  10.074 -0.0061 -0.0832 -0.3591
  278loPI   C1A 4439   6.087   8.531   9.774  0.1474  0.1289 -0.0515
  278loPI   C2A 4440   6.119   8.522   9.412  0.2164 -0.1726  0.1740
  278loPI   C3A 4441   6.051   8.488   8.971  0.2752 -0.3148  0.2923
  278loPI   C4A 4442   5.869   8.547   8.499 -0.0924  0.0582 -0.3853
  278loPI   C5A 4443   5.997   8.542   8.067  0.0545 -0.1384  0.0816
  278loPI   C6A 4444   5.998   8.533   7.610  0.1852 -0.1938  0.0461
  278loPI   C1B 4445   6.180   9.058   9.643 -0.4092 -0.2129 -0.0088
  278loPI   C2B 4446   6.113   9.012   9.161  0.0472  0.0692 -0.0610
  278loPI   C3B 4447   5.937   8.973   8.786 -0.4025  0.2380  0.0810
  278loPI   C4B 4448   5.958   9.052   8.336  0.1866  0.0435  0.2435
  279loPI    C1 4449   0.902   7.235  10.805  0.0708  0.0417  0.2442
  279loPI    C2 4450   1.273   7.236  10.654 -0.0327  0.1052 -0.0148
  279loPI    C3 4451   1.154   6.936  10.890  0.1183 -0.0186 -0.0944
  279loPI   PO4 4452   0.779   7.239  10.513 -0.1838 -0.0967 -0.1799
  279loPI   GL1 4453   0.786   7.342  10.203 -0.2454  0.2246  0.1353
  279loPI   GL2 4454   0.733   7.551  10.019 -0.2136 -0.1181 -0.3061
  279loPI   C1A 4455   0.616   7.066   9.835  0.0733 -0.4170 -0.0580
  279loPI   C2A 4456   0.460   7.045   9.424 -0.0034 -0.1129  0.0072
  279loPI   C3A 4457   0.480   6.980   9.034  0.0465 -0.2327 -0.1114
  279loPI   C4A 4458   0.564   7.024   8.606  0.0428 -0.3436  0.1600
  279loPI   C5A 4459   0.515   6.881   8.167  0.2015  0.2278 -0.0101
  279loPI   C6A 4460   0.213   6.926   7.862  0.0080 -0.1496  0.1684
  279loPI   C1B 4461   0.488   7.534   9.673  0.0522  0.2292  0.1382
  279loPI   C2B 4462   0.583   7.473   9.224 -0.0504 -0.0603  0.0011
  279loPI   C3B 4463   0.527   7.489   8.774  0.2677 -0.1288  0.1975
  279loPI   C4B 4464   0.469   7.503   8.328 -0.0265 -0.3523 -0.0752
  280loPI    C1 4465  18.323   6.521  11.109 -0.0294 -0.0055 -0.0945
  280loPI    C2 4466  18.448   6.186  11.288 -0.0899  0.0558  0.0639
  280loPI    C3 4467  18.108   6.360  11.405 -0.0319  0.2016  0.0178
  280loPI   PO4 4468  18.582   6.549  10.858 -0.4336 -0.0864 -0.3109
  280loPI   GL1 4469  18.627   6.614  10.419  0.1461  0.3117  0.3856
  280loPI   GL2 4470  18.427   6.453  10.390  0.4011 -0.1621  0.4406
  280loPI   C1A 4471  18.907   6.561  10.024 -0.1435 -0.0661 -0.0290
  280loPI   C2A 4472  18.871   6.445   9.622 -0.3822  0.0038 -0.0914
  280loPI   C3A 4473  18.944   6.486   9.186  0.2431 -0.0903  0.1404
  280loPI   C4A 4474  18.907   6.505   8.738 -0.1120  0.0352  0.1365
  280loPI   C5A 4475  18.638   6.369   8.376  0.3724  0.1355 -0.0163
  280loPI   C6A 4476  18.369   5.982   8.280 -0.1079 -0.1501  0.2151
  280loPI   C1B 4477  18.384   6.358   9.941  0.8616  0.1851 -0.2622
  280loPI   C2B 4478  18.382   6.169   9.660 -0.2596 -0.1147  0.0593
  280loPI   C3B 4479  18.452   6.192   9.266 -0.1737 -0.0874 -0.1108
  280loPI   C4B 4480  18.398   6.202   8.803  0.0435  0.0571  0.0931
  281loPI    C1 4481  16.592  13.841  11.207 -0.1236  0.0072  0.0563
  281loPI    C2 4482  16.518  13.494  11.393  0.2223 -0.1379 -0.0696
  281loPI    C3 4483  16.892  13.637  11.376  0.0811  0.2514 -0.0057
  281loPI   PO4 4484  16.537  13.901  10.957  0.1749 -0.0655 -0.2230
  281loPI   GL1 4485  16.284  13.920  10.646  0.3817 -0.0497 -0.1850
  281loPI   GL2 4486  16.010  14.141  10.526 -0.0391  0.1555 -0.1211
  281loPI   C1A 4487  16.220  13.834  10.235 -0.0713 -0.0474 -0.1743
  281loPI   C2A 4488  16.072  13.721   9.802 -0.2166  0.2407 -0.0223
  281loPI   C3A 4489  16.147  13.797   9.333 -0.1901  0.1202 -0.0527
  281loPI   C4A 4490  16.162  13.704   8.975  0.1237  0.2061  0.3498
  281loPI   C5A 4491  16.195  13.765   8.577  0.1918 -0.0183  0.0667
  281loPI   C6A 4492  16.420  13.614   8.328  0.1284 -0.2318  0.1723
  281loPI   C1B 4493  16.210  14.315  10.077 -0.1064 -0.0732  0.0311
  281loPI   C2B 4494  16.255  14.205   9.663  0.0830 -0.1934 -0.1331
  281loPI   C3B 4495  16.257  14.321   9.257 -0.1093  0.3497 -0.1625
  281loPI   C4B 4496  16.140  14.189   8.781 -0.4196 -0.0958 -0.0897
  282loPI    C1 4497   4.905  15.316  10.848  0.3963 -0.0757  0.3090
  282loPI    C2 4498   4.541  15.457  10.933  0.3513 -0.0009  0.0036
  282loPI    C3 4499   4.647  15.091  11.055 -0.0012 -0.2160 -0.3132
  282loPI   PO4 4500   5.002  15.294  10.596 -0.1054 -0.0697  0.0896
  282loPI   GL1 4501   5.022  15.401  10.118 -0.3347  0.2619  0.2021
  282loPI   GL2 4502   4.859  15.633  10.015 -0.0574  0.1886 -0.2171
  282loPI   C1A 4503   5.281  15.318   9.729 -0.3133  0.1973  0.2927
  282loPI   C2A 4504   5.233  15.274   9.281 -0.3534 -0.2285 -0.0134
  282loPI   C3A 4505   5.192  15.374   8.851 -0.0658  0.0436 -0.2107
  282loPI   C4A 4506   5.155  15.363   8.458  0.2324 -0.0707  0.0460
  282loPI   C5A 4507   4.973  15.264   8.005 -0.1213  0.1755  0.0176
  282loPI   C6A 4508   4.971  15.054   7.543 -0.0857 -0.1088 -0.1459
  282loPI   C1B 4509   4.843  15.512   9.556  0.0942 -0.0865  0.0560
  282loPI   C2B 4510   4.838  15.618   9.079 -0.0752 -0.0968  0.0681
  282loPI   C3B 4511   4.700  15.598   8.587  0.0450 -0.0291  0.0598
  282loPI   C4B 4512   4.550  15.569   8.167  0.1813 -0.3081  0.0180
  283loPI    C1 4513  12.168   5.463  10.322 -0.0429  0.0025  0.1957
  283loPI    C2 4514  12.299   5.095  10.408  0.1998  0.0748  0.1441
  283loPI    C3 4515  12.235   5.358  10.702  0.1431  0.0305  0.1716
  283loPI   PO4 4516  12.298   5.547  10.099  0.1111 -0.0838 -0.0080
  283loPI   GL1 4517  12.330   5.361   9.615 -0.0455  0.1154 -0.0816
  283loPI   GL2 4518  12.410   5.635   9.466 -0.1784 -0.1067  0.1420
  283loPI   C1A 4519  12.361   5.295   9.105 -0.2362 -0.0535  0.0243
  283loPI   C2A 4520  12.539   5.314   8.770  0.1445 -0.1820  0.0214
  283loPI   C3A 4521  12.497   5.541   8.382  0.1152  0.0904 -0.1503
  283loPI   C4A 4522  12.274   5.559   8.016 -0.0188 -0.0530  0.2411
  283loPI   C5A 4523  12.409   5.751   7.700  0.0285  0.2886  0.2389
  283loPI   C6A 4524  12.644   6.141   7.666  0.0932 -0.0570  0.3457
  283loPI   C1B 4525  12.646   5.677   9.122 -0.1013  0.0335 -0.1394
  283loPI   C2B 4526  12.837   5.696   8.782  0.1713  0.1173  0.3078
  283loPI   C3B 4527  13.042   5.675   8.357 -0.0974 -0.0131  0.3494
  283loPI   C4B 4528  13.020   5.660   7.847  0.0730 -0.2849 -0.0766
  284loPI    C1 4529   0.825   9.948  10.860 -0.0537  0.0056 -0.1522
  284loPI    C2 4530   0.710   9.574  10.779 -0.0868 -0.0324  0.0651
  284loPI    C3 4531   0.672   9.719  11.150  0.3714  0.0246  0.0962
  284loPI   PO4 4532   0.759  10.072  10.658 -0.1622  0.1217 -0.0076
  284loPI   GL1 4533   0.783  10.033  10.210  0.3877  0.1389 -0.3796
  284loPI   GL2 4534   0.491  10.289  10.093 -0.0508 -0.1170  0.1410
  284loPI   C1A 4535   0.545   9.713   9.869 -0.1976  0.0630 -0.2603
  284loPI   C2A 4536   0.482   9.685   9.423  0.2544  0.2601 -0.0982
  284loPI   C3A 4537   0.462   9.621   9.059  0.3702  0.3363  0.3520
  284loPI   C4A 4538   0.447   9.721   8.638  0.2198  0.2676  0.0070
  284loPI   C5A 4539   0.619   9.635   8.227 -0.0212 -0.0978 -0.0253
  284loPI   C6A 4540   0.242   9.453   7.985 -0.1573 -0.1897 -0.0213
  284loPI   C1B 4541   0.633  10.176   9.728  0.5436 -0.2422  0.2263
  284loPI   C2B 4542   0.548  10.131   9.297 -0.0508  0.1190 -0.1805
  284loPI   C3B 4543   0.433  10.216   8.959 -0.1061 -0.3571 -0.0326
  284loPI   C4B 4544   0.487  10.218   8.486  0.0440 -0.2888 -0.0261
  285loPI    C1 4545   1.925   1.474  11.077 -0.0528 -0.1384 -0.2216
  285loPI    C2 4546   1.695   1.156  11.153  0.0034 -0.0936  0.1603
  285loPI    C3 4547   1.836   1.376  11.455  0.4429 -0.0438 -0.0732
  285loPI   PO4 4548   1.817   1.547  10.852  0.0661  0.0890  0.0658
  285loPI   GL1 4549   1.815   1.529  10.485  0.0783 -0.0800 -0.1535
  285loPI   GL2 4550   1.652   1.270  10.347 -0.0694  0.0247  0.0821
  285loPI   C1A 4551   2.013   1.523  10.093 -0.1069  0.4268  0.0975
  285loPI   C2A 4552   1.830   1.560   9.708 -0.1816 -0.0825 -0.0278
  285loPI   C3A 4553   1.842   1.515   9.178 -0.2378 -0.1188 -0.0557
  285loPI   C4A 4554   1.937   1.526   8.842  0.2973 -0.1651 -0.0627
  285loPI   C5A 4555   1.899   1.346   8.435 -0.4048 -0.2853  0.3121
  285loPI   C6A 4556   1.799   1.208   8.048 -0.2586  0.0531 -0.1037
  285loPI   C1B 4557   1.430   1.165  10.033 -0.1220 -0.0786 -0.0838
  285loPI   C2B 4558   1.450   1.238   9.618  0.0010 -0.0897 -0.0706
  285loPI   C3B 4559   1.453   1.174   9.199 -0.3785 -0.2075  0.0780
  285loPI   C4B 4560   1.478   1.253   8.796 -0.2456 -0.2810 -0.2623
  286loPI    C1 4561   2.839   2.693  10.607 -0.0669 -0.0945  0.0144
  286loPI    C2 4562   2.537   2.904  10.762 -0.1589 -0.1629 -0.0703
  286loPI    C3 4563   2.866   2.835  10.980 -0.1212  0.0797 -0.0473
  286loPI   PO4 4564   2.698   2.321  10.510 -0.0468  0.1083 -0.0256
  286loPI   GL1 4565   2.456   2.141  10.238 -0.1810  0.0535 -0.4626
  286loPI   GL2 4566   2.166   1.908  10.306 -0.3320 -0.0090 -0.1070
  286loPI   C1A 4567   2.275   2.332   9.918 -0.0325  0.1260 -0.0203
  286loPI   C2A 4568   2.256   2.305   9.437  0.0207 -0.2618  0.1734
  286loPI   C3A 4569   2.385   2.250   9.043  0.0061 -0.3760  0.1114
  286loPI   C4A 4570   2.398   2.160   8.635  0.1867 -0.1943 -0.0957
  286loPI   C5A 4571   2.403   2.373   8.207 -0.3093  0.0382 -0.0133
  286loPI   C6A 4572   2.700   2.676   7.947 -0.0351 -0.0370  0.0094
  286loPI   C1B 4573   2.361   1.779   9.881  0.0127  0.0422 -0.2464
  286loPI   C2B 4574   2.317   1.813   9.422 -0.0763  0.0620 -0.0102
  286loPI   C3B 4575   2.397   1.782   8.938 -0.0720  0.1700 -0.2099
  286loPI   C4B 4576   2.278   1.641   8.509 -0.1606 -0.0698 -0.0011
  287loPI    C1 4577   7.528   7.230  10.455  0.0128  0.0429  0.1678
  287loPI    C2 4578   7.429   7.278  10.839 -0.0811  0.0048  0.1487
  287loPI    C3 4579   7.807   7.337  10.721 -0.0438 -0.0221  0.2536
  287loPI   PO4 4580   7.322   7.402  10.287 -0.1169 -0.1853 -0.0047
  287loPI   GL1 4581   7.139   7.196   9.944  0.0152 -0.1792 -0.4142
  287loPI   GL2 4582   7.438   7.185   9.772 -0.3344  0.0332 -0.1524
  287loPI   C1A 4583   6.947   7.364   9.577  0.1540 -0.1562  0.3272
  287loPI   C2A 4584   6.905   7.441   9.088 -0.1731  0.3387  0.0264
  287loPI   C3A 4585   6.735   7.482   8.607  0.0054 -0.0692 -0.3280
  287loPI   C4A 4586   6.576   7.423   8.201  0.0614 -0.0810 -0.0832
  287loPI   C5A 4587   6.535   7.064   7.947 -0.1761  0.0049  0.0073
  287loPI   C6A 4588   6.192   6.694   7.889 -0.0572  0.2035  0.1596
  287loPI   C1B 4589   7.582   7.133   9.381  0.2339  0.1133 -0.3032
  287loPI   C2B 4590   7.591   7.114   9.020  0.0559  0.0336 -0.3668
  287loPI   C3B 4591   7.441   7.223   8.711 -0.1561 -0.1128  0.0555
  287loPI   C4B 4592   7.175   7.376   8.437  0.0450  0.0872  0.0338
  288loPI    C1 4593   7.428  13.974  10.757  0.1310  0.0835 -0.1306
  288loPI    C2 4594   7.332  13.639  10.953 -0.0422  0.0238 -0.3135
  288loPI    C3 4595   7.691  13.808  11.009 -0.0500 -0.0487 -0.0266
  288loPI   PO4 4596   7.265  13.992  10.506 -0.0437 -0.0489 -0.3300
  288loPI   GL1 4597   7.394  13.948  10.072 -0.1298 -0.3954 -0.0576
  288loPI   GL2 4598   7.682  14.152   9.973 -0.3227 -0.3120  0.2127
  288loPI   C1A 4599   7.520  13.994   9.557  0.0705  0.0153 -0.0394
  288loPI   C2A 4600   7.479  13.986   9.103  0.3204  0.1197 -0.1951
  288loPI   C3A 4601   7.304  14.000   8.700  0.0503  0.0057 -0.0003
  288loPI   C4A 4602   7.447  13.981   8.230 -0.1028 -0.0790 -0.2457
  288loPI   C5A 4603   7.425  13.788   7.864 -0.1362 -0.1529 -0.1894
  288loPI   C6A 4604   7.843  13.928   7.522  0.2061  0.1778  0.1234
  288loPI   C1B 4605   7.854  14.382   9.609  0.1970 -0.1737  0.1861
  288loPI   C2B 4606   7.928  14.247   9.272 -0.2571 -0.1398 -0.4030
  288loPI   C3B 4607   7.724  14.324   8.878 -0.3916 -0.1320 -0.0192
  288loPI   C4B 4608   7.813  14.349   8.452 -0.1914 -0.3313 -0.0899
  289loPI    C1 4609  16.125  11.852  11.088  0.2909  0.0478 -0.1060
  289loPI    C2 4610  15.899  12.136  11.256  0.2971  0.0861 -0.1621
  289loPI    C3 4611  16.225  12.002  11.445  0.2208  0.0218 -0.0752
  289loPI   PO4 4612  16.073  11.876  10.785  0.0594 -0.2993  0.1938
  289loPI   GL1 4613  16.029  12.321  10.440  0.0432 -0.0577  0.1418
  289loPI   GL2 4614  15.782  12.326  10.337  0.3328  0.2530  0.0632
  289loPI   C1A 4615  16.221  12.167  10.112 -0.2218  0.0416 -0.1336
  289loPI   C2A 4616  16.174  12.259   9.680  0.1245  0.1387 -0.1419
  289loPI   C3A 4617  16.128  12.172   9.203  0.0559  0.3766 -0.2780
  289loPI   C4A 4618  16.106  12.196   8.746 -0.0828 -0.0942 -0.3062
  289loPI   C5A 4619  16.041  11.962   8.202 -0.0067 -0.0808 -0.1363
  289loPI   C6A 4620  16.071  12.185   7.785  0.0050 -0.0914 -0.0591
  289loPI   C1B 4621  15.771  12.429   9.934  0.1123  0.0537  0.0462
  289loPI   C2B 4622  15.778  12.444   9.419 -0.2291  0.1053 -0.0678
  289loPI   C3B 4623  15.736  12.445   8.964  0.3252  0.1951  0.1493
  289loPI   C4B 4624  15.747  12.424   8.487  0.5136 -0.0009  0.0348
  290loPI    C1 4625  14.128  15.471  10.912 -0.1458  0.0982  0.0598
  290loPI    C2 4626  14.308  15.212  11.157 -0.1586 -0.1769 -0.2155
  290loPI    C3 4627  14.339  15.605  11.224 -0.2407 -0.2474  0.2785
  290loPI   PO4 4628  14.101  15.294  10.643 -0.0208  0.3006 -0.3993
  290loPI   GL1 4629  13.962  15.211  10.401 -0.0789 -0.2519  0.0063
  290loPI   GL2 4630  13.747  15.455  10.251 -0.3285 -0.0045 -0.0119
  290loPI   C1A 4631  13.847  15.102   9.919  0.1906  0.0615 -0.0425
  290loPI   C2A 4632  13.940  14.977   9.536  0.3502  0.0273 -0.1642
  290loPI   C3A 4633  13.918  15.097   9.141 -0.2169  0.2359  0.0320
  290loPI   C4A 4634  13.956  15.085   8.707  0.0023  0.0764 -0.4928
  290loPI   C5A 4635  13.951  14.989   8.235  0.0657 -0.3470 -0.1081
  290loPI   C6A 4636  14.133  14.874   7.898 -0.2469 -0.1273 -0.1104
  290loPI   C1B 4637  13.834  15.680   9.916 -0.0318  0.0787  0.4573
  290loPI   C2B 4638  13.825  15.641   9.436 -0.3124  0.2943 -0.0457
  290loPI   C3B 4639  13.857  15.569   8.930 -0.3561  0.2300  0.1559
  290loPI   C4B 4640  13.824  15.556   8.554 -0.0618  0.2160  0.1527
  291loPI    C1 4641  11.947  10.409  10.720 -0.0866  0.0096 -0.0188
  291loPI    C2 4642  12.071  10.239  11.059 -0.3716  0.0612  0.1140
  291loPI    C3 4643  12.035  10.637  11.037  0.3568  0.1243 -0.2159
  291loPI   PO4 4644  12.088  10.334  10.506  0.3350  0.0150 -0.3713
  291loPI   GL1 4645  12.419  10.304  10.248  0.0864 -0.0130 -0.0785
  291loPI   GL2 4646  12.657  10.042  10.165 -0.2820  0.0029  0.0636
  291loPI   C1A 4647  12.158  10.368   9.851 -0.0489 -0.1714  0.0437
  291loPI   C2A 4648  12.112  10.399   9.396  0.1991 -0.0880 -0.3752
  291loPI   C3A 4649  12.041  10.360   8.946 -0.0204  0.0732 -0.1028
  291loPI   C4A 4650  11.846  10.432   8.616 -0.1208 -0.0764  0.0702
  291loPI   C5A 4651  12.037  10.515   8.142  0.0802  0.0182  0.0487
  291loPI   C6A 4652  12.393  10.746   8.152 -0.0549  0.2088 -0.1839
  291loPI   C1B 4653  12.571  10.146   9.789  0.2363 -0.0670 -0.4411
  291loPI   C2B 4654  12.624  10.057   9.448 -0.1467  0.0073 -0.2579
  291loPI   C3B 4655  12.493  10.093   9.099  0.1142 -0.2119  0.1388
  291loPI   C4B 4656  12.490  10.092   8.746 -0.1380  0.1508 -0.0318
  292loPI    C1 4657   2.760  14.149  10.480 -0.3313  0.1194 -0.1806
  292loPI    C2 4658   2.720  14.540  10.404  0.4297  0.2133 -0.1760
  292loPI    C3 4659   2.881  14.418  10.750 -0.0313 -0.1201 -0.0696
  292loPI   PO4 4660   2.884  14.101  10.303  0.2302 -0.1130 -0.1013
  292loPI   GL1 4661   2.739  14.041   9.965  0.1704  0.4281  0.3352
  292loPI   GL2 4662   2.544  14.256  10.004  0.2177  0.2265 -0.0964
  292loPI   C1A 4663   2.855  14.010   9.424  0.1979 -0.1165 -0.2062
  292loPI   C2A 4664   2.725  13.938   9.005 -0.3284 -0.0389  0.1375
  292loPI   C3A 4665   2.820  14.095   8.515 -0.0905 -0.1209 -0.1054
  292loPI   C4A 4666   2.805  14.118   8.175 -0.0520 -0.1395 -0.0864
  292loPI   C5A 4667   2.719  14.457   7.886  0.1379  0.0997  0.0186
  292loPI   C6A 4668   2.529  14.462   7.399  0.2303  0.1083  0.1784
  292loPI   C1B 4669   2.469  14.282   9.577 -0.1430  0.0147  0.0302
  292loPI   C2B 4670   2.369  14.308   9.149 -0.0048  0.0499 -0.1676
  292loPI   C3B 4671   2.299  14.260   8.741 -0.2363  0.0505 -0.0885
  292loPI   C4B 4672   2.330  14.343   8.304 -0.2787 -0.0496  0.0833
  293loPI    C1 4673  12.897   4.006  10.471 -0.1745  0.1060 -0.0688
  293loPI    C2 4674  12.877   4.390  10.360 -0.1538  0.2573  0.4255
  293loPI    C3 4675  12.563   4.216  10.536 -0.2762 -0.0516 -0.0780
  293loPI   PO4 4676  13.043   3.884  10.296 -0.0104  0.1143  0.0143
  293loPI   GL1 4677  13.076   3.689   9.921  0.2796  0.0751  0.2271
  293loPI   GL2 4678  12.830   3.771   9.551  0.3116 -0.1103 -0.2785
  293loPI   C1A 4679  13.251   3.405   9.487  0.1537  0.0821  0.1740
  293loPI   C2A 4680  13.438   3.347   9.096 -0.0032  0.0848  0.1103
  293loPI   C3A 4681  13.463   3.243   8.653  0.0296 -0.1716 -0.0112
  293loPI   C4A 4682  13.493   3.221   8.126  0.1085  0.3774 -0.2309
  293loPI   C5A 4683  13.875   2.951   7.931  0.0824  0.1438  0.0568
  293loPI   C6A 4684  14.310   2.725   7.776  0.1489 -0.4694 -0.0616
  293loPI   C1B 4685  13.269   3.871   9.529  0.0992  0.1486  0.2257
  293loPI   C2B 4686  13.424   3.864   9.056 -0.3381 -0.2188 -0.0990
  293loPI   C3B 4687  13.543   3.749   8.526  0.2703  0.2246  0.2834
  293loPI   C4B 4688  13.657   3.689   8.133 -0.3928  0.2790 -0.0906
  294loPI    C1 4689  11.988   3.545  10.370  0.2720  0.0464  0.0860
  294loPI    C2 4690  12.287   3.797  10.451  0.1235  0.2685 -0.0457
  294loPI    C3 4691  11.915   3.937  10.403  0.0498  0.0310 -0.1816
  294loPI   PO4 4692  12.004   3.396  10.138 -0.0432  0.0248 -0.0450
  294loPI   GL1 4693  12.020   3.389   9.705 -0.0286 -0.1468  0.0808
  294loPI   GL2 4694  11.761   3.246   9.695 -0.1979  0.0351 -0.0574
  294loPI   C1A 4695  12.317   3.589   9.330  0.1658  0.1681  0.1434
  294loPI   C2A 4696  12.389   3.621   8.900  0.0983 -0.2196  0.4220
  294loPI   C3A 4697  12.592   3.373   8.564 -0.1189 -0.3203  0.3811
  294loPI   C4A 4698  12.730   3.222   8.251  0.0216 -0.4055  0.3008
  294loPI   C5A 4699  12.576   3.108   7.818  0.1945 -0.1147  0.1440
  294loPI   C6A 4700  12.246   2.891   7.709  0.0527  0.1360  0.0565
  294loPI   C1B 4701  11.821   3.328   9.227  0.3130  0.0782 -0.1190
  294loPI   C2B 4702  11.886   3.416   8.834  0.1764  0.0743  0.1306
  294loPI   C3B 4703  12.105   3.664   8.448 -0.3191 -0.2475 -0.1859
  294loPI   C4B 4704  12.255   3.378   8.164  0.1925  0.0136  0.0023
  295loPI    C1 4705  12.346   1.972  10.387  0.1486  0.2450 -0.0913
  295loPI    C2 4706  12.431   2.293  10.609  0.1787  0.0820  0.1368
  295loPI    C3 4707  12.292   1.961  10.783  0.2831 -0.0769 -0.0786
  295loPI   PO4 4708  12.100   2.041  10.231 -0.1623  0.0479 -0.0022
  295loPI   GL1 4709  12.258   1.935   9.827 -0.1579 -0.2362  0.0386
  295loPI   GL2 4710  11.977   2.031   9.649 -0.2919  0.0327 -0.0856
  295loPI   C1A 4711  12.463   1.786   9.482 -0.3373  0.4627  0.0151
  295loPI   C2A 4712  12.501   1.712   9.054  0.0767 -0.3766  0.3090
  295loPI   C3A 4713  12.478   1.714   8.587  0.0956 -0.1877 -0.1250
  295loPI   C4A 4714  12.515   1.631   8.200  0.0883  0.2483  0.0959
  295loPI   C5A 4715  12.751   1.586   7.825  0.1887 -0.3462 -0.4054
  295loPI   C6A 4716  13.146   1.619   7.668  0.0317 -0.4726 -0.0071
  295loPI   C1B 4717  12.056   2.070   9.305  0.0032 -0.0778 -0.1829
  295loPI   C2B 4718  12.144   2.027   8.873 -0.0232 -0.3335  0.2932
  295loPI   C3B 4719  12.062   1.984   8.408 -0.1493  0.0234  0.3296
  295loPI   C4B 4720  11.934   1.856   7.935  0.2875 -0.2565 -0.2519
  296loPI    C1 4721  14.543  16.090  10.466 -0.1820 -0.2419 -0.0516
  296loPI    C2 4722  14.447  16.259  10.815  0.0322  0.0687 -0.1389
  296loPI    C3 4723  14.394  15.866  10.762  0.0062  0.0166  0.2441
  296loPI   PO4 4724  14.760  16.302  10.416 -0.1090  0.0459  0.0089
  296loPI   GL1 4725  14.823  16.431  10.061 -0.0233  0.0168  0.2183
  296loPI   GL2 4726  14.682  16.693  10.055  0.0252 -0.3744 -0.2646
  296loPI   C1A 4727  14.817  16.106   9.775  0.0411  0.0161  0.4056
  296loPI   C2A 4728  14.745  16.023   9.314  0.2449  0.1995  0.1670
  296loPI   C3A 4729  14.738  16.171   8.893  0.1880  0.1700 -0.0917
  296loPI   C4A 4730  14.739  16.113   8.462 -0.1399  0.4752  0.1758
  296loPI   C5A 4731  14.821  15.832   8.158  0.0708 -0.1777  0.0824
  296loPI   C6A 4732  14.528  15.517   8.126  0.0227 -0.0939  0.1181
  296loPI   C1B 4733  14.715  16.714   9.645 -0.2400 -0.1638 -0.0769
  296loPI   C2B 4734  14.660  16.795   9.242  0.0959  0.0751  0.1250
  296loPI   C3B 4735  14.783  16.681   8.858  0.1498 -0.0708  0.0207
  296loPI   C4B 4736  14.793  16.777   8.389 -0.0607 -0.0322 -0.2273
  297loPI    C1 4737  17.044  11.102  10.648  0.2208 -0.1993 -0.1099
  297loPI    C2 4738  17.140  11.086  11.036  0.1633 -0.0485 -0.0889
  297loPI    C3 4739  16.772  10.984  10.917  0.1859 -0.1106 -0.1060
  297loPI   PO4 4740  17.048  11.350  10.579  0.2541  0.2320  0.1787
  297loPI   GL1 4741  17.102  11.589  10.148  0.0187 -0.3148  0.4750
  297loPI   GL2 4742  16.794  11.458  10.164 -0.0038 -0.0305  0.0814
  297loPI   C1A 4743  17.189  11.693   9.748  0.0120  0.0737  0.0336
  297loPI   C2A 4744  17.007  11.724   9.341  0.2047  0.0748  0.1876
  297loPI   C3A 4745  17.097  11.738   8.841 -0.0063 -0.2254 -0.4395
  297loPI   C4A 4746  16.963  11.712   8.445  0.2069  0.2025 -0.0746
  297loPI   C5A 4747  16.650  11.784   8.166  0.0576 -0.1811  0.0400
  297loPI   C6A 4748  16.534  12.164   7.821 -0.1072 -0.1279 -0.0319
  297loPI   C1B 4749  16.691  11.480   9.828 -0.0133  0.0714  0.1204
  297loPI   C2B 4750  16.557  11.447   9.340  0.2414 -0.0533 -0.1713
  297loPI   C3B 4751  16.593  11.472   8.886  0.2535 -0.0538 -0.0528
  297loPI   C4B 4752  16.526  11.362   8.499 -0.0731 -0.0521 -0.0114
  298loPI    C1 4753  15.610  16.940  11.107 -0.1609 -0.1936 -0.1508
  298loPI    C2 4754  15.498  16.588  11.260 -0.0167 -0.2086 -0.0782
  298loPI    C3 4755  15.243  16.896  11.260  0.0112 -0.1806  0.2808
  298loPI   PO4 4756  15.770  16.824  10.919  0.1847 -0.1412  0.3192
  298loPI   GL1 4757  15.711  16.731  10.481  0.2566 -0.0731 -0.1197
  298loPI   GL2 4758  16.050  16.827  10.394  0.0231 -0.0212 -0.0099
  298loPI   C1A 4759  15.815  16.652   9.974  0.0928 -0.0082 -0.1138
  298loPI   C2A 4760  15.653  16.677   9.520  0.1053  0.2713  0.3886
  298loPI   C3A 4761  15.694  16.684   9.052 -0.1613  0.2315  0.0560
  298loPI   C4A 4762  15.691  16.676   8.631 -0.0072  0.0206  0.1034
  298loPI   C5A 4763  15.908  16.813   8.277  0.0989 -0.1723 -0.0616
  298loPI   C6A 4764  16.275  17.002   8.274  0.0971 -0.0733 -0.3753
  298loPI   C1B 4765  16.223  16.915  10.025  0.2425 -0.0246 -0.3084
  298loPI   C2B 4766  16.143  16.871   9.570 -0.0542 -0.1405 -0.1111
  298loPI   C3B 4767  16.216  16.920   9.159  0.1465 -0.1930 -0.1152
  298loPI   C4B 4768  16.131  16.976   8.785 -0.0904 -0.0984 -0.1921
  299loPI    C1 4769   2.707  17.209  10.930  0.1199 -0.2233 -0.0243
  299loPI    C2 4770   2.801  17.242  11.317 -0.0851 -0.2041  0.0251
  299loPI    C3 4771   2.421  17.182  11.208 -0.0471 -0.0832 -0.1797
  299loPI   PO4 4772   2.814  17.431  10.764 -0.2680 -0.2815 -0.0651
  299loPI   GL1 4773   2.989  17.152  10.410 -0.0104  0.0940  0.1843
  299loPI   GL2 4774   3.307  17.331  10.320 -0.2447  0.1338 -0.1770
  299loPI   C1A 4775   2.842  17.087  10.036  0.0530 -0.1885  0.1701
  299loPI   C2A 4776   2.791  17.241   9.621  0.3963 -0.2892  0.0299
  299loPI   C3A 4777   2.900  17.282   9.243  0.0550 -0.0319 -0.4078
  299loPI   C4A 4778   2.809  17.149   8.901 -0.0831  0.3279  0.4185
  299loPI   C5A 4779   2.778  17.172   8.438 -0.2030  0.0208 -0.0320
  299loPI   C6A 4780   2.749  16.924   8.084 -0.1430  0.1030  0.0471
  299loPI   C1B 4781   3.283  17.396   9.914 -0.0302 -0.1728 -0.0685
  299loPI   C2B 4782   3.359  17.406   9.426  0.0884 -0.1702 -0.0415
  299loPI   C3B 4783   3.309  17.417   8.939  0.0255 -0.0289 -0.3091
  299loPI   C4B 4784   3.289  17.424   8.512 -0.2207 -0.2416  0.2509
  300loPI    C1 4785   5.467  16.849  10.297  0.0421 -0.0217  0.0256
  300loPI    C2 4786   5.195  17.106  10.438 -0.0552 -0.0709 -0.0711
  300loPI    C3 4787   5.231  16.743  10.602 -0.0059 -0.0424 -0.0187
  300loPI   PO4 4788   5.801  16.968  10.200 -0.1920 -0.0115 -0.1471
  300loPI   GL1 4789   6.175  16.991  10.065 -0.2773 -0.0890  0.2086
  300loPI   GL2 4790   6.316  16.725  10.191  0.0694  0.1347  0.1979
  300loPI   C1A 4791   6.187  16.951   9.568  0.0812 -0.0967  0.3467
  300loPI   C2A 4792   6.048  16.946   9.163  0.0486 -0.0065 -0.0882
  300loPI   C3A 4793   6.152  16.974   8.723 -0.0166 -0.2454 -0.1516
  300loPI   C4A 4794   6.032  16.945   8.323 -0.2002  0.0790  0.0266
  300loPI   C5A 4795   5.924  16.947   7.841  0.1642 -0.0675 -0.2142
  300loPI   C6A 4796   5.684  16.852   7.391 -0.2730  0.2697  0.0746
  300loPI   C1B 4797   6.595  16.760   9.822 -0.0480  0.2953 -0.1320
  300loPI   C2B 4798   6.573  16.700   9.418  0.0687 -0.0703  0.2087
  300loPI   C3B 4799   6.547  16.686   8.977 -0.0807  0.0150 -0.0620
  300loPI   C4B 4800   6.508  16.556   8.534 -0.1317 -0.1950 -0.0109
  301loPI    C1 4801   4.442   5.011  10.544  0.2912 -0.0168  0.0134
  301loPI    C2 4802   4.532   4.886  10.913 -0.0167  0.1961  0.1653
  301loPI    C3 4803   4.817   5.040  10.679  0.1949 -0.0062  0.2853
  301loPI   PO4 4804   4.142   5.029  10.599 -0.1023 -0.1404  0.0120
  301loPI   GL1 4805   3.823   4.790  10.323  0.3471  0.0641 -0.2051
  301loPI   GL2 4806   4.216   4.691  10.261  0.0440 -0.1447 -0.2312
  301loPI   C1A 4807   3.772   5.084  10.004 -0.2653 -0.0062  0.2370
  301loPI   C2A 4808   3.850   5.192   9.597  0.0749 -0.1689 -0.2316
  301loPI   C3A 4809   3.688   5.138   9.296 -0.1041 -0.2316 -0.1587
  301loPI   C4A 4810   3.642   5.068   8.863  0.1498 -0.0590 -0.0502
  301loPI   C5A 4811   3.677   5.032   8.514 -0.0962 -0.1485  0.4136
  301loPI   C6A 4812   3.673   5.186   8.109  0.0770  0.2022  0.0407
  301loPI   C1B 4813   4.203   4.954   9.770  0.2369 -0.1018  0.0864
  301loPI   C2B 4814   4.157   4.848   9.299 -0.4604 -0.0220  0.1632
  301loPI   C3B 4815   4.105   4.845   8.814 -0.1336  0.0539  0.6198
  301loPI   C4B 4816   4.080   4.665   8.400  0.3328 -0.1049  0.0414
  302loPI    C1 4817  16.053  15.719  11.127 -0.1525 -0.0375 -0.0554
  302loPI    C2 4818  16.287  15.466  11.329 -0.0936 -0.0181 -0.0984
  302loPI    C3 4819  15.954  15.333  11.153 -0.2908  0.0150  0.2398
  302loPI   PO4 4820  16.172  15.918  10.866 -0.1359  0.1984 -0.3572
  302loPI   GL1 4821  16.258  15.942  10.494  0.0039 -0.0277 -0.1908
  302loPI   GL2 4822  15.911  16.022  10.432  0.1026 -0.0524  0.2206
  302loPI   C1A 4823  16.261  15.891  10.045 -0.0122 -0.1848  0.2438
  302loPI   C2A 4824  16.231  15.860   9.561 -0.3111 -0.2386  0.4217
  302loPI   C3A 4825  16.172  15.917   9.119  0.1150  0.2479  0.1369
  302loPI   C4A 4826  16.150  15.870   8.610  0.0597  0.2257 -0.1329
  302loPI   C5A 4827  16.341  15.684   8.261 -0.0851  0.0793 -0.0060
  302loPI   C6A 4828  16.695  15.421   8.309  0.0032 -0.0866  0.0637
  302loPI   C1B 4829  15.820  16.096  10.043 -0.3321 -0.1289  0.2087
  302loPI   C2B 4830  15.713  16.194   9.640 -0.2645 -0.2523  0.1827
  302loPI   C3B 4831  15.679  16.140   9.161  0.1167  0.2620  0.0599
  302loPI   C4B 4832  15.541  16.206   8.775  0.1488  0.2327  0.0855
  303loPI    C1 4833   3.120   6.019  10.733  0.1012 -0.1105  0.0490
  303loPI    C2 4834   2.972   5.985  11.103 -0.3049 -0.0020 -0.0986
  303loPI    C3 4835   2.761   6.172  10.819  0.1487  0.2146 -0.3038
  303loPI   PO4 4836   3.112   5.862  10.530 -0.0043  0.2070 -0.1637
  303loPI   GL1 4837   3.021   5.822  10.147  0.0418  0.0648  0.0077
  303loPI   GL2 4838   2.687   5.989  10.274  0.1756 -0.2228 -0.1051
  303loPI   C1A 4839   2.948   5.650   9.781  0.1275  0.1227 -0.1648
  303loPI   C2A 4840   2.815   5.568   9.318  0.0940  0.2316  0.2139
  303loPI   C3A 4841   2.786   5.692   8.884 -0.1597  0.1198 -0.0751
  303loPI   C4A 4842   2.768   5.705   8.477 -0.1303 -0.0754  0.2744
  303loPI   C5A 4843   2.831   5.386   8.212 -0.0830  0.0410 -0.1754
  303loPI   C6A 4844   3.217   5.112   8.214 -0.0119  0.1160  0.0230
  303loPI   C1B 4845   2.549   5.833   9.981  0.0244 -0.0464  0.3658
  303loPI   C2B 4846   2.445   5.846   9.543  0.2053  0.1376  0.1731
  303loPI   C3B 4847   2.367   5.843   9.115 -0.0092 -0.0426 -0.0880
  303loPI   C4B 4848   2.353   6.012   8.725  0.0588 -0.0587  0.1900
  304loPI    C1 4849   8.739  11.607  11.124 -0.2484  0.0952  0.0423
  304loPI    C2 4850   8.856  11.944  11.305 -0.0202  0.0885 -0.0879
  304loPI    C3 4851   8.815  11.607  11.517  0.2403  0.0818 -0.0454
  304loPI   PO4 4852   8.641  11.756  10.893  0.0717 -0.1618  0.2564
  304loPI   GL1 4853   8.756  11.763  10.566  0.1953 -0.2821 -0.0271
  304loPI   GL2 4854   8.656  12.051  10.478 -0.1575  0.4044 -0.1871
  304loPI   C1A 4855   8.976  11.517  10.321 -0.0198 -0.1699 -0.2426
  304loPI   C2A 4856   8.949  11.544   9.924  0.0597  0.1674 -0.1800
  304loPI   C3A 4857   8.978  11.634   9.545  0.0984  0.1860 -0.1196
  304loPI   C4A 4858   8.911  11.618   9.059  0.2068 -0.1993 -0.0138
  304loPI   C5A 4859   8.779  11.882   8.629  0.0091  0.1647 -0.0339
  304loPI   C6A 4860   8.624  11.866   8.211 -0.0452 -0.3434 -0.1952
  304loPI   C1B 4861   8.747  12.020  10.098  0.1765 -0.0728 -0.2114
  304loPI   C2B 4862   8.879  12.165   9.691 -0.2364 -0.1661  0.1035
  304loPI   C3B 4863   8.870  12.108   9.343 -0.1347  0.3524 -0.0453
  304loPI   C4B 4864   8.896  12.262   8.924 -0.1159  0.0142 -0.5100
  305loPI    C1 4865  16.440  17.426  11.151 -0.3633  0.2794  0.3000
  305loPI    C2 4866  16.339  17.097  11.355 -0.1145  0.2035  0.3045
  305loPI    C3 4867  16.661  17.308  11.462 -0.0789  0.2590  0.0942
  305loPI   PO4 4868  16.532  17.338  10.916  0.2347 -0.2692  0.1450
  305loPI   GL1 4869  16.730  17.054  10.660  0.0461 -0.1089  0.2937
  305loPI   GL2 4870  17.118  17.000  10.637  0.0243 -0.0521  0.2667
  305loPI   C1A 4871  16.652  17.183  10.295  0.3584 -0.1451  0.1851
  305loPI   C2A 4872  16.624  17.153   9.858 -0.2369  0.2380  0.0951
  305loPI   C3A 4873  16.634  17.186   9.389 -0.1345  0.0239 -0.0647
  305loPI   C4A 4874  16.573  17.216   8.909 -0.1569  0.2189 -0.1538
  305loPI   C5A 4875  16.690  17.233   8.460 -0.1138  0.0017  0.0443
  305loPI   C6A 4876  16.870  17.188   8.132 -0.0843  0.1702 -0.2612
  305loPI   C1B 4877  17.034  16.908  10.118 -0.0480 -0.0782 -0.2557
  305loPI   C2B 4878  17.143  16.981   9.713  0.0812 -0.1503 -0.0456
  305loPI   C3B 4879  17.097  16.971   9.364  0.1010  0.5394  0.2495
  305loPI   C4B 4880  17.050  17.023   8.920  0.0203 -0.0444  0.0254
  306loPI    C1 4881   8.481   2.603  10.155 -0.0672 -0.0290  0.0188
  306loPI    C2 4882   8.413   2.803  10.495  0.1326  0.0559  0.0100
  306loPI    C3 4883   8.710   2.536  10.476 -0.0348 -0.1306 -0.0250
  306loPI   PO4 4884   8.457   2.857   9.897 -0.3267  0.1668 -0.0682
  306loPI   GL1 4885   8.239   2.850   9.461 -0.0067  0.3696  0.3918
  306loPI   GL2 4886   8.553   2.795   9.356  0.0793 -0.1660 -0.0337
  306loPI   C1A 4887   8.097   2.761   9.038 -0.0122 -0.0417  0.0822
  306loPI   C2A 4888   7.997   2.860   8.753 -0.1709  0.0103  0.1513
  306loPI   C3A 4889   8.014   2.926   8.355 -0.1706 -0.0437  0.0590
  306loPI   C4A 4890   7.739   2.964   7.938 -0.1693 -0.3545 -0.2097
  306loPI   C5A 4891   7.693   2.556   7.706 -0.0108 -0.4565 -0.0447
  306loPI   C6A 4892   7.340   2.290   7.947  0.0809 -0.3551  0.1078
  306loPI   C1B 4893   8.873   2.733   9.050  0.0795 -0.1462 -0.1976
  306loPI   C2B 4894   8.884   2.748   8.536 -0.0450  0.1544  0.1205
  306loPI   C3B 4895   9.075   2.650   8.106  0.1995 -0.0906  0.0917
  306loPI   C4B 4896   9.417   2.659   7.913 -0.1060 -0.1766 -0.2792
  307loPI    C1 4897  12.350  16.519  10.851 -0.0629  0.1773  0.0728
  307loPI    C2 4898  12.150  16.837  10.987 -0.1586  0.1163  0.0759
  307loPI    C3 4899  12.250  16.542  11.238 -0.0682  0.1446  0.0735
  307loPI   PO4 4900  12.568  16.639  10.591  0.2678  0.0041 -0.1704
  307loPI   GL1 4901  12.759  16.738  10.170  0.2235  0.0860  0.1539
  307loPI   GL2 4902  12.553  16.933  10.119  0.1655  0.3136 -0.2601
  307loPI   C1A 4903  12.918  16.792   9.850 -0.0881 -0.0785 -0.0275
  307loPI   C2A 4904  12.959  16.688   9.479  0.0529  0.1186  0.0554
  307loPI   C3A 4905  12.887  16.624   9.122 -0.1879 -0.0512 -0.2647
  307loPI   C4A 4906  12.882  16.689   8.748  0.3819  0.0345 -0.0700
  307loPI   C5A 4907  12.921  16.686   8.319  0.1020 -0.3255 -0.2012
  307loPI   C6A 4908  12.919  16.988   7.911  0.0023  0.1839 -0.1127
  307loPI   C1B 4909  12.513  16.933   9.656  0.0355 -0.1847 -0.0852
  307loPI   C2B 4910  12.515  16.937   9.235 -0.1791 -0.1336 -0.1092
  307loPI   C3B 4911  12.409  16.854   8.742  0.1720 -0.0278  0.0885
  307loPI   C4B 4912  12.479  16.886   8.235 -0.1689  0.0662  0.3791
  308loPI    C1 4913   5.002  15.739  10.566 -0.0885 -0.2099 -0.1149
  308loPI    C2 4914   5.336  15.821  10.770 -0.1429  0.3029 -0.2160
  308loPI    C3 4915   4.991  15.766  10.965 -0.0458 -0.0120 -0.1260
  308loPI   PO4 4916   5.150  15.907  10.274 -0.3274 -0.2332  0.1477
  308loPI   GL1 4917   5.107  16.107   9.997  0.0688  0.2611  0.0914
  308loPI   GL2 4918   5.262  16.360   9.724  0.1209  0.2502 -0.1513
  308loPI   C1A 4919   5.231  15.891   9.583 -0.1721 -0.2285 -0.0019
  308loPI   C2A 4920   5.278  15.879   9.155  0.4228 -0.0721 -0.3397
  308loPI   C3A 4921   5.198  15.854   8.758 -0.1098 -0.2129 -0.1825
  308loPI   C4A 4922   5.202  15.888   8.441  0.2074 -0.3006 -0.0657
  308loPI   C5A 4923   5.349  16.182   8.101  0.1111  0.1815 -0.1249
  308loPI   C6A 4924   5.587  16.510   7.823  0.0848  0.2740 -0.0784
  308loPI   C1B 4925   5.289  16.403   9.306 -0.0359  0.1614  0.1145
  308loPI   C2B 4926   5.182  16.416   8.900 -0.3761  0.4824 -0.0888
  308loPI   C3B 4927   5.094  16.404   8.500 -0.0503 -0.2358  0.0680
  308loPI   C4B 4928   5.160  16.706   8.146  0.4228  0.1438  0.2185
  309loPI    C1 4929   4.743   9.140  10.588 -0.1455  0.1214  0.0903
  309loPI    C2 4930   4.751   9.495  10.772  0.0491  0.1879 -0.0434
  309loPI    C3 4931   5.093   9.303  10.692 -0.0501  0.0166 -0.0618
  309loPI   PO4 4932   4.650   9.197  10.371  0.2198  0.2647 -0.0681
  309loPI   GL1 4933   4.352   8.907  10.072 -0.2134  0.1757 -0.3557
  309loPI   GL2 4934   4.325   8.585  10.097 -0.0124  0.1383  0.3027
  309loPI   C1A 4935   4.379   9.092   9.647 -0.0520 -0.1520 -0.0080
  309loPI   C2A 4936   4.197   9.096   9.261 -0.1910 -0.3222 -0.2260
  309loPI   C3A 4937   4.190   9.043   8.849  0.0129  0.2337 -0.1812
  309loPI   C4A 4938   4.016   9.063   8.483  0.0912  0.0305  0.2564
  309loPI   C5A 4939   3.966   9.205   8.153 -0.3894 -0.1708  0.1151
  309loPI   C6A 4940   3.706   9.087   7.843  0.0370 -0.0795  0.0610
  309loPI   C1B 4941   4.332   8.625   9.634  0.2995 -0.0997 -0.0584
  309loPI   C2B 4942   4.178   8.596   9.204 -0.0928  0.2303 -0.1407
  309loPI   C3B 4943   4.033   8.569   8.712  0.5193  0.0889 -0.0104
  309loPI   C4B 4944   4.219   8.608   8.278  0.3057  0.2014  0.0619
  310loPI    C1 4945  12.852  10.148  10.788 -0.0986  0.2499  0.0223
  310loPI    C2 4946  12.640  10.099  11.124  0.1980 -0.1701  0.1566
  310loPI    C3 4947  13.006  10.259  11.139  0.1965 -0.1532  0.0278
  310loPI   PO4 4948  12.796  10.250  10.632 -0.1279  0.1710 -0.0827
  310loPI   GL1 4949  12.956  10.442  10.324 -0.2018  0.2755  0.1652
  310loPI   GL2 4950  12.705  10.685  10.378 -0.1288 -0.1193  0.1313
  310loPI   C1A 4951  12.959  10.422   9.823 -0.0122 -0.2014 -0.2370
  310loPI   C2A 4952  12.995  10.432   9.310 -0.0913 -0.0035 -0.0565
  310loPI   C3A 4953  12.898  10.452   8.922 -0.0016 -0.1897 -0.2258
  310loPI   C4A 4954  12.820  10.363   8.467  0.0142 -0.1396 -0.0357
  310loPI   C5A 4955  12.546  10.243   8.231  0.0787  0.1138 -0.0924
  310loPI   C6A 4956  12.175  10.069   8.029 -0.1290 -0.1106 -0.2324
  310loPI   C1B 4957  12.521  10.662   9.966 -0.1751 -0.1312  0.2216
  310loPI   C2B 4958  12.564  10.560   9.471  0.1179  0.0193 -0.0099
  310loPI   C3B 4959  12.430  10.674   9.061  0.2743  0.3692  0.4696
  310loPI   C4B 4960  12.377  10.571   8.594  0.2374 -0.1627 -0.0014
  311loPI    C1 4961   3.615   6.813  10.591  0.0981 -0.0574  0.0847
  311loPI    C2 4962   3.698   7.204  10.606 -0.5995  0.1058  0.0031
  311loPI    C3 4963   3.757   6.975  10.928  0.1848  0.1845 -0.0657
  311loPI   PO4 4964   3.355   6.789  10.455 -0.1775 -0.1290 -0.1369
  311loPI   GL1 4965   3.427   6.906  10.016 -0.0039  0.0124 -0.1009
  311loPI   GL2 4966   3.616   7.222   9.932 -0.3233  0.0862 -0.0328
  311loPI   C1A 4967   3.374   6.978   9.580  0.0959  0.0576 -0.3044
  311loPI   C2A 4968   3.349   6.959   9.165 -0.1522 -0.1684 -0.2373
  311loPI   C3A 4969   3.382   6.884   8.693  0.1425  0.2892 -0.0999
  311loPI   C4A 4970   3.184   6.931   8.280 -0.1834 -0.1648 -0.1890
  311loPI   C5A 4971   3.210   7.008   7.849  0.3282  0.1505  0.0592
  311loPI   C6A 4972   3.339   7.419   7.656  0.0427 -0.0538  0.2961
  311loPI   C1B 4973   3.804   7.249   9.575 -0.0509 -0.2126 -0.1634
  311loPI   C2B 4974   3.829   7.263   9.141  0.2961  0.1239 -0.2430
  311loPI   C3B 4975   3.602   7.293   8.719  0.2805 -0.2308  0.0603
  311loPI   C4B 4976   3.555   7.203   8.278 -0.0258 -0.5109 -0.1915
  312loPI    C1 4977  15.473  13.579  11.220  0.1387 -0.1040 -0.1153
  312loPI    C2 4978  15.275  13.785  11.500  0.1637  0.2993 -0.3856
  312loPI    C3 4979  15.644  13.650  11.575  0.0604  0.1518 -0.1267
  312loPI   PO4 4980  15.348  13.707  11.040  0.2061  0.1498  0.0704
  312loPI   GL1 4981  15.322  13.742  10.611 -0.3723  0.0411  0.1450
  312loPI   GL2 4982  15.617  13.918  10.344 -0.1718  0.2061  0.1766
  312loPI   C1A 4983  15.198  13.788  10.127 -0.2206  0.0741  0.0541
  312loPI   C2A 4984  15.304  13.790   9.766 -0.1918 -0.0700  0.2111
  312loPI   C3A 4985  15.293  13.665   9.297  0.2660 -0.4965  0.4510
  312loPI   C4A 4986  15.222  13.791   8.841 -0.0316 -0.0139  0.2987
  312loPI   C5A 4987  15.221  13.929   8.416 -0.4127 -0.1615  0.1839
  312loPI   C6A 4988  15.506  13.808   8.003  0.2788  0.0623  0.1632
  312loPI   C1B 4989  15.694  14.013   9.925 -0.1469  0.0257 -0.0776
  312loPI   C2B 4990  15.719  13.992   9.475  0.2791 -0.1014  0.1795
  312loPI   C3B 4991  15.684  13.974   9.016  0.2071 -0.2761  0.1825
  312loPI   C4B 4992  15.648  14.180   8.616  0.0926  0.0919 -0.0313
  313loPI    C1 4993  18.204  14.523  10.873  0.2747  0.0480  0.0878
  313loPI    C2 4994  18.121  14.689  11.227  0.0432 -0.0789  0.0944
  313loPI    C3 4995  18.449  14.465  11.185  0.1169  0.0065  0.2051
  313loPI   PO4 4996  18.091  14.668  10.656  0.1587  0.0664  0.1298
  313loPI   GL1 4997  18.315  14.909  10.338  0.1335  0.4464  0.0650
  313loPI   GL2 4998  18.481  15.026  10.237 -0.1899 -0.2280  0.0571
  313loPI   C1A 4999  18.079  14.842   9.907  0.1472  0.2972  0.0370
  313loPI   C2A 5000  18.005  14.806   9.507  0.0181  0.0846  0.2920
  313loPI   C3A 5001  17.940  14.846   9.138  0.1620  0.2191 -0.2483
  313loPI   C4A 5002  18.016  14.746   8.764 -0.1684 -0.0156 -0.1441
  313loPI   C5A 5003  18.048  14.771   8.354 -0.0432 -0.0376  0.2791
  313loPI   C6A 5004  18.041  15.003   8.016  0.1418  0.3844  0.2731
  313loPI   C1B 5005  18.520  15.042   9.759  0.2052 -0.1475  0.2513
  313loPI   C2B 5006  18.439  15.027   9.360  0.1143 -0.1316 -0.0129
  313loPI   C3B 5007  18.454  15.042   8.916 -0.1440 -0.0433  0.0152
  313loPI   C4B 5008  18.398  15.075   8.457 -0.1250 -0.0863 -0.0484
  314loPI    C1 5009  12.556   0.260  10.387 -0.1145  0.1571 -0.0551
  314loPI    C2 5010  12.621   0.045  10.718 -0.1715  0.0108 -0.1382
  314loPI    C3 5011  12.250   0.083  10.574 -0.1587  0.1481 -0.1356
  314loPI   PO4 5012  12.767   0.453  10.407  0.1893  0.1433 -0.0373
  314loPI   GL1 5013  13.006   0.593  10.038 -0.2256  0.2335  0.1734
  314loPI   GL2 5014  12.651   0.451   9.861  0.2399  0.0920 -0.0033
  314loPI   C1A 5015  13.037   0.501   9.570 -0.0317 -0.1260 -0.2091
  314loPI   C2A 5016  12.972   0.473   9.132  0.0247  0.4007 -0.2137
  314loPI   C3A 5017  12.944   0.338   8.693  0.1277 -0.2607 -0.0763
  314loPI   C4A 5018  13.114   0.288   8.386  0.0492 -0.0062  0.1163
  314loPI   C5A 5019  13.519   0.205   8.173 -0.0818  0.1159  0.3635
  314loPI   C6A 5020  13.656   0.055   7.774 -0.0574  0.4227 -0.1443
  314loPI   C1B 5021  12.502   0.177   9.547 -0.1059  0.0486  0.0065
  314loPI   C2B 5022  12.516   0.195   9.103 -0.0068  0.1293  0.0809
  314loPI   C3B 5023  12.440   0.184   8.695  0.2248 -0.1477 -0.1513
  314loPI   C4B 5024  12.458   0.143   8.216  0.1280 -0.1700 -0.3328
  315loPI    C1 5025   9.310  16.167  10.337 -0.0653 -0.0466 -0.0558
  315loPI    C2 5026   9.000  16.271  10.566 -0.0714  0.0250 -0.0964
  315loPI    C3 5027   9.365  16.414  10.646 -0.0672  0.0219 -0.1099
  315loPI   PO4 5028   9.213  16.243  10.115 -0.1492 -0.0436  0.2530
  315loPI   GL1 5029   9.306  16.364   9.657 -0.2813 -0.0899  0.2434
  315loPI   GL2 5030   9.315  16.723   9.808  0.0783 -0.0045  0.1768
  315loPI   C1A 5031   9.335  16.227   9.308 -0.2804  0.0624  0.2396
  315loPI   C2A 5032   9.290  16.174   8.891 -0.2628 -0.1010 -0.1041
  315loPI   C3A 5033   9.393  16.039   8.523 -0.1987 -0.0852 -0.1551
  315loPI   C4A 5034   9.356  15.955   8.007 -0.0138  0.0352  0.1125
  315loPI   C5A 5035   9.303  16.294   7.731  0.4145  0.2580  0.0850
  315loPI   C6A 5036   9.058  16.608   7.561 -0.0881  0.3608  0.1656
  315loPI   C1B 5037   9.317  16.756   9.380  0.1228 -0.0946 -0.2052
  315loPI   C2B 5038   9.294  16.745   8.934  0.0497  0.0691 -0.4595
  315loPI   C3B 5039   9.360  16.679   8.423 -0.1021 -0.1383  0.0573
  315loPI   C4B 5040   9.316  16.737   7.937 -0.1346 -0.0856  0.2053
  316loPI    C1 5041  17.995   0.413  11.442  0.1250  0.0555  0.0474
  316loPI    C2 5042  17.895   0.026  11.432 -0.3221  0.1650  0.0232
  316loPI    C3 5043  17.762   0.259  11.729 -0.2877  0.3601 -0.1127
  316loPI   PO4 5044  17.910   0.456  11.203 -0.2274  0.2695  0.1432
  316loPI   GL1 5045  17.926   0.503  10.707 -0.0476  0.2610  0.0156
  316loPI   GL2 5046  18.212   0.702  10.658 -0.0050  0.6069 -0.2372
  316loPI   C1A 5047  17.871   0.273  10.223 -0.3034  0.0555  0.0781
  316loPI   C2A 5048  17.990   0.273   9.828  0.1524  0.2557 -0.1546
  316loPI   C3A 5049  18.015   0.228   9.384  0.1786  0.2061  0.1235
  316loPI   C4A 5050  17.998   0.130   8.915  0.0323 -0.1149 -0.1029
  316loPI   C5A 5051  17.821   0.384   8.636 -0.2577  0.1420  0.0276
  316loPI   C6A 5052  17.521   0.412   8.470  0.1114 -0.0706 -0.3626
  316loPI   C1B 5053  18.106   0.704  10.257  0.1451  0.0693 -0.0248
  316loPI   C2B 5054  18.022   0.741   9.771  0.3496  0.0228 -0.1958
  316loPI   C3B 5055  18.021   0.726   9.369 -0.0333 -0.2488 -0.0368
  316loPI   C4B 5056  18.004   0.584   9.006  0.2775 -0.3422 -0.0463
  317loPI    C1 5057   4.513   1.870  10.956 -0.0012  0.1146 -0.2488
  317loPI    C2 5058   4.737   1.835  11.286 -0.1471 -0.0272 -0.1635
  317loPI    C3 5059   4.572   2.187  11.192  0.0021  0.0452 -0.1560
  317loPI   PO4 5060   4.622   1.726  10.696  0.2530 -0.0203  0.2053
  317loPI   GL1 5061   4.509   1.549  10.254  0.0291 -0.0418 -0.1253
  317loPI   GL2 5062   4.480   1.824  10.043  0.0723  0.2589 -0.1568
  317loPI   C1A 5063   4.231   1.248   9.966 -0.0813 -0.0855  0.2054
  317loPI   C2A 5064   4.223   1.214   9.443 -0.1878  0.1462 -0.0101
  317loPI   C3A 5065   4.171   1.123   9.101  0.1140 -0.1596  0.1664
  317loPI   C4A 5066   4.153   1.073   8.685 -0.0672 -0.2001  0.2655
  317loPI   C5A 5067   3.969   1.101   8.355  0.1972  0.3919  0.2920
  317loPI   C6A 5068   3.849   0.983   7.967  0.2169 -0.2559 -0.0975
  317loPI   C1B 5069   4.430   1.859   9.716 -0.0260  0.1504 -0.1059
  317loPI   C2B 5070   4.266   1.772   9.251  0.0757 -0.3869 -0.0089
  317loPI   C3B 5071   4.213   1.622   8.887  0.3176 -0.0060  0.3227
  317loPI   C4B 5072   4.090   1.580   8.423  0.2057  0.2578  0.1187
  318loPI    C1 5073  12.560   3.109  10.213  0.0826  0.0793  0.0297
  318loPI    C2 5074  12.411   3.295  10.534  0.0440 -0.1244  0.1314
  318loPI    C3 5075  12.657   3.490  10.286 -0.2333  0.1549  0.0700
  318loPI   PO4 5076  12.384   3.053  10.012  0.0372  0.1864  0.3359
  318loPI   GL1 5077  12.333   3.056   9.548  0.4779 -0.0402 -0.1909
  318loPI   GL2 5078  12.475   2.881   9.412 -0.3726 -0.1464  0.2197
  318loPI   C1A 5079  12.280   3.132   9.031 -0.0141 -0.0231  0.2232
  318loPI   C2A 5080  12.134   3.058   8.602 -0.5701  0.2197 -0.0033
  318loPI   C3A 5081  12.051   2.921   8.160 -0.0893  0.2183  0.0561
  318loPI   C4A 5082  11.762   2.764   7.832  0.1977  0.0275 -0.1650
  318loPI   C5A 5083  11.380   2.808   7.612  0.3139  0.0057  0.0299
  318loPI   C6A 5084  11.351   2.918   7.135  0.1008 -0.0108 -0.0195
  318loPI   C1B 5085  12.636   2.822   9.129 -0.1086 -0.0323  0.4792
  318loPI   C2B 5086  12.514   2.772   8.684  0.1815 -0.2843  0.0663
  318loPI   C3B 5087  12.645   2.763   8.321  0.2039  0.0027 -0.1723
  318loPI   C4B 5088  12.739   2.593   7.865  0.0362  0.2030 -0.3383
  319loPI    C1 5089   1.391   3.452  10.814 -0.1083  0.1314 -0.1219
  319loPI    C2 5090   1.093   3.478  11.080 -0.0313  0.1710 -0.0387
  319loPI    C3 5091   1.460   3.373  11.200 -0.0392 -0.0024 -0.1608
  319loPI   PO4 5092   1.323   3.578  10.621  0.0612  0.0322 -0.2106
  319loPI   GL1 5093   1.228   3.447  10.173  0.0031 -0.1445  0.1662
  319loPI   GL2 5094   1.006   3.698  10.246  0.0984 -0.0636  0.3866
  319loPI   C1A 5095   1.403   3.348   9.868  0.4152  0.1716  0.0849
  319loPI   C2A 5096   1.395   3.263   9.553 -0.1159  0.3785  0.0004
  319loPI   C3A 5097   1.462   3.345   9.064 -0.2352  0.2024  0.0115
  319loPI   C4A 5098   1.325   3.361   8.636 -0.1613  0.1825 -0.1389
  319loPI   C5A 5099   1.300   3.544   8.307 -0.0073 -0.0371 -0.2345
  319loPI   C6A 5100   1.180   3.607   7.920  0.4655 -0.2813 -0.0882
  319loPI   C1B 5101   0.969   3.581   9.779  0.0766  0.0747 -0.1443
  319loPI   C2B 5102   0.879   3.487   9.455  0.0019 -0.0411  0.3197
  319loPI   C3B 5103   0.873   3.560   9.044  0.0081  0.1778 -0.0737
  319loPI   C4B 5104   0.848   3.539   8.509 -0.0206 -0.2885 -0.2262
  320loPI    C1 5105  14.206  12.306  10.926  0.1123 -0.0432 -0.0453
  320loPI    C2 5106  14.549  12.177  11.085  0.1090  0.1259  0.1025
  320loPI    C3 5107  14.272  12.345  11.318 -0.1354 -0.1381  0.0076
  320loPI   PO4 5108  14.280  12.253  10.602 -0.3282 -0.1341 -0.0060
  320loPI   GL1 5109  14.496  12.271  10.210  0.3035 -0.0091  0.1252
  320loPI   GL2 5110  14.367  12.589  10.222 -0.1332 -0.1511 -0.0804
  320loPI   C1A 5111  14.435  12.192   9.695 -0.1783 -0.1371  0.0020
  320loPI   C2A 5112  14.398  12.174   9.286 -0.1675 -0.1331  0.0670
  320loPI   C3A 5113  14.363  12.231   8.904  0.1884 -0.2321 -0.0043
  320loPI   C4A 5114  14.355  12.214   8.407  0.1475 -0.1961 -0.0084
  320loPI   C5A 5115  14.049  12.167   8.107  0.2060 -0.0849 -0.0405
  320loPI   C6A 5116  13.692  11.957   8.111  0.1845  0.1338  0.1115
  320loPI   C1B 5117  14.350  12.777   9.942 -0.0988  0.0042  0.3825
  320loPI   C2B 5118  14.419  12.830   9.485 -0.0047  0.0358 -0.2644
  320loPI   C3B 5119  14.398  12.820   8.981 -0.2345 -0.2114 -0.0404
  320loPI   C4B 5120  14.392  12.703   8.610 -0.1490  0.0173 -0.5147
  321loPI    C1 5121   1.244  11.439  10.767 -0.0105 -0.0115 -0.2325
  321loPI    C2 5122   1.444  11.168  10.983  0.0305  0.1646 -0.0459
  321loPI    C3 5123   1.266  11.477  11.164 -0.1693  0.1658 -0.2390
  321loPI   PO4 5124   1.152  11.219  10.559  0.1666  0.1361  0.0895
  321loPI   GL1 5125   0.932  11.252  10.132  0.1252 -0.1239  0.0053
  321loPI   GL2 5126   1.056  11.517  10.081  0.0638 -0.0459 -0.0033
  321loPI   C1A 5127   1.060  10.999   9.793 -0.2225 -0.2439  0.0145
  321loPI   C2A 5128   1.035  10.923   9.397  0.1426 -0.2331 -0.0574
  321loPI   C3A 5129   1.011  10.899   8.973  0.4182  0.2452  0.0300
  321loPI   C4A 5130   0.922  10.976   8.554 -0.2017  0.2252 -0.4283
  321loPI   C5A 5131   0.700  11.036   8.162  0.1834 -0.0646 -0.2213
  321loPI   C6A 5132   0.531  11.194   7.904 -0.3497  0.4782  0.0444
  321loPI   C1B 5133   1.062  11.499   9.655 -0.1857  0.1035 -0.0059
  321loPI   C2B 5134   1.050  11.398   9.189  0.2149 -0.0265  0.0827
  321loPI   C3B 5135   1.040  11.411   8.828  0.0433  0.2844 -0.2799
  321loPI   C4B 5136   0.852  11.498   8.421  0.0757 -0.1535 -0.0959
  322loPI    C1 5137  13.132  17.757  10.653 -0.1326  0.2046 -0.0854
  322loPI    C2 5138  12.837  17.906  10.879 -0.0530  0.0191  0.1450
  322loPI    C3 5139  13.201  17.849  11.036  0.0742  0.1307 -0.1036
  322loPI   PO4 5140  13.095  17.578  10.542  0.0482 -0.0236 -0.1673
  322loPI   GL1 5141  13.121  17.787  10.074 -0.5158  0.3133 -0.0232
  322loPI   GL2 5142  13.392  17.952  10.244  0.1285  0.0543  0.2733
  322loPI   C1A 5143  13.106  17.789   9.637 -0.0909  0.1858 -0.1005
  322loPI   C2A 5144  12.961  17.879   9.263 -0.2154 -0.0545 -0.0993
  322loPI   C3A 5145  12.878  17.655   8.898  0.0242 -0.1908  0.2108
  322loPI   C4A 5146  12.898  17.691   8.428 -0.0880  0.2162  0.1632
  322loPI   C5A 5147  13.118  17.679   8.008  0.1250  0.0477  0.2230
  322loPI   C6A 5148  12.925  17.461   7.618 -0.0392  0.0514 -0.1964
  322loPI   C1B 5149  13.413  18.103   9.840 -0.2835 -0.3941  0.1632
  322loPI   C2B 5150  13.449  18.015   9.323 -0.1774 -0.1674  0.0152
  322loPI   C3B 5151  13.375  17.966   8.809 -0.1247 -0.5322  0.1209
  322loPI   C4B 5152  13.366  17.971   8.357  0.0817  0.2156  0.0562
  323loPI    C1 5153  11.954   8.590  10.684 -0.3454 -0.0461 -0.1502
  323loPI    C2 5154  11.862   8.354  10.994 -0.0597  0.0998  0.0492
  323loPI    C3 5155  11.648   8.684  10.924 -0.1480  0.0469  0.0690
  323loPI   PO4 5156  11.976   8.539  10.516  0.1611  0.1532 -0.1972
  323loPI   GL1 5157  12.099   8.608  10.085  0.0941  0.2402  0.0842
  323loPI   GL2 5158  12.415   8.689  10.153 -0.0077  0.1821  0.3774
  323loPI   C1A 5159  11.987   8.761   9.710  0.0735  0.0024 -0.1464
  323loPI   C2A 5160  12.105   8.755   9.259 -0.0905 -0.2933  0.3183
  323loPI   C3A 5161  12.055   8.816   8.861  0.0885  0.0896 -0.2527
  323loPI   C4A 5162  12.054   8.883   8.419  0.0665 -0.0348  0.0678
  323loPI   C5A 5163  12.158   8.818   7.937  0.0836 -0.4164 -0.1598
  323loPI   C6A 5164  11.915   8.566   7.621  0.0032 -0.1677 -0.1159
  323loPI   C1B 5165  12.480   8.944   9.816 -0.2462 -0.3410  0.0717
  323loPI   C2B 5166  12.554   8.987   9.368 -0.5304  0.0127 -0.0312
  323loPI   C3B 5167  12.553   8.981   8.929 -0.1038  0.2953  0.1653
  323loPI   C4B 5168  12.462   9.113   8.537  0.0740  0.1432 -0.0181
  324loPI    C1 5169  12.951  15.421  10.994 -0.2550  0.0311  0.0277
  324loPI    C2 5170  13.278  15.542  11.190  0.0085 -0.0516 -0.3501
  324loPI    C3 5171  12.951  15.434  11.394  0.3198 -0.2709  0.0477
  324loPI   PO4 5172  13.076  15.239  10.829  0.0104  0.1212 -0.3008
  324loPI   GL1 5173  13.153  15.257  10.338  0.0007  0.1385 -0.1758
  324loPI   GL2 5174  12.888  15.208  10.085  0.1615 -0.0559  0.0271
  324loPI   C1A 5175  13.345  15.407   9.967  0.1968 -0.1254 -0.0439
  324loPI   C2A 5176  13.478  15.416   9.635 -0.0262  0.5587 -0.1815
  324loPI   C3A 5177  13.504  15.337   9.226  0.1953  0.0131  0.2303
  324loPI   C4A 5178  13.392  15.331   8.816 -0.3093 -0.0822  0.2033
  324loPI   C5A 5179  13.500  15.264   8.264  0.0800  0.0934 -0.0324
  324loPI   C6A 5180  13.817  15.524   8.047 -0.2236  0.0233  0.3998
  324loPI   C1B 5181  12.981  15.215   9.575  0.0328  0.2022  0.1753
  324loPI   C2B 5182  13.036  15.175   9.079 -0.0905  0.3519  0.1208
  324loPI   C3B 5183  13.001  15.170   8.598  0.0881 -0.1857 -0.2232
  324loPI   C4B 5184  13.072  15.539   8.385  0.1124  0.0023 -0.1173
  325loPI    C1 5185  17.778  15.446  11.031 -0.0544  0.1663  0.2760
  325loPI    C2 5186  17.820  15.057  10.944 -0.2667  0.1883  0.0664
  325loPI    C3 5187  17.987  15.207  11.275 -0.0026 -0.0361  0.0379
  325loPI   PO4 5188  17.610  15.503  10.798  0.2657  0.6158 -0.0548
  325loPI   GL1 5189  17.621  15.594  10.324 -0.2005  0.1824 -0.3889
  325loPI   GL2 5190  17.385  15.440  10.376  0.0689  0.4745 -0.2933
  325loPI   C1A 5191  17.693  15.513   9.922  0.1105 -0.1488  0.2023
  325loPI   C2A 5192  17.596  15.659   9.552 -0.0453 -0.0943  0.3108
  325loPI   C3A 5193  17.626  15.561   9.104 -0.0582 -0.1146 -0.2441
  325loPI   C4A 5194  17.472  15.648   8.701  0.2564  0.0630 -0.1456
  325loPI   C5A 5195  17.454  15.775   8.315  0.2252 -0.0715 -0.0554
  325loPI   C6A 5196  17.355  15.747   7.878 -0.1708 -0.1626  0.4850
  325loPI   C1B 5197  17.175  15.339  10.007 -0.0316  0.0299 -0.0330
  325loPI   C2B 5198  17.172  15.406   9.561  0.0426  0.1028  0.0051
  325loPI   C3B 5199  17.085  15.367   9.132  0.1000 -0.2518 -0.0962
  325loPI   C4B 5200  17.017  15.306   8.718 -0.0174  0.1281 -0.0234
  326loPI    C1 5201   6.542   2.270  10.298 -0.2190 -0.3577 -0.0971
  326loPI    C2 5202   6.700   2.128  10.636 -0.0409  0.0022 -0.0240
  326loPI    C3 5203   6.320   2.250  10.629 -0.0677 -0.0776  0.0250
  326loPI   PO4 5204   6.689   2.142  10.131  0.0457 -0.0451 -0.0541
  326loPI   GL1 5205   6.520   1.816   9.854 -0.1063  0.1245  0.1661
  326loPI   GL2 5206   6.644   1.508   9.875 -0.1683  0.1020  0.1915
  326loPI   C1A 5207   6.466   1.963   9.397 -0.0290  0.3711  0.0781
  326loPI   C2A 5208   6.559   1.963   9.048 -0.2148  0.0857  0.2840
  326loPI   C3A 5209   6.528   2.014   8.596 -0.0767 -0.3613  0.2797
  326loPI   C4A 5210   6.444   1.786   8.197  0.0869 -0.1877 -0.2280
  326loPI   C5A 5211   6.162   1.835   7.827 -0.0029 -0.0238 -0.1661
  326loPI   C6A 5212   6.163   1.996   7.421 -0.1258 -0.0617 -0.0743
  326loPI   C1B 5213   6.496   1.484   9.495  0.0032 -0.0958 -0.3096
  326loPI   C2B 5214   6.488   1.448   9.095  0.1105 -0.0102 -0.0164
  326loPI   C3B 5215   6.534   1.438   8.739  0.0573 -0.0846  0.1957
  326loPI   C4B 5216   6.378   1.237   8.290 -0.0241  0.1678  0.0528
  327loPI    C1 5217  15.105  10.101  10.661  0.1537 -0.0183 -0.0390
  327loPI    C2 5218  15.279  10.094  11.021  0.2416 -0.1595 -0.0831
  327loPI    C3 5219  14.967   9.856  10.945 -0.0346  0.1595  0.0250
  327loPI   PO4 5220  15.301  10.107  10.477  0.2071  0.0252  0.1126
  327loPI   GL1 5221  15.036  10.065  10.092 -0.4286 -0.1079 -0.1499
  327loPI   GL2 5222  15.286  10.180   9.917 -0.3193  0.0799 -0.1647
  327loPI   C1A 5223  14.747   9.900   9.720 -0.0090  0.1374 -0.0768
  327loPI   C2A 5224  14.863   9.843   9.269 -0.3967 -0.2086  0.1882
  327loPI   C3A 5225  14.734   9.882   8.829  0.0559  0.2146  0.1101
  327loPI   C4A 5226  14.639   9.893   8.355 -0.0425 -0.0553  0.1739
  327loPI   C5A 5227  14.294   9.956   8.045 -0.0260 -0.0153 -0.0508
  327loPI   C6A 5228  14.284  10.139   7.638  0.4268  0.1492  0.2094
  327loPI   C1B 5229  15.317  10.046   9.398 -0.0272 -0.3542  0.1135
  327loPI   C2B 5230  15.147  10.203   8.993  0.0905 -0.0523 -0.0502
  327loPI   C3B 5231  15.121  10.135   8.605 -0.2059  0.0388 -0.0253
  327loPI   C4B 5232  15.202  10.369   8.160  0.0361 -0.1501 -0.1954
  328loPI    C1 5233   6.895   6.216  10.420  0.0927  0.0035 -0.1232
  328loPI    C2 5234   7.228   6.435  10.390  0.1886 -0.1233  0.0028
  328loPI    C3 5235   6.998   6.464  10.716  0.1747 -0.1723 -0.0026
  328loPI   PO4 5236   6.953   5.976  10.257 -0.3067 -0.1399 -0.1553
  328loPI   GL1 5237   6.952   5.888   9.924  0.0695  0.1013 -0.1505
  328loPI   GL2 5238   6.608   6.077   9.927 -0.2769 -0.0319  0.1273
  328loPI   C1A 5239   6.909   5.759   9.602  0.1300 -0.0752 -0.2135
  328loPI   C2A 5240   6.636   5.756   9.241  0.1441  0.0316 -0.2397
  328loPI   C3A 5241   6.459   5.689   8.787 -0.0141  0.0158  0.1534
  328loPI   C4A 5242   6.524   5.790   8.389 -0.2334  0.0676  0.0463
  328loPI   C5A 5243   6.595   5.671   8.114 -0.0971  0.3923  0.2089
  328loPI   C6A 5244   6.584   5.578   7.765  0.2097 -0.1746  0.0849
  328loPI   C1B 5245   6.424   6.111   9.572  0.0155 -0.3402 -0.3732
  328loPI   C2B 5246   6.426   6.299   9.319  0.0735 -0.1715  0.1417
  328loPI   C3B 5247   6.406   6.201   9.000  0.0348 -0.0465  0.0295
  328loPI   C4B 5248   6.508   6.158   8.706 -0.0241  0.0864 -0.2747
  329loPI    C1 5249  10.134  13.027  10.968  0.1830  0.1918  0.2399
  329loPI    C2 5250  10.330  12.678  10.965  0.0605  0.1229 -0.0007
  329loPI    C3 5251  10.206  12.835  11.312 -0.0704 -0.1785  0.0928
  329loPI   PO4 5252  10.239  13.096  10.755  0.3346 -0.1544 -0.0129
  329loPI   GL1 5253  10.301  13.183  10.283  0.0511 -0.1519 -0.1289
  329loPI   GL2 5254  10.331  13.486  10.118  0.1265  0.1600 -0.2573
  329loPI   C1A 5255  10.131  12.951   9.807  0.0722  0.2373 -0.1567
  329loPI   C2A 5256  10.241  13.041   9.429 -0.1447 -0.0182 -0.0005
  329loPI   C3A 5257  10.163  13.074   9.052 -0.1330 -0.0600 -0.0714
  329loPI   C4A 5258  10.166  13.070   8.661 -0.1341  0.2013  0.2295
  329loPI   C5A 5259  10.171  13.199   8.229 -0.0365 -0.0133  0.3745
  329loPI   C6A 5260  10.033  12.826   7.948  0.1067  0.2563  0.1570
  329loPI   C1B 5261  10.253  13.449   9.739  0.0818 -0.0792 -0.3100
  329loPI   C2B 5262  10.269  13.563   9.320 -0.0902  0.0954  0.0852
  329loPI   C3B 5263  10.280  13.607   8.909  0.0192  0.0354  0.1142
  329loPI   C4B 5264  10.256  13.563   8.527  0.0512  0.0181  0.0891
  330loPI    C1 5265   4.118   8.330  10.637 -0.1618 -0.1590 -0.4316
  330loPI    C2 5266   3.897   8.170  10.930  0.1722 -0.1882 -0.1903
  330loPI    C3 5267   3.796   8.525  10.775 -0.0557 -0.2115 -0.1000
  330loPI   PO4 5268   4.115   8.134  10.471 -0.0090 -0.0235  0.1473
  330loPI   GL1 5269   4.069   8.134  10.017 -0.1748 -0.0113 -0.0908
  330loPI   GL2 5270   4.224   7.944   9.917  0.1045  0.0818 -0.1559
  330loPI   C1A 5271   3.929   8.318   9.699  0.1165  0.2382 -0.0185
  330loPI   C2A 5272   3.728   8.360   9.321  0.0526 -0.2034 -0.1925
  330loPI   C3A 5273   3.677   8.284   8.816  0.2496  0.2833  0.2342
  330loPI   C4A 5274   3.761   8.252   8.344  0.1809 -0.4284  0.1277
  330loPI   C5A 5275   3.608   8.058   7.958  0.1594 -0.2665  0.2349
  330loPI   C6A 5276   3.588   7.880   7.561 -0.2060  0.1587 -0.2118
  330loPI   C1B 5277   4.251   8.046   9.452  0.2394  0.3062  0.3717
  330loPI   C2B 5278   4.177   8.142   9.048  0.1364  0.1888 -0.0454
  330loPI   C3B 5279   4.097   7.976   8.631 -0.0074 -0.1298  0.2035
  330loPI   C4B 5280   4.156   7.952   8.171 -0.1329 -0.3953  0.0701
  331loPI    C1 5281   9.886  12.673  10.759 -0.2283 -0.2204 -0.0342
  331loPI    C2 5282   9.679  12.836  11.059  0.0096 -0.0381  0.0340
  331loPI    C3 5283   9.887  12.500  11.119  0.0850  0.0171  0.0834
  331loPI   PO4 5284   9.686  12.591  10.519  0.2484  0.0197  0.3860
  331loPI   GL1 5285   9.384  12.927  10.179  0.0788 -0.1480 -0.0038
  331loPI   GL2 5286   9.677  12.769  10.081  0.1102 -0.0717  0.1425
  331loPI   C1A 5287   9.317  12.947   9.754 -0.0174 -0.1538  0.0898
  331loPI   C2A 5288   9.377  12.930   9.383  0.1230  0.2410 -0.1825
  331loPI   C3A 5289   9.295  13.054   8.929  0.0087 -0.1191  0.1532
  331loPI   C4A 5290   9.181  12.977   8.476 -0.3945  0.2367  0.1745
  331loPI   C5A 5291   9.090  12.787   8.150 -0.1593 -0.1399 -0.4200
  331loPI   C6A 5292   9.117  12.554   7.805  0.3555 -0.1916  0.0670
  331loPI   C1B 5293   9.724  12.660   9.615 -0.0196  0.1517  0.3276
  331loPI   C2B 5294   9.750  12.688   9.160  0.1278 -0.0114 -0.3832
  331loPI   C3B 5295   9.930  12.642   8.769  0.0719  0.1276 -0.0822
  331loPI   C4B 5296   9.700  12.827   8.410 -0.1090 -0.0690  0.1396
  332loPI    C1 5297  15.949   5.482  10.847  0.1709 -0.1158 -0.1570
  332loPI    C2 5298  16.174   5.229  11.060 -0.0059 -0.0930  0.0597
  332loPI    C3 5299  15.951   5.504  11.246 -0.1216 -0.0378 -0.1580
  332loPI   PO4 5300  16.059   5.538  10.614  0.1317 -0.0825  0.1366
  332loPI   GL1 5301  15.856   5.512  10.211  0.1269 -0.2093  0.0986
  332loPI   GL2 5302  15.899   5.266  10.239 -0.0899  0.0433  0.0695
  332loPI   C1A 5303  16.002   5.463   9.760  0.0460 -0.1922 -0.2303
  332loPI   C2A 5304  16.146   5.418   9.321 -0.1653  0.2917 -0.2477
  332loPI   C3A 5305  16.124   5.476   8.902 -0.4624 -0.1285  0.1436
  332loPI   C4A 5306  16.113   5.433   8.483 -0.0399 -0.0548 -0.1705
  332loPI   C5A 5307  15.748   5.235   8.257  0.0250 -0.1320  0.4363
  332loPI   C6A 5308  15.724   4.927   7.925  0.0644 -0.3504 -0.1738
  332loPI   C1B 5309  16.170   5.076   9.934  0.0197 -0.1358 -0.0048
  332loPI   C2B 5310  16.243   5.050   9.603  0.2565 -0.0573 -0.2536
  332loPI   C3B 5311  16.228   4.920   9.188 -0.0868 -0.0893 -0.0872
  332loPI   C4B 5312  16.083   4.980   8.763  0.0411 -0.2322  0.0974
  333loPI    C1 5313   0.382   8.176  10.682 -0.1153 -0.1495 -0.0413
  333loPI    C2 5314   0.496   7.850  10.884 -0.1487  0.0270  0.2678
  333loPI    C3 5315   0.217   8.093  11.036 -0.0724  0.2393  0.0742
  333loPI   PO4 5316   0.389   8.189  10.500 -0.0109  0.2304  0.0013
  333loPI   GL1 5317   0.162   7.995  10.246  0.0177  0.1370 -0.1402
  333loPI   GL2 5318  -0.155   8.073  10.260 -0.1248  0.0654 -0.2352
  333loPI   C1A 5319   0.061   7.851   9.897 -0.2196 -0.1219  0.6256
  333loPI   C2A 5320  -0.027   7.893   9.560  0.0937  0.1418  0.1443
  333loPI   C3A 5321   0.070   7.752   9.077  0.2427  0.2558 -0.1468
  333loPI   C4A 5322  -0.014   7.752   8.613 -0.1391  0.1777 -0.2713
  333loPI   C5A 5323  -0.050   7.680   8.147  0.2141  0.1610 -0.1790
  333loPI   C6A 5324   0.214   7.552   7.809  0.1641  0.0714  0.2200
  333loPI   C1B 5325  -0.384   8.118   9.853  0.3233 -0.0480 -0.2739
  333loPI   C2B 5326  -0.417   8.133   9.357  0.0429 -0.2973 -0.1647
  333loPI   C3B 5327  -0.452   7.998   8.887 -0.1947 -0.1248  0.0160
  333loPI   C4B 5328  -0.372   8.023   8.407  0.1679 -0.0120  0.2095
  334loPI    C1 5329  10.127   7.847  10.309  0.0398  0.0531  0.0939
  334loPI    C2 5330   9.914   8.018  10.601 -0.2008 -0.0641 -0.0103
  334loPI    C3 5331  10.041   7.641  10.640 -0.0967 -0.0273  0.0095
  334loPI   PO4 5332  10.059   8.059  10.145  0.3804  0.0611 -0.0959
  334loPI   GL1 5333   9.968   8.158   9.738 -0.1610  0.0273 -0.0696
  334loPI   GL2 5334   9.829   7.918   9.472  0.2824 -0.2778  0.0220
  334loPI   C1A 5335  10.306   8.061   9.346  0.0065  0.3000  0.1242
  334loPI   C2A 5336  10.255   8.150   8.887  0.1985 -0.0160 -0.1117
  334loPI   C3A 5337  10.241   8.361   8.573 -0.1010 -0.2165  0.2641
  334loPI   C4A 5338  10.270   8.640   8.169 -0.1908 -0.3772 -0.0778
  334loPI   C5A 5339  10.495   9.000   8.136 -0.0922 -0.1587  0.1024
  334loPI   C6A 5340  10.674   9.364   8.150 -0.0306  0.0263  0.0173
  334loPI   C1B 5341   9.678   8.042   8.982 -0.1172 -0.1543  0.2437
  334loPI   C2B 5342   9.771   7.991   8.534 -0.1634 -0.1874 -0.2394
  334loPI   C3B 5343   9.658   7.830   8.184  0.1085 -0.3422  0.0397
  334loPI   C4B 5344   9.923   7.661   7.908 -0.1360 -0.0708  0.1494
  335loPI    C1 5345   0.531   2.874  10.865  0.0337  0.1251 -0.2308
  335loPI    C2 5346   0.742   3.115  11.104 -0.0746 -0.0469  0.0430
  335loPI    C3 5347   0.822   2.723  11.094 -0.1854 -0.0672 -0.0749
  335loPI   PO4 5348   0.541   2.955  10.620 -0.0357  0.1188 -0.0206
  335loPI   GL1 5349   0.494   3.096  10.313 -0.0352 -0.1326 -0.0161
  335loPI   GL2 5350   0.583   3.411  10.219 -0.4851  0.1883 -0.2577
  335loPI   C1A 5351   0.482   2.892   9.915  0.1411  0.2435  0.1145
  335loPI   C2A 5352   0.470   2.840   9.501 -0.2964 -0.0026 -0.4283
  335loPI   C3A 5353   0.560   2.696   9.145 -0.0215 -0.3240 -0.3343
  335loPI   C4A 5354   0.578   2.674   8.638 -0.1133  0.0618 -0.0425
  335loPI   C5A 5355   0.671   2.591   8.215 -0.2195 -0.1117 -0.1367
  335loPI   C6A 5356   0.755   2.736   7.830  0.0494 -0.2926  0.1661
  335loPI   C1B 5357   0.455   3.390   9.865 -0.0934  0.1386  0.2575
  335loPI   C2B 5358   0.433   3.370   9.399 -0.2325  0.0110 -0.0546
  335loPI   C3B 5359   0.459   3.215   9.026 -0.2276  0.1448  0.4954
  335loPI   C4B 5360   0.457   3.152   8.579  0.0252 -0.0119 -0.0258
  336loPI    C1 5361  11.254   3.074  10.163 -0.0965  0.0202  0.0820
  336loPI    C2 5362  11.585   3.186  10.358 -0.1563  0.0407  0.1723
  336loPI    C3 5363  11.299   3.454  10.279 -0.0164  0.0918 -0.1777
  336loPI   PO4 5364  11.367   3.013   9.880 -0.5076 -0.0002  0.0403
  336loPI   GL1 5365  11.396   3.013   9.482 -0.1806 -0.0819  0.1639
  336loPI   GL2 5366  11.310   3.253   9.411  0.0008 -0.2033  0.1094
  336loPI   C1A 5367  11.353   2.585   9.125 -0.1038 -0.0516  0.0026
  336loPI   C2A 5368  11.280   2.510   8.752  0.2757 -0.1557 -0.0301
  336loPI   C3A 5369  11.188   2.549   8.336  0.3343  0.1558 -0.4329
  336loPI   C4A 5370  11.186   2.429   7.928 -0.0191  0.0296 -0.0781
  336loPI   C5A 5371  11.101   2.423   7.538 -0.0868 -0.1890 -0.0167
  336loPI   C6A 5372  10.760   2.498   7.282 -0.0413 -0.1587 -0.1681
  336loPI   C1B 5373  11.329   3.294   9.019  0.4410  0.2834  0.0925
  336loPI   C2B 5374  11.460   3.253   8.623  0.1801 -0.1051  0.4971
  336loPI   C3B 5375  11.688   3.336   8.251 -0.0338  0.1519  0.0027
  336loPI   C4B 5376  11.819   3.247   7.722  0.0325  0.0062 -0.1236
  337loPI    C1 5377  13.999  17.775  11.036 -0.0122 -0.0541 -0.0360
  337loPI    C2 5378  13.888  17.422  11.189 -0.0274 -0.0405 -0.0158
  337loPI    C3 5379  14.055  17.699  11.425  0.1548 -0.1040 -0.0688
  337loPI   PO4 5380  14.104  17.658  10.825  0.3945  0.2174 -0.2812
  337loPI   GL1 5381  14.277  17.703  10.427 -0.0166 -0.0047  0.0844
  337loPI   GL2 5382  14.117  18.035  10.469  0.0666  0.1535 -0.0323
  337loPI   C1A 5383  14.264  17.534  10.021  0.4870  0.1019  0.0443
  337loPI   C2A 5384  14.218  17.528   9.563  0.4312 -0.0942  0.0147
  337loPI   C3A 5385  14.395  17.477   9.192  0.2594 -0.0296 -0.0636
  337loPI   C4A 5386  14.228  17.379   8.878 -0.0145 -0.1928 -0.0602
  337loPI   C5A 5387  14.375  17.438   8.472 -0.1725  0.1428  0.0781
  337loPI   C6A 5388  14.188  17.429   8.007 -0.0904  0.2391 -0.0618
  337loPI   C1B 5389  13.842  17.883  10.070 -0.0103  0.1280 -0.0515
  337loPI   C2B 5390  13.777  17.812   9.634 -0.1910 -0.3616 -0.1582
  337loPI   C3B 5391  13.869  17.717   9.089 -0.2359 -0.1169  0.0974
  337loPI   C4B 5392  13.835  17.682   8.567  0.0233  0.3349  0.1016
  338loPI    C1 5393   8.225  14.468  10.415 -0.0408 -0.0601 -0.0598
  338loPI    C2 5394   8.232  14.155  10.663  0.0383  0.0326  0.0561
  338loPI    C3 5395   8.175  14.523  10.808 -0.0220  0.0755 -0.0758
  338loPI   PO4 5396   8.118  14.365  10.156 -0.1512  0.0655  0.1714
  338loPI   GL1 5397   8.534  14.345   9.957 -0.0345 -0.2185  0.1690
  338loPI   GL2 5398   8.829  14.234   9.937  0.0735  0.1481 -0.0522
  338loPI   C1A 5399   8.396  14.025   9.647  0.1547 -0.0262  0.1095
  338loPI   C2A 5400   8.427  14.035   9.304 -0.0942  0.2673  0.3222
  338loPI   C3A 5401   8.278  14.015   8.952  0.0883  0.1906  0.5170
  338loPI   C4A 5402   8.194  14.000   8.500  0.0377  0.0150  0.0406
  338loPI   C5A 5403   7.946  13.792   8.153 -0.0833  0.2134 -0.1884
  338loPI   C6A 5404   7.862  13.493   7.914  0.1751  0.1789 -0.1150
  338loPI   C1B 5405   8.806  14.320   9.531  0.0719 -0.1958 -0.0863
  338loPI   C2B 5406   8.953  14.295   9.130 -0.0458 -0.0072 -0.0227
  338loPI   C3B 5407   8.971  14.298   8.757 -0.0262 -0.3846  0.0425
  338loPI   C4B 5408   8.666  14.165   8.355 -0.1928 -0.1146 -0.1134
  339loPI    C1 5409  11.328   3.537   9.796  0.1408 -0.1357 -0.0528
  339loPI    C2 5410  11.655   3.709   9.641  0.0785  0.0590  0.0298
  339loPI    C3 5411  11.595   3.712  10.037  0.0243 -0.0608  0.0229
  339loPI   PO4 5412  11.076   3.658   9.613 -0.1008  0.1137  0.0690
  339loPI   GL1 5413  11.041   3.902   9.229  0.1239 -0.3461 -0.1470
  339loPI   GL2 5414  11.422   3.917   9.269 -0.3693 -0.2275 -0.6118
  339loPI   C1A 5415  10.951   3.979   8.834 -0.0717 -0.1486 -0.2883
  339loPI   C2A 5416  10.783   3.913   8.347  0.2446  0.0934  0.2507
  339loPI   C3A 5417  10.622   4.020   7.998  0.0168 -0.2972 -0.3183
  339loPI   C4A 5418  10.804   3.869   7.659  0.1303 -0.0001  0.0687
  339loPI   C5A 5419  10.959   3.602   7.204  0.4338 -0.3626 -0.1051
  339loPI   C6A 5420  10.999   3.520   6.801 -0.4666 -0.0249 -0.2462
  339loPI   C1B 5421  11.455   3.816   8.858  0.0896 -0.0018 -0.1629
  339loPI   C2B 5422  11.568   3.752   8.453  0.1243  0.0010 -0.0062
  339loPI   C3B 5423  11.564   3.998   8.128  0.0219 -0.0303 -0.2604
  339loPI   C4B 5424  11.902   3.697   7.995  0.0945 -0.1570 -0.2356
  340loPI    C1 5425   5.394   3.963  10.383 -0.0567  0.2134  0.1294
  340loPI    C2 5426   5.371   4.031  10.776  0.1689  0.2163  0.1435
  340loPI    C3 5427   5.692   3.847  10.624 -0.1414 -0.2451  0.0245
  340loPI   PO4 5428   5.305   4.009  10.321  0.1709 -0.0743  0.2835
  340loPI   GL1 5429   5.022   4.233  10.166  0.0275  0.2577 -0.0975
  340loPI   GL2 5430   5.189   4.420  10.001  0.2569  0.2421  0.1898
  340loPI   C1A 5431   4.703   4.108   9.803 -0.0267  0.0928 -0.2768
  340loPI   C2A 5432   4.661   4.161   9.418 -0.2033  0.3678  0.1563
  340loPI   C3A 5433   4.523   3.986   9.069  0.2192  0.0089 -0.0787
  340loPI   C4A 5434   4.628   3.977   8.662  0.0320 -0.1815 -0.0813
  340loPI   C5A 5435   4.734   4.210   8.289  0.1561  0.1379  0.0244
  340loPI   C6A 5436   4.858   4.571   8.198 -0.1339 -0.1005  0.1610
  340loPI   C1B 5437   5.062   4.397   9.579  0.2902  0.2946 -0.2636
  340loPI   C2B 5438   5.052   4.347   9.087  0.0425 -0.0024 -0.0162
  340loPI   C3B 5439   5.012   4.396   8.640 -0.1202 -0.2137  0.2205
  340loPI   C4B 5440   5.251   4.259   8.267  0.1445 -0.3705  0.2647
  341loPI    C1 5441   9.182  12.052  10.928 -0.0478 -0.1554  0.0402
  341loPI    C2 5442   9.448  12.351  10.930  0.0667 -0.2560 -0.0423
  341loPI    C3 5443   9.413  12.112  11.249 -0.0381 -0.1440  0.0312
  341loPI   PO4 5444   9.177  12.053  10.618 -0.0429 -0.1403  0.1229
  341loPI   GL1 5445   9.196  12.089  10.218 -0.0191 -0.1220 -0.0153
  341loPI   GL2 5446   9.416  12.382  10.181  0.3081 -0.0516  0.0069
  341loPI   C1A 5447   9.253  11.977   9.861  0.0624  0.1452  0.0071
  341loPI   C2A 5448   9.421  11.954   9.474 -0.0538  0.2267 -0.0190
  341loPI   C3A 5449   9.320  11.942   9.057  0.0154 -0.1360 -0.0030
  341loPI   C4A 5450   9.268  11.881   8.648  0.1705  0.1330 -0.0419
  341loPI   C5A 5451   9.105  11.917   8.236 -0.0762  0.1406 -0.2910
  341loPI   C6A 5452   8.995  11.637   7.913 -0.0036 -0.0170 -0.0939
  341loPI   C1B 5453   9.307  12.429   9.765 -0.0870  0.3892 -0.2987
  341loPI   C2B 5454   9.306  12.424   9.264  0.2699 -0.0504  0.0365
  341loPI   C3B 5455   9.373  12.467   8.818  0.3454  0.1998  0.1637
  341loPI   C4B 5456   9.105  12.448   8.494  0.1762  0.2868  0.2639
  342loPI    C1 5457   9.615   3.981  10.126  0.0828 -0.1345  0.0186
  342loPI    C2 5458   9.968   4.054  10.300  0.0590  0.0823 -0.0220
  342loPI    C3 5459   9.631   4.072  10.515  0.0645 -0.0424 -0.0022
  342loPI   PO4 5460   9.745   3.744   9.967  0.2554  0.0271 -0.0434
  342loPI   GL1 5461   9.810   3.778   9.486 -0.3446 -0.0030  0.1708
  342loPI   GL2 5462   9.677   3.657   9.300 -0.1649  0.3307  0.1798
  342loPI   C1A 5463  10.063   3.991   9.122 -0.2715  0.3723 -0.0401
  342loPI   C2A 5464  10.053   4.140   8.794 -0.0923  0.0718 -0.2559
  342loPI   C3A 5465   9.953   4.327   8.299 -0.1370 -0.1392  0.2451
  342loPI   C4A 5466  10.066   4.431   7.920  0.1479  0.0769 -0.0584
  342loPI   C5A 5467  10.032   4.833   7.532 -0.5156 -0.2660  0.0302
  342loPI   C6A 5468  10.225   5.050   7.158  0.1480 -0.0059 -0.1492
  342loPI   C1B 5469   9.483   3.512   8.924  0.0055  0.0858  0.1879
  342loPI   C2B 5470   9.503   3.331   8.607 -0.0521 -0.2491 -0.1425
  342loPI   C3B 5471   9.600   3.357   8.187  0.2298 -0.3078  0.3281
  342loPI   C4B 5472   9.992   3.413   8.005  0.0470 -0.1205  0.3196
  343loPI    C1 5473  11.071  12.223  10.733 -0.0560 -0.0821 -0.0395
  343loPI    C2 5474  10.829  12.473  10.533  0.0675 -0.1317 -0.2541
  343loPI    C3 5475  10.698  12.288  10.863 -0.0650  0.1219 -0.1620
  343loPI   PO4 5476  11.178  12.103  10.554  0.1149  0.1412  0.1384
  343loPI   GL1 5477  11.062  11.882  10.223  0.1716  0.1782 -0.3410
  343loPI   GL2 5478  10.720  12.009  10.391  0.2026  0.2540  0.0732
  343loPI   C1A 5479  11.184  11.896   9.813 -0.0949 -0.1131  0.3722
  343loPI   C2A 5480  11.124  11.934   9.363 -0.1668  0.3236 -0.1166
  343loPI   C3A 5481  11.119  11.965   8.874  0.0896 -0.3014 -0.1347
  343loPI   C4A 5482  11.004  12.057   8.497 -0.3046  0.0221  0.4741
  343loPI   C5A 5483  11.248  12.012   8.144 -0.0234  0.1308 -0.2176
  343loPI   C6A 5484  11.530  12.112   7.887 -0.1572  0.0370  0.0441
  343loPI   C1B 5485  10.657  12.242  10.020  0.1893  0.0515  0.4097
  343loPI   C2B 5486  10.728  12.189   9.663  0.2607 -0.0741  0.0493
  343loPI   C3B 5487  10.664  12.267   9.237  0.1829 -0.0051  0.0491
  343loPI   C4B 5488  10.773  12.348   8.811 -0.4390 -0.1462  0.0241
  344loPI    C1 5489  12.933   0.778  10.808  0.2368 -0.0066 -0.2345
  344loPI    C2 5490  12.908   1.111  11.028  0.1998 -0.0633 -0.1525
  344loPI    C3 5491  13.125   0.802  11.158 -0.0245 -0.1908 -0.0744
  344loPI   PO4 5492  12.982   0.868  10.544  0.2174  0.1963 -0.0549
  344loPI   GL1 5493  13.017   1.203  10.066 -0.1158  0.1588  0.1394
  344loPI   GL2 5494  13.338   0.969  10.151 -0.0514 -0.1187 -0.1141
  344loPI   C1A 5495  12.925   1.004   9.656 -0.3010  0.0010 -0.0971
  344loPI   C2A 5496  13.046   0.958   9.233 -0.2074 -0.0322  0.0516
  344loPI   C3A 5497  13.007   0.943   8.733  0.2350 -0.0061 -0.0012
  344loPI   C4A 5498  13.000   0.808   8.296 -0.0006 -0.2243  0.5160
  344loPI   C5A 5499  13.011   0.669   7.915  0.0256  0.2516 -0.0200
  344loPI   C6A 5500  12.577   0.448   7.669 -0.1633 -0.4141 -0.1939
  344loPI   C1B 5501  13.448   0.806   9.710 -0.0386 -0.2479  0.2276
  344loPI   C2B 5502  13.448   0.694   9.248 -0.2127 -0.1110 -0.0688
  344loPI   C3B 5503  13.411   0.641   8.835 -0.0039  0.1432 -0.0542
  344loPI   C4B 5504  13.476   0.692   8.480 -0.3213  0.0432 -0.4567
  345loPI    C1 5505  12.649  12.046  11.035  0.1536 -0.1527 -0.3099
  345loPI    C2 5506  12.883  12.220  11.309 -0.0607 -0.0961 -0.1610
  345loPI    C3 5507  12.632  12.442  11.089  0.1027 -0.1426 -0.3986
  345loPI   PO4 5508  12.754  11.894  10.866 -0.3667 -0.3029 -0.0996
  345loPI   GL1 5509  12.908  11.858  10.468  0.0676  0.0823  0.1308
  345loPI   GL2 5510  12.612  11.954  10.377 -0.0004 -0.1260 -0.1049
  345loPI   C1A 5511  13.064  11.929  10.087  0.1395  0.0753 -0.3024
  345loPI   C2A 5512  13.021  11.977   9.635  0.0761 -0.1518 -0.1636
  345loPI   C3A 5513  13.025  11.883   9.188  0.1346 -0.2751  0.1229
  345loPI   C4A 5514  12.945  11.860   8.683  0.1683  0.2373 -0.1198
  345loPI   C5A 5515  12.753  12.117   8.381  0.1889  0.2027 -0.0732
  345loPI   C6A 5516  12.741  12.210   7.914  0.0751 -0.1019  0.2862
  345loPI   C1B 5517  12.637  12.142  10.002 -0.1792  0.0649 -0.2326
  345loPI   C2B 5518  12.501  12.302   9.637 -0.2536  0.1680  0.3618
  345loPI   C3B 5519  12.526  12.132   9.198  0.3258 -0.1508 -0.2897
  345loPI   C4B 5520  12.514  12.185   8.786 -0.0331 -0.0010  0.3669
  346loPI    C1 5521  16.021  11.352  10.956 -0.0166 -0.2848 -0.0709
  346loPI    C2 5522  16.401  11.379  11.077 -0.0165  0.2008 -0.1586
  346loPI    C3 5523  16.134  11.179  11.298  0.1907  0.2472  0.1403
  346loPI   PO4 5524  16.041  11.369  10.678 -0.1386  0.1975 -0.1436
  346loPI   GL1 5525  16.202  11.398  10.230  0.2810  0.0118  0.0631
  346loPI   GL2 5526  16.328  11.741  10.309  0.0318  0.0581 -0.0238
  346loPI   C1A 5527  16.265  11.250   9.828 -0.0524 -0.0851  0.0855
  346loPI   C2A 5528  16.138  11.169   9.435 -0.0286 -0.0946  0.0542
  346loPI   C3A 5529  16.152  11.198   8.988  0.3369  0.1430  0.1159
  346loPI   C4A 5530  16.072  11.119   8.598 -0.5727 -0.0334  0.1815
  346loPI   C5A 5531  15.916  11.105   8.223  0.1712 -0.1331 -0.4025
  346loPI   C6A 5532  15.785  10.999   7.724 -0.1897  0.4680  0.1601
  346loPI   C1B 5533  16.250  11.752   9.831 -0.2103  0.1546 -0.0147
  346loPI   C2B 5534  16.186  11.704   9.461  0.2420  0.0546  0.0998
  346loPI   C3B 5535  16.165  11.707   8.988 -0.4760 -0.1919  0.0049
  346loPI   C4B 5536  16.102  11.599   8.557  0.1938 -0.1192  0.0139
  347loPI    C1 5537   2.085   7.887  10.680 -0.1057 -0.1393 -0.1306
  347loPI    C2 5538   1.898   8.220  10.797 -0.3496 -0.1893 -0.3665
  347loPI    C3 5539   1.799   7.868  10.959 -0.1014 -0.1528 -0.1271
  347loPI   PO4 5540   2.130   7.924  10.445  0.3702 -0.1264 -0.4498
  347loPI   GL1 5541   1.936   7.905  10.083  0.0299  0.1267  0.0547
  347loPI   GL2 5542   1.702   7.767  10.088 -0.0420  0.2045  0.1431
  347loPI   C1A 5543   2.130   7.819   9.772  0.1242 -0.0282  0.2411
  347loPI   C2A 5544   2.019   7.724   9.365  0.1155  0.1433  0.1344
  347loPI   C3A 5545   1.889   7.684   8.939  0.0962  0.0014 -0.2042
  347loPI   C4A 5546   1.870   7.857   8.518  0.3645 -0.0076 -0.1169
  347loPI   C5A 5547   1.801   7.836   8.048  0.1323 -0.1382 -0.1958
  347loPI   C6A 5548   1.789   8.303   7.861 -0.0015  0.2363  0.1410
  347loPI   C1B 5549   1.603   7.731   9.709 -0.0850  0.2428  0.4045
  347loPI   C2B 5550   1.534   7.569   9.355 -0.1701  0.2062 -0.0303
  347loPI   C3B 5551   1.358   7.543   8.961  0.1182 -0.3414 -0.1507
  347loPI   C4B 5552   1.443   7.615   8.585  0.0680 -0.0531 -0.2275
  348loPI    C1 5553   7.711   6.307  10.371  0.0344 -0.2817  0.1022
  348loPI    C2 5554   7.466   6.019  10.241 -0.0601 -0.2149  0.1315
  348loPI    C3 5555   7.734   5.939  10.526 -0.1332 -0.2567  0.1890
  348loPI   PO4 5556   7.834   6.414  10.187  0.0974 -0.1243  0.0846
  348loPI   GL1 5557   7.765   6.430   9.861  0.2113 -0.0446  0.2151
  348loPI   GL2 5558   7.810   6.068   9.815 -0.3869 -0.0824 -0.0121
  348loPI   C1A 5559   7.743   6.659   9.515 -0.2621 -0.2884  0.2570
  348loPI   C2A 5560   7.524   6.549   9.076  0.0370 -0.2091 -0.3094
  348loPI   C3A 5561   7.363   6.727   8.758  0.0303 -0.0217  0.2796
  348loPI   C4A 5562   7.269   6.895   8.315 -0.1159 -0.1648 -0.0036
  348loPI   C5A 5563   7.115   7.172   7.994  0.1026 -0.0402 -0.2501
  348loPI   C6A 5564   7.206   7.625   7.950 -0.0056  0.0734 -0.1419
  348loPI   C1B 5565   7.655   6.110   9.430 -0.3992  0.1151 -0.0375
  348loPI   C2B 5566   7.528   6.001   9.049  0.2683  0.1457  0.0431
  348loPI   C3B 5567   7.355   6.193   8.662 -0.1273 -0.0970  0.3605
  348loPI   C4B 5568   7.301   6.423   8.238 -0.1311  0.1086 -0.0525
  349loPI    C1 5569  11.383  12.637  10.722  0.1939  0.0793 -0.0232
  349loPI    C2 5570  11.549  12.846  11.020 -0.0321  0.0025  0.1592
  349loPI    C3 5571  11.244  12.598  11.095 -0.0301 -0.0885 -0.1220
  349loPI   PO4 5572  11.318  12.772  10.582 -0.1070  0.1344 -0.2583
  349loPI   GL1 5573  11.249  12.656  10.214  0.2756 -0.0234 -0.0881
  349loPI   GL2 5574  11.141  12.352  10.071  0.1997  0.0481 -0.0669
  349loPI   C1A 5575  11.171  12.862   9.840  0.1753  0.4146 -0.1493
  349loPI   C2A 5576  11.089  12.953   9.346 -0.2356 -0.1015  0.2566
  349loPI   C3A 5577  11.014  12.969   8.968  0.1953  0.0090 -0.1174
  349loPI   C4A 5578  11.172  13.074   8.647 -0.0048 -0.0813 -0.4397
  349loPI   C5A 5579  11.182  12.933   8.275  0.1079 -0.1812  0.2522
  349loPI   C6A 5580  11.151  13.026   7.800 -0.0443 -0.0026  0.1640
  349loPI   C1B 5581  11.240  12.359   9.606 -0.0261 -0.4288 -0.0442
  349loPI   C2B 5582  11.126  12.434   9.132 -0.0748 -0.3031  0.1182
  349loPI   C3B 5583  11.198  12.531   8.628  0.2735  0.0142 -0.1782
  349loPI   C4B 5584  10.857  12.535   8.301  0.0496  0.0519 -0.1419
  350loPI    C1 5585   0.158   4.836  10.975  0.0854  0.1684 -0.0603
  350loPI    C2 5586  -0.225   4.739  10.914  0.0901  0.1164 -0.0087
  350loPI    C3 5587  -0.126   4.985  11.214  0.1156 -0.0191  0.0953
  350loPI   PO4 5588   0.318   4.933  10.729  0.0210  0.4123 -0.0405
  350loPI   GL1 5589   0.503   5.022  10.240 -0.0727  0.1135  0.0323
  350loPI   GL2 5590   0.475   4.635  10.282 -0.1990  0.2209 -0.0911
  350loPI   C1A 5591   0.546   4.905   9.862  0.0153 -0.2182  0.1200
  350loPI   C2A 5592   0.566   4.912   9.422  0.0210 -0.0882 -0.2017
  350loPI   C3A 5593   0.554   4.900   9.041  0.3201  0.1630 -0.0094
  350loPI   C4A 5594   0.420   4.850   8.674  0.1617  0.2122 -0.3132
  350loPI   C5A 5595   0.450   4.802   8.256 -0.1587  0.0696 -0.2542
  350loPI   C6A 5596   0.812   4.840   8.070 -0.2559 -0.0024 -0.0321
  350loPI   C1B 5597   0.484   4.365   9.885 -0.2333 -0.0147 -0.0594
  350loPI   C2B 5598   0.494   4.398   9.426 -0.0475  0.2214 -0.1501
  350loPI   C3B 5599   0.394   4.280   9.000  0.2161 -0.7894 -0.1512
  350loPI   C4B 5600   0.295   4.332   8.503 -0.2291 -0.2131 -0.2224
  351loPI    C1 5601  15.672   3.332  11.258 -0.2585  0.0071  0.0473
  351loPI    C2 5602  15.706   3.600  11.553  0.0229  0.0482 -0.0197
  351loPI    C3 5603  15.653   3.213  11.639 -0.1639  0.0949  0.0797
  351loPI   PO4 5604  15.818   3.442  10.985 -0.1577  0.2178 -0.0762
  351loPI   GL1 5605  15.884   3.431  10.571 -0.0201  0.0449  0.3371
  351loPI   GL2 5606  15.623   3.198  10.333 -0.0229 -0.2242 -0.1571
  351loPI   C1A 5607  16.105   3.361  10.223  0.1065  0.0494 -0.1517
  351loPI   C2A 5608  16.114   3.319   9.772 -0.1172  0.1249 -0.1342
  351loPI   C3A 5609  16.156   3.301   9.305 -0.0040  0.2531  0.0564
  351loPI   C4A 5610  16.185   3.313   8.788 -0.1416 -0.2200 -0.0351
  351loPI   C5A 5611  16.211   3.236   8.403  0.1774  0.2552 -0.0863
  351loPI   C6A 5612  16.153   3.377   7.967  0.0847  0.0043  0.0938
  351loPI   C1B 5613  15.647   3.187   9.939 -0.5463  0.0129  0.0374
  351loPI   C2B 5614  15.545   3.021   9.400  0.0939  0.0146 -0.0267
  351loPI   C3B 5615  15.729   3.017   8.936  0.2394 -0.4261 -0.1839
  351loPI   C4B 5616  15.675   3.079   8.472 -0.0326 -0.4176  0.4039
  352loPI    C1 5617   6.696   1.319  10.640 -0.0362 -0.1921  0.2005
  352loPI    C2 5618   6.314   1.421  10.702 -0.0212 -0.0037 -0.0064
  352loPI    C3 5619   6.608   1.626  10.880 -0.0049  0.0808 -0.1288
  352loPI   PO4 5620   6.718   1.277  10.379  0.1813  0.0225 -0.1196
  352loPI   GL1 5621   6.503   1.061  10.140 -0.0397  0.1345 -0.1427
  352loPI   GL2 5622   6.365   0.795  10.163 -0.2179 -0.1802 -0.1294
  352loPI   C1A 5623   6.558   1.000   9.637  0.1732 -0.2223 -0.1627
  352loPI   C2A 5624   6.442   1.007   9.235  0.0399  0.2357 -0.2050
  352loPI   C3A 5625   6.408   0.987   8.787 -0.1448  0.0012 -0.1105
  352loPI   C4A 5626   6.522   0.794   8.456 -0.1300  0.0021  0.0998
  352loPI   C5A 5627   6.249   0.682   8.178 -0.0012  0.0408  0.1318
  352loPI   C6A 5628   5.926   0.497   8.024  0.2130 -0.1705 -0.0196
  352loPI   C1B 5629   6.261   0.667   9.821 -0.0021  0.3144  0.3096
  352loPI   C2B 5630   6.112   0.713   9.419 -0.2158  0.3568 -0.1347
  352loPI   C3B 5631   5.949   0.707   9.119  0.0363  0.2239  0.0411
  352loPI   C4B 5632   6.087   0.611   8.725 -0.0905  0.1574 -0.0350
  353loPI    C1 5633  13.840   5.698  10.587 -0.0919 -0.1146 -0.0473
  353loPI    C2 5634  14.033   5.348  10.578 -0.0199 -0.0788  0.0815
  353loPI    C3 5635  14.061   5.600  10.268 -0.1781 -0.2427 -0.0681
  353loPI   PO4 5636  13.547   5.599  10.532 -0.2965 -0.0406  0.0782
  353loPI   GL1 5637  13.424   5.383  10.160  0.1166  0.1648  0.2108
  353loPI   GL2 5638  13.153   5.454  10.042  0.1004 -0.1468 -0.1766
  353loPI   C1A 5639  13.742   5.318   9.945 -0.2219 -0.0315  0.0369
  353loPI   C2A 5640  13.771   5.460   9.589  0.0641 -0.0546  0.1194
  353loPI   C3A 5641  13.839   5.525   9.205 -0.0238  0.1378 -0.0606
  353loPI   C4A 5642  13.987   5.651   8.738  0.1000  0.1379  0.0826
  353loPI   C5A 5643  13.898   5.666   8.346  0.0452 -0.2738  0.2457
  353loPI   C6A 5644  14.051   5.854   7.969  0.0636  0.1832  0.1885
  353loPI   C1B 5645  13.352   5.698   9.688  0.3992 -0.2024 -0.2859
  353loPI   C2B 5646  13.523   5.914   9.389 -0.0193  0.3832  0.2435
  353loPI   C3B 5647  13.599   5.883   8.962 -0.1026  0.0965 -0.1425
  353loPI   C4B 5648  13.441   5.870   8.526 -0.1324  0.0211 -0.0058
  354loPI    C1 5649   1.555   9.611  10.794  0.1223  0.2401  0.2702
  354loPI    C2 5650   1.190   9.638  10.954 -0.0573  0.1465 -0.1111
  354loPI    C3 5651   1.428   9.332  11.050 -0.1766  0.0711 -0.0534
  354loPI   PO4 5652   1.570   9.502  10.556 -0.0488  0.0335 -0.1165
  354loPI   GL1 5653   1.507   9.589  10.144 -0.0806 -0.4733  0.0247
  354loPI   GL2 5654   1.188   9.498  10.020  0.0245  0.0711  0.0963
  354loPI   C1A 5655   1.641   9.635   9.695 -0.2069 -0.0611  0.0167
  354loPI   C2A 5656   1.419   9.723   9.327 -0.1725 -0.0499 -0.1943
  354loPI   C3A 5657   1.296   9.689   8.891 -0.2415 -0.2505 -0.2150
  354loPI   C4A 5658   1.447   9.593   8.466  0.2152  0.1729  0.5167
  354loPI   C5A 5659   1.195   9.601   7.989  0.0350 -0.0751  0.2690
  354loPI   C6A 5660   1.042   9.859   7.652 -0.1783 -0.0410  0.3131
  354loPI   C1B 5661   1.030   9.351   9.581 -0.0239  0.0168  0.1413
  354loPI   C2B 5662   0.911   9.322   9.095 -0.2539 -0.1692 -0.2095
  354loPI   C3B 5663   0.930   9.396   8.700  0.3061 -0.3509  0.0522
  354loPI   C4B 5664   0.893   9.213   8.295  0.1813 -0.1337  0.0913
  355loPI    C1 5665  10.828  12.869  10.885  0.0272  0.1830  0.1599
  355loPI    C2 5666  10.600  13.086  11.131  0.1147  0.1280  0.2907
  355loPI    C3 5667  10.728  12.724  11.244 -0.2236 -0.0956 -0.0177
  355loPI   PO4 5668  10.680  13.012  10.629 -0.0947  0.0435 -0.1552
  355loPI   GL1 5669  10.774  12.897  10.232 -0.1183  0.1474 -0.0172
  355loPI   GL2 5670  10.800  13.193   9.936 -0.0860  0.0347  0.0464
  355loPI   C1A 5671  10.709  12.721   9.897  0.0646 -0.0142  0.2875
  355loPI   C2A 5672  10.673  12.734   9.539 -0.1732 -0.0952  0.1135
  355loPI   C3A 5673  10.568  12.753   9.139 -0.0796 -0.1227  0.1321
  355loPI   C4A 5674  10.560  12.794   8.657  0.0206 -0.0292  0.3611
  355loPI   C5A 5675  10.361  12.729   8.333 -0.0852 -0.1665 -0.3596
  355loPI   C6A 5676  10.127  12.369   8.174 -0.1493  0.2121 -0.1918
  355loPI   C1B 5677  10.667  13.298   9.531  0.4772  0.4898  0.1287
  355loPI   C2B 5678  10.634  13.224   9.193  0.2429 -0.1518 -0.2833
  355loPI   C3B 5679  10.656  13.293   8.769  0.0321  0.1448  0.1069
  355loPI   C4B 5680  10.799  13.289   8.282 -0.2631  0.1450 -0.3343
  356loPI    C1 5681  12.067   7.020  10.378 -0.1675  0.0898  0.0285
  356loPI    C2 5682  11.863   7.041  10.722 -0.0353  0.1364  0.1051
  356loPI    C3 5683  12.225   6.872  10.714 -0.1659 -0.1439 -0.0735
  356loPI   PO4 5684  12.069   7.270  10.288 -0.0541 -0.0398 -0.1391
  356loPI   GL1 5685  12.161   7.527   9.951  0.0599  0.0401 -0.0294
  356loPI   GL2 5686  12.430   7.721   9.942  0.0445 -0.1327 -0.1131
  356loPI   C1A 5687  12.067   7.612   9.507  0.1480  0.2352 -0.0974
  356loPI   C2A 5688  12.058   7.836   9.165 -0.0943 -0.1033  0.0788
  356loPI   C3A 5689  11.983   7.795   8.630 -0.0986 -0.0576 -0.3145
  356loPI   C4A 5690  11.910   7.804   8.198 -0.1079 -0.0076  0.0266
  356loPI   C5A 5691  11.725   7.438   7.872  0.2348 -0.0115  0.4706
  356loPI   C6A 5692  11.764   7.344   7.397 -0.1015  0.1166  0.0239
  356loPI   C1B 5693  12.529   7.888   9.599 -0.2897  0.0327 -0.2754
  356loPI   C2B 5694  12.540   7.992   9.144  0.2555  0.1281  0.1140
  356loPI   C3B 5695  12.445   8.003   8.744  0.0257 -0.1252 -0.0202
  356loPI   C4B 5696  12.380   8.030   8.272 -0.2256 -0.3571  0.2042
  357loPI    C1 5697  11.215   7.988  10.310 -0.0756 -0.2787  0.0923
  357loPI    C2 5698  11.024   7.975  10.662 -0.1853 -0.1118  0.0401
  357loPI    C3 5699  11.095   7.637  10.461 -0.2003 -0.1994  0.1806
  357loPI   PO4 5700  11.090   8.232  10.186  0.3759 -0.0357  0.2715
  357loPI   GL1 5701  11.198   8.284   9.774 -0.1968  0.0481  0.0853
  357loPI   GL2 5702  11.509   8.305   9.870 -0.0751  0.1147  0.2431
  357loPI   C1A 5703  11.203   8.324   9.420  0.0659 -0.0276 -0.0319
  357loPI   C2A 5704  11.249   8.365   9.024  0.1487  0.2424 -0.0842
  357loPI   C3A 5705  11.162   8.356   8.562  0.2717 -0.3570  0.1676
  357loPI   C4A 5706  11.219   8.321   8.090  0.1937 -0.1363  0.2046
  357loPI   C5A 5707  11.347   8.541   7.773 -0.4813  0.1334 -0.1943
  357loPI   C6A 5708  11.576   8.972   7.705  0.0982  0.2439 -0.1353
  357loPI   C1B 5709  11.624   8.487   9.456 -0.1960 -0.1201 -0.0952
  357loPI   C2B 5710  11.638   8.622   9.026  0.0179  0.0024 -0.1060
  357loPI   C3B 5711  11.611   8.598   8.569  0.0855 -0.3967  0.1744
  357loPI   C4B 5712  11.499   8.783   8.179 -0.4449 -0.4030  0.3454
  358loPI    C1 5713   9.446   1.779  10.291  0.0293  0.0298  0.1426
  358loPI    C2 5714   9.256   1.766  10.643  0.0952  0.0155  0.1778
  358loPI    C3 5715   9.607   1.957  10.611  0.0889  0.0178  0.1196
  358loPI   PO4 5716   9.396   1.590  10.125  0.1581  0.4813 -0.1239
  358loPI   GL1 5717   9.287   1.678   9.697 -0.0287  0.1239 -0.0294
  358loPI   GL2 5718   9.494   1.398   9.582  0.2449 -0.1910 -0.0659
  358loPI   C1A 5719   9.026   1.452   9.431 -0.0941 -0.3022  0.1997
  358loPI   C2A 5720   9.091   1.379   8.977 -0.1665 -0.2369  0.0734
  358loPI   C3A 5721   9.084   1.266   8.594 -0.3312  0.1713  0.1956
  358loPI   C4A 5722   9.202   1.353   8.209 -0.3774 -0.1430  0.2086
  358loPI   C5A 5723   9.206   1.657   7.841  0.2167  0.0595 -0.2961
  358loPI   C6A 5724   8.922   1.918   7.644  0.1427 -0.0577  0.1091
  358loPI   C1B 5725   9.385   1.163   9.295 -0.1457  0.1538 -0.4567
  358loPI   C2B 5726   9.413   0.961   8.943  0.1128 -0.0872  0.0006
  358loPI   C3B 5727   9.386   0.895   8.493 -0.0631 -0.0220 -0.0555
  358loPI   C4B 5728   9.245   0.833   8.066  0.2403  0.0703 -0.1871
  359loPI    C1 5729   0.020  17.867  11.277 -0.1839  0.1855 -0.0122
  359loPI    C2 5730  -0.358  17.853  11.407 -0.1819 -0.2342 -0.0396
  359loPI    C3 5731  -0.136  17.521  11.402  0.0963 -0.0496 -0.2981
  359loPI   PO4 5732  -0.008  18.074  11.112 -0.2555  0.1982 -0.0579
  359loPI   GL1 5733   0.079  18.219  10.649  0.2924  0.2490  0.2355
  359loPI   GL2 5734  -0.043  18.483  10.444 -0.1190 -0.4264 -0.0524
  359loPI   C1A 5735   0.414  18.110  10.325 -0.1312 -0.0872 -0.0671
  359loPI   C2A 5736   0.567  18.077   9.940 -0.6202 -0.0465  0.3338
  359loPI   C3A 5737   0.497  18.017   9.454  0.0893  0.2163  0.0628
  359loPI   C4A 5738   0.574  18.038   8.972  0.1008 -0.3638 -0.0844
  359loPI   C5A 5739   0.752  17.993   8.575 -0.4966 -0.0128 -0.1158
  359loPI   C6A 5740   0.900  18.070   8.111  0.1168  0.0229 -0.0167
  359loPI   C1B 5741   0.035  18.300  10.036 -0.0547 -0.2855 -0.0388
  359loPI   C2B 5742   0.013  18.294   9.610  0.0875  0.1708 -0.3206
  359loPI   C3B 5743   0.187  18.244   9.195  0.0205 -0.1738 -0.0401
  359loPI   C4B 5744   0.196  18.364   8.729  0.0071 -0.0807 -0.1066
  360loPI    C1 5745   3.469  18.214  10.720  0.0920 -0.1781  0.0719
  360loPI    C2 5746   3.662  17.894  10.863  0.3623 -0.0814 -0.0704
  360loPI    C3 5747   3.706  18.249  11.041  0.1464 -0.1004  0.0234
  360loPI   PO4 5748   3.203  18.198  10.760  0.2658  0.0370  0.3130
  360loPI   GL1 5749   3.010  18.378  10.409 -0.0573  0.1781  0.3381
  360loPI   GL2 5750   2.916  18.149  10.277  0.3085  0.0981  0.1353
  360loPI   C1A 5751   3.368  18.567  10.009 -0.0282 -0.1817  0.0663
  360loPI   C2A 5752   3.347  18.504   9.661 -0.0259 -0.2585  0.3769
  360loPI   C3A 5753   3.295  18.587   9.232  0.1482 -0.0416  0.0715
  360loPI   C4A 5754   3.327  18.521   8.718 -0.2441  0.4037  0.2407
  360loPI   C5A 5755   3.408  18.697   8.350  0.2971 -0.0426  0.2029
  360loPI   C6A 5756   3.153  18.750   7.973 -0.0982 -0.1857 -0.2692
  360loPI   C1B 5757   2.809  18.248   9.839 -0.4314 -0.0021 -0.2958
  360loPI   C2B 5758   2.982  18.250   9.465 -0.0358 -0.1090  0.2721
  360loPI   C3B 5759   2.932  18.189   8.959 -0.0234  0.0154  0.0612
  360loPI   C4B 5760   2.911  18.186   8.518 -0.0010  0.1257  0.1555
  361loPI    C1 5761  16.484  10.345  10.974  0.2227  0.1466 -0.0284
  361loPI    C2 5762  16.382  10.090  10.683 -0.4054  0.3726 -0.0208
  361loPI    C3 5763  16.190  10.080  11.034  0.1314  0.3140  0.2819
  361loPI   PO4 5764  16.644  10.520  10.818 -0.3447 -0.1535  0.2159
  361loPI   GL1 5765  16.550  10.604  10.466 -0.3075 -0.0722 -0.0748
  361loPI   GL2 5766  16.684  10.812  10.344 -0.0083 -0.0866  0.0866
  361loPI   C1A 5767  16.751  10.426  10.042  0.1304 -0.1520  0.0413
  361loPI   C2A 5768  16.588  10.367   9.658 -0.1605  0.1384 -0.1515
  361loPI   C3A 5769  16.571  10.498   9.263  0.0670 -0.0510  0.2701
  361loPI   C4A 5770  16.441  10.341   8.943 -0.0934 -0.1217  0.0104
  361loPI   C5A 5771  16.400  10.347   8.373  0.1463 -0.1673  0.2120
  361loPI   C6A 5772  16.620  10.506   8.116 -0.1516 -0.0298 -0.0328
  361loPI   C1B 5773  16.722  11.017   9.979 -0.1231  0.5672 -0.1941
  361loPI   C2B 5774  16.733  10.952   9.540 -0.0696  0.1618 -0.1598
  361loPI   C3B 5775  16.547  10.975   9.117 -0.0722 -0.3484 -0.2675
  361loPI   C4B 5776  16.460  10.866   8.796 -0.2538  0.1321 -0.0740
  362loPI    C1 5777  11.217  16.650  10.841 -0.1937 -0.1439 -0.1180
  362loPI    C2 5778  11.431  16.359  11.012  0.0433 -0.0883 -0.3135
  362loPI    C3 5779  11.066  16.447  11.151  0.1743 -0.1334  0.0740
  362loPI   PO4 5780  11.367  16.652  10.569 -0.1051  0.5127  0.0539
  362loPI   GL1 5781  11.696  16.573  10.215  0.0295  0.0620 -0.2321
  362loPI   GL2 5782  11.496  16.791  10.112  0.0697 -0.0297  0.1899
  362loPI   C1A 5783  11.586  16.383   9.727  0.1691  0.1084 -0.0033
  362loPI   C2A 5784  11.584  16.457   9.308 -0.0320  0.1678  0.0257
  362loPI   C3A 5785  11.599  16.359   8.936 -0.0386 -0.0909 -0.0854
  362loPI   C4A 5786  11.504  16.352   8.485 -0.1980 -0.1219 -0.1000
  362loPI   C5A 5787  11.503  16.189   8.097  0.0268 -0.2457 -0.1590
  362loPI   C6A 5788  11.731  16.016   7.882  0.3107 -0.0287  0.0638
  362loPI   C1B 5789  11.539  16.865   9.612 -0.0151 -0.1178  0.0302
  362loPI   C2B 5790  11.618  16.928   9.231 -0.1602  0.0731  0.2913
  362loPI   C3B 5791  11.613  16.891   8.782  0.0419 -0.1219 -0.0640
  362loPI   C4B 5792  11.616  16.886   8.348 -0.1495 -0.2217 -0.2989
  363loPI    C1 5793  17.302   7.673  10.939  0.1032  0.0959 -0.3011
  363loPI    C2 5794  17.670   7.715  11.090  0.1297 -0.4465 -0.1958
  363loPI    C3 5795  17.351   7.765  11.325  0.1466 -0.4047 -0.1817
  363loPI   PO4 5796  17.325   7.533  10.731  0.1038  0.3626 -0.0645
  363loPI   GL1 5797  17.278   7.786  10.372  0.0863  0.0390  0.1091
  363loPI   GL2 5798  17.057   8.048  10.173 -0.0162  0.1800  0.0429
  363loPI   C1A 5799  17.405   7.792   9.904 -0.2269  0.0973 -0.1275
  363loPI   C2A 5800  17.489   7.894   9.492 -0.0637 -0.1678  0.0133
  363loPI   C3A 5801  17.460   7.801   9.140 -0.1946 -0.0707  0.0152
  363loPI   C4A 5802  17.523   7.711   8.668 -0.0042 -0.3092  0.0488
  363loPI   C5A 5803  17.552   7.638   8.264  0.0838 -0.3964 -0.0917
  363loPI   C6A 5804  17.735   7.640   7.909  0.0766 -0.1974 -0.1502
  363loPI   C1B 5805  17.055   8.088   9.717  0.1448 -0.0869 -0.3117
  363loPI   C2B 5806  17.001   8.092   9.266  0.2514 -0.2323  0.3972
  363loPI   C3B 5807  16.990   7.989   8.913 -0.1911  0.0925 -0.2088
  363loPI   C4B 5808  17.064   7.957   8.404  0.1321  0.3407 -0.1838
  364loPI    C1 5809  18.317   9.875  10.884  0.0917  0.1596 -0.1319
  364loPI    C2 5810  18.511   9.649  11.152 -0.2060  0.0710  0.0127
  364loPI    C3 5811  18.603  10.037  11.112 -0.1582  0.0846  0.2430
  364loPI   PO4 5812  18.248   9.760  10.646  0.2192  0.3517 -0.1969
  364loPI   GL1 5813  18.200   9.871  10.218  0.1153 -0.0205 -0.2455
  364loPI   GL2 5814  18.443   9.928  10.146 -0.0789 -0.0903 -0.0222
  364loPI   C1A 5815  17.857   9.674   9.957 -0.0520  0.1088 -0.2039
  364loPI   C2A 5816  17.854   9.718   9.548  0.1646  0.1471  0.1429
  364loPI   C3A 5817  17.943   9.639   9.150 -0.0246 -0.0363 -0.0865
  364loPI   C4A 5818  17.918   9.586   8.751 -0.1629  0.1065 -0.1729
  364loPI   C5A 5819  18.146   9.555   8.351 -0.2455  0.0700  0.0235
  364loPI   C6A 5820  18.261   9.112   8.186 -0.0498  0.0581  0.1541
  364loPI   C1B 5821  18.468   9.995   9.629  0.2836 -0.0484  0.2762
  364loPI   C2B 5822  18.437   9.908   9.206 -0.0010  0.2537 -0.2097
  364loPI   C3B 5823  18.309   9.874   8.703  0.2094  0.0248 -0.2560
  364loPI   C4B 5824  18.509   9.913   8.272 -0.1686 -0.0967 -0.1818
  365loPI    C1 5825   0.680  15.198  10.415 -0.1149  0.1553  0.0288
  365loPI    C2 5826   0.923  14.882  10.448 -0.2618  0.0273 -0.1030
  365loPI    C3 5827   0.739  15.027  10.772 -0.0469  0.0967 -0.0102
  365loPI   PO4 5828   0.879  15.416  10.307 -0.3172  0.0510 -0.2105
  365loPI   GL1 5829   0.816  15.767  10.102 -0.0272 -0.0359  0.3734
  365loPI   GL2 5830   0.630  16.020   9.981  0.0584  0.0908  0.0763
  365loPI   C1A 5831   1.012  15.660   9.662 -0.2657 -0.2509  0.2242
  365loPI   C2A 5832   1.057  15.668   9.273 -0.3507  0.2048  0.1176
  365loPI   C3A 5833   0.951  15.649   8.796  0.1801 -0.3163 -0.1067
  365loPI   C4A 5834   0.816  15.654   8.385 -0.2786  0.0099 -0.0699
  365loPI   C5A 5835   0.622  15.572   8.015 -0.0455 -0.0564 -0.1153
  365loPI   C6A 5836   0.685  15.187   7.702  0.1079 -0.2376 -0.1935
  365loPI   C1B 5837   0.504  15.895   9.643 -0.3543  0.4334  0.2003
  365loPI   C2B 5838   0.593  15.885   9.160  0.0917 -0.0608 -0.1527
  365loPI   C3B 5839   0.522  15.958   8.740  0.4803 -0.1891 -0.3703
  365loPI   C4B 5840   0.400  15.830   8.333 -0.2022  0.2006 -0.1707
  366loPI    C1 5841  15.347   2.526  11.224  0.1195  0.2048  0.0072
  366loPI    C2 5842  15.620   2.816  11.260  0.0918  0.2192  0.1063
  366loPI    C3 5843  15.319   2.792  11.522  0.1324  0.0595  0.1390
  366loPI   PO4 5844  15.427   2.454  10.987  0.1316 -0.0449  0.1013
  366loPI   GL1 5845  15.491   2.279  10.502  0.2955 -0.0394 -0.0801
  366loPI   GL2 5846  15.644   2.626  10.460  0.2329 -0.2862  0.0631
  366loPI   C1A 5847  15.538   2.050  10.215  0.0042 -0.2594 -0.1509
  366loPI   C2A 5848  15.640   2.058   9.800  0.2856 -0.0954 -0.4576
  366loPI   C3A 5849  15.583   2.065   9.375 -0.3173 -0.0186  0.0704
  366loPI   C4A 5850  15.745   1.962   8.944 -0.0755 -0.1205 -0.0833
  366loPI   C5A 5851  15.821   2.001   8.485 -0.2542  0.2919 -0.0736
  366loPI   C6A 5852  15.603   2.189   8.123 -0.0388  0.1282  0.0274
  366loPI   C1B 5853  15.658   2.542  10.055 -0.1948  0.0802  0.0114
  366loPI   C2B 5854  15.564   2.545   9.616 -0.1930 -0.4468 -0.0643
  366loPI   C3B 5855  15.690   2.542   9.194 -0.1100 -0.0720 -0.1634
  366loPI   C4B 5856  15.731   2.545   8.726  0.0288  0.0210  0.2785
  367loPI    C1 5857  11.202  13.790  10.880  0.2154 -0.0424 -0.1332
  367loPI    C2 5858  11.471  14.032  11.051 -0.0911 -0.0296  0.3505
  367loPI    C3 5859  11.247  13.791  11.278 -0.4692 -0.0613 -0.0446
  367loPI   PO4 5860  11.282  13.657  10.697 -0.4568  0.0019  0.1278
  367loPI   GL1 5861  11.501  13.690  10.331 -0.0036  0.1702  0.1988
  367loPI   GL2 5862  11.563  13.960  10.134  0.0037 -0.2441 -0.1765
  367loPI   C1A 5863  11.502  13.324  10.095  0.1171 -0.1307 -0.1481
  367loPI   C2A 5864  11.643  13.129   9.769 -0.4943 -0.1335  0.2864
  367loPI   C3A 5865  11.678  13.196   9.338  0.2072 -0.0049 -0.2648
  367loPI   C4A 5866  11.528  13.289   8.872 -0.3380  0.1440 -0.1792
  367loPI   C5A 5867  11.606  13.219   8.413  0.0564 -0.1004  0.0217
  367loPI   C6A 5868  11.572  12.954   8.025  0.0290 -0.1924 -0.0375
  367loPI   C1B 5869  11.612  13.678   9.776  0.1142  0.2532  0.2936
  367loPI   C2B 5870  11.557  13.694   9.354 -0.0421  0.0818 -0.0844
  367loPI   C3B 5871  11.761  13.738   8.995  0.0474  0.5878 -0.1717
  367loPI   C4B 5872  11.710  13.803   8.522 -0.2784 -0.0395 -0.0824
  368loPI    C1 5873  10.841   1.160  10.317 -0.0220 -0.0476  0.1174
  368loPI    C2 5874  11.122   1.435  10.242  0.2021 -0.3061 -0.0103
  368loPI    C3 5875  10.916   1.448  10.585 -0.0909  0.2672 -0.1934
  368loPI   PO4 5876  10.822   1.115   9.971 -0.1933  0.2602  0.2772
  368loPI   GL1 5877  10.920   1.132   9.616 -0.1798  0.1181  0.1295
  368loPI   GL2 5878  10.656   1.221   9.497  0.0906  0.3895 -0.0791
  368loPI   C1A 5879  11.168   1.051   9.348  0.3939 -0.1823 -0.1930
  368loPI   C2A 5880  11.184   0.963   9.001 -0.0712 -0.1165 -0.3283
  368loPI   C3A 5881  11.143   0.931   8.561 -0.2506  0.0770  0.0679
  368loPI   C4A 5882  11.048   0.957   8.182 -0.1279  0.0326  0.1251
  368loPI   C5A 5883  11.119   0.943   7.783  0.2203 -0.0734  0.2826
  368loPI   C6A 5884  11.449   0.804   7.508  0.1417  0.2536 -0.3677
  368loPI   C1B 5885  10.760   1.162   9.091 -0.0206 -0.0743  0.1432
  368loPI   C2B 5886  10.741   1.245   8.689 -0.1542 -0.1460  0.3038
  368loPI   C3B 5887  10.603   1.282   8.246  0.0465  0.2382 -0.1525
  368loPI   C4B 5888  10.642   1.184   7.813 -0.2058 -0.1099 -0.2190
  369loPI    C1 5889  15.894  18.106  10.599  0.2544 -0.3758 -0.2663
  369loPI    C2 5890  15.888  18.123  10.998 -0.1845  0.2245 -0.2846
  369loPI    C3 5891  15.642  17.874  10.805 -0.1511  0.1167 -0.1899
  369loPI   PO4 5892  16.103  18.043  10.527  0.3153 -0.0353  0.2323
  369loPI   GL1 5893  16.354  18.009  10.178  0.2960 -0.2063  0.2144
  369loPI   GL2 5894  16.067  17.922  10.016 -0.1450 -0.0166  0.4220
  369loPI   C1A 5895  16.628  18.261   9.867  0.0981 -0.3396 -0.1576
  369loPI   C2A 5896  16.560  18.252   9.348  0.0773  0.3017  0.0242
  369loPI   C3A 5897  16.535  18.258   8.893  0.0041 -0.2403 -0.1578
  369loPI   C4A 5898  16.689  18.275   8.452  0.0331  0.3362  0.0117
  369loPI   C5A 5899  16.427  18.151   8.157 -0.0167 -0.2184  0.0506
  369loPI   C6A 5900  16.501  17.843   7.943 -0.0249  0.2935 -0.1769
  369loPI   C1B 5901  16.246  17.915   9.611 -0.0570 -0.0832  0.1250
  369loPI   C2B 5902  16.116  17.896   9.223  0.2761  0.1245 -0.0784
  369loPI   C3B 5903  16.058  17.950   8.746  0.0991 -0.0863  0.2683
  369loPI   C4B 5904  15.822  18.211   8.403 -0.2490 -0.0098 -0.3082
  370loPI    C1 5905  18.029  12.700  10.572  0.0677 -0.0582  0.2182
  370loPI    C2 5906  17.933  12.312  10.598  0.0912 -0.0599  0.2811
  370loPI    C3 5907  17.743  12.581  10.825  0.0205 -0.0245  0.1808
  370loPI   PO4 5908  18.039  12.728  10.325  0.1226  0.0911 -0.1908
  370loPI   GL1 5909  18.182  12.738   9.922 -0.1737  0.0547 -0.2015
  370loPI   GL2 5910  18.427  12.927   9.856  0.4436 -0.0858  0.0738
  370loPI   C1A 5911  17.968  12.770   9.557 -0.2021  0.2392  0.0820
  370loPI   C2A 5912  17.994  12.809   9.160 -0.3024 -0.0809 -0.0106
  370loPI   C3A 5913  17.847  12.698   8.813 -0.2504  0.0836  0.0765
  370loPI   C4A 5914  18.005  12.573   8.398 -0.0325 -0.2946 -0.1774
  370loPI   C5A 5915  17.754  12.636   7.981  0.0537  0.1836 -0.1444
  370loPI   C6A 5916  17.546  12.920   7.693 -0.0370 -0.1662 -0.0394
  370loPI   C1B 5917  18.373  12.957   9.409 -0.3477  0.1015 -0.1853
  370loPI   C2B 5918  18.474  12.959   9.021  0.1348 -0.0067  0.3712
  370loPI   C3B 5919  18.363  13.058   8.606 -0.1145  0.0640 -0.0773
  370loPI   C4B 5920  18.477  12.992   8.304  0.0793  0.0139 -0.5193
  371loPI    C1 5921  14.675   2.770  10.649 -0.0575 -0.2059 -0.1292
  371loPI    C2 5922  14.474   2.487  10.848  0.0019 -0.1605 -0.0037
  371loPI    C3 5923  14.519   2.851  11.008 -0.0351 -0.0934 -0.1446
  371loPI   PO4 5924  14.659   2.750  10.470 -0.4631  0.1682 -0.0225
  371loPI   GL1 5925  14.685   2.943  10.059  0.0820  0.1026 -0.0139
  371loPI   GL2 5926  14.702   2.629   9.892 -0.0083 -0.2612  0.1654
  371loPI   C1A 5927  14.687   3.081   9.708 -0.3112 -0.0108 -0.0882
  371loPI   C2A 5928  14.683   3.116   9.224  0.1101 -0.0200  0.1537
  371loPI   C3A 5929  14.809   3.003   8.943 -0.1779 -0.2169  0.0229
  371loPI   C4A 5930  14.901   2.966   8.477  0.1958  0.1328 -0.0803
  371loPI   C5A 5931  14.833   2.899   8.013  0.2296 -0.2084 -0.1178
  371loPI   C6A 5932  14.914   2.866   7.555  0.0748 -0.2160  0.1345
  371loPI   C1B 5933  14.640   2.629   9.454  0.0857 -0.0542 -0.1932
  371loPI   C2B 5934  14.805   2.498   9.057 -0.3233  0.0772 -0.2688
  371loPI   C3B 5935  14.854   2.456   8.630 -0.2332 -0.3693  0.0270
  371loPI   C4B 5936  15.031   2.544   8.222 -0.1264  0.0187 -0.1150
  372loPI    C1 5937  12.393  15.720  10.743  0.2160  0.0017  0.1081
  372loPI    C2 5938  12.410  16.027  10.999  0.1871 -0.0090  0.1227
  372loPI    C3 5939  12.112  15.761  11.025  0.1647  0.0095  0.0559
  372loPI   PO4 5940  12.536  15.764  10.539 -0.2261  0.1453  0.2704
  372loPI   GL1 5941  12.458  16.003  10.118  0.0263 -0.1602  0.2707
  372loPI   GL2 5942  12.700  16.207  10.144  0.0550 -0.1280 -0.0163
  372loPI   C1A 5943  12.485  15.920   9.572 -0.0798  0.0723 -0.0887
  372loPI   C2A 5944  12.549  15.969   9.109  0.1030  0.3741 -0.4928
  372loPI   C3A 5945  12.482  15.902   8.675 -0.0962  0.0038  0.2603
  372loPI   C4A 5946  12.676  15.826   8.266  0.0152  0.0567  0.0589
  372loPI   C5A 5947  12.602  15.480   7.974 -0.2020  0.0005  0.1935
  372loPI   C6A 5948  12.535  15.087   7.865 -0.0039 -0.0746  0.1491
  372loPI   C1B 5949  12.566  16.392   9.747 -0.1307 -0.0519  0.1452
  372loPI   C2B 5950  12.447  16.435   9.343  0.0189  0.2310 -0.2204
  372loPI   C3B 5951  12.493  16.412   8.881 -0.1704 -0.0402  0.3338
  372loPI   C4B 5952  12.513  16.397   8.430 -0.0236  0.0090 -0.0040
  373loPI    C1 5953  10.717  17.734  10.466  0.0669 -0.0441 -0.1090
  373loPI    C2 5954  10.959  18.029  10.346  0.0136  0.0595  0.0353
  373loPI    C3 5955  11.112  17.700  10.513  0.0715  0.0156 -0.1030
  373loPI   PO4 5956  10.562  17.753  10.379 -0.2801 -0.0976 -0.2386
  373loPI   GL1 5957  10.431  17.565  10.016 -0.0579  0.1968 -0.2061
  373loPI   GL2 5958  10.128  17.494  10.147  0.1859  0.0900  0.1043
  373loPI   C1A 5959  10.649  17.439   9.609  0.1156 -0.1375  0.0589
  373loPI   C2A 5960  10.666  17.319   9.174 -0.0464 -0.0837 -0.0134
  373loPI   C3A 5961  10.676  17.422   8.763  0.2495 -0.0467  0.2984
  373loPI   C4A 5962  10.711  17.427   8.241  0.0383 -0.0798 -0.2497
  373loPI   C5A 5963  10.882  17.479   7.775  0.0588 -0.1482 -0.3322
  373loPI   C6A 5964  11.128  17.431   7.360 -0.1888  0.1032 -0.1367
  373loPI   C1B 5965  10.124  17.348   9.714  0.1170 -0.5291  0.3078
  373loPI   C2B 5966  10.210  17.161   9.353 -0.2611 -0.2215  0.3972
  373loPI   C3B 5967  10.263  17.193   8.894 -0.0461 -0.0781  0.1777
  373loPI   C4B 5968  10.323  17.172   8.529  0.0654  0.2860  0.4817
  374loPI    C1 5969  15.090  16.715  10.474 -0.1620  0.0686 -0.2267
  374loPI    C2 5970  14.927  16.675  10.837 -0.1059 -0.0076 -0.2096
  374loPI    C3 5971  15.298  16.543  10.769 -0.0484  0.1707 -0.2468
  374loPI   PO4 5972  14.916  16.940  10.434  0.0581 -0.2046 -0.2766
  374loPI   GL1 5973  15.080  17.111  10.172  0.2356  0.1446 -0.0981
  374loPI   GL2 5974  15.317  16.960  10.136 -0.0217  0.1530  0.1526
  374loPI   C1A 5975  15.120  17.342   9.682 -0.1675  0.2072  0.1064
  374loPI   C2A 5976  15.220  17.440   9.329 -0.0223  0.0250  0.0812
  374loPI   C3A 5977  15.198  17.529   8.893 -0.0356  0.1483 -0.0757
  374loPI   C4A 5978  15.223  17.470   8.498 -0.1595 -0.3431  0.0581
  374loPI   C5A 5979  15.241  17.374   8.132 -0.0129  0.1093 -0.0370
  374loPI   C6A 5980  15.570  17.138   8.045  0.2556  0.3401  0.2592
  374loPI   C1B 5981  15.196  16.819   9.703  0.3494  0.0646  0.3276
  374loPI   C2B 5982  15.133  16.867   9.325  0.1411 -0.2928 -0.0380
  374loPI   C3B 5983  15.304  17.044   8.945 -0.1111 -0.1105  0.0888
  374loPI   C4B 5984  15.330  16.956   8.442  0.1761 -0.0389  0.0683
  375loPI    C1 5985  15.008   7.769  10.574  0.0755 -0.0768 -0.0200
  375loPI    C2 5986  15.288   7.972  10.775 -0.0363  0.0942 -0.0346
  375loPI    C3 5987  15.200   7.595  10.878  0.0953  0.0898  0.0638
  375loPI   PO4 5988  15.106   7.851  10.346  0.1077  0.0864 -0.0055
  375loPI   GL1 5989  15.114   7.743   9.921 -0.0336  0.0758 -0.0134
  375loPI   GL2 5990  14.851   7.774   9.868  0.1416 -0.0938  0.2541
  375loPI   C1A 5991  15.284   8.016   9.709  0.1712  0.4055 -0.2407
  375loPI   C2A 5992  15.252   8.086   9.270 -0.0385  0.3436  0.1198
  375loPI   C3A 5993  15.241   8.127   8.842  0.0663  0.0065  0.4140
  375loPI   C4A 5994  15.242   8.069   8.404  0.1694 -0.0967 -0.1213
  375loPI   C5A 5995  15.238   8.173   7.992  0.1065 -0.2693 -0.0100
  375loPI   C6A 5996  15.172   8.428   7.589  0.0141  0.0879 -0.0888
  375loPI   C1B 5997  14.852   7.853   9.432  0.0842 -0.0094  0.1338
  375loPI   C2B 5998  14.849   7.752   9.069  0.4622  0.2355 -0.2646
  375loPI   C3B 5999  14.838   7.780   8.573  0.1143 -0.0122  0.0347
  375loPI   C4B 6000  14.893   7.775   8.132  0.4640 -0.1751  0.3410
  376loPI    C1 6001  12.077   5.063   9.912  0.0290  0.0483  0.0719
  376loPI    C2 6002  12.076   4.675   9.817 -0.1489  0.1156 -0.2117
  376loPI    C3 6003  11.966   4.790  10.183  0.0586 -0.1112 -0.0748
  376loPI   PO4 6004  11.893   5.117   9.647  0.0251 -0.0015  0.1432
  376loPI   GL1 6005  11.998   4.898   9.234  0.1806  0.0448 -0.2178
  376loPI   GL2 6006  11.695   4.919   9.123  0.2041  0.0170  0.2392
  376loPI   C1A 6007  12.080   5.062   8.850 -0.0631 -0.2156  0.1256
  376loPI   C2A 6008  12.337   4.967   8.468  0.1139  0.0809 -0.1434
  376loPI   C3A 6009  12.632   4.848   8.226 -0.0122  0.1466 -0.0991
  376loPI   C4A 6010  12.990   4.838   8.141 -0.1965  0.0587 -0.2555
  376loPI   C5A 6011  13.208   4.563   7.921 -0.5597 -0.2149 -0.0664
  376loPI   C6A 6012  13.514   4.272   7.998 -0.1544 -0.0369  0.4566
  376loPI   C1B 6013  11.659   4.829   8.655  0.1175  0.2839 -0.2447
  376loPI   C2B 6014  11.769   4.689   8.207 -0.1965  0.0823 -0.3717
  376loPI   C3B 6015  12.019   4.600   7.938 -0.1742  0.0115 -0.0529
  376loPI   C4B 6016  12.333   4.881   7.801  0.1810  0.2564  0.1303
  377loPI    C1 6017  14.036  16.755  10.772 -0.0881 -0.0718  0.1141
  377loPI    C2 6018  13.930  16.469  11.030  0.0976 -0.1466  0.1085
  377loPI    C3 6019  13.967  16.847  11.155  0.1229 -0.1715  0.1771
  377loPI   PO4 6020  13.931  16.780  10.592  0.2190 -0.1693  0.1284
  377loPI   GL1 6021  13.951  16.727  10.176 -0.3168 -0.0735 -0.0686
  377loPI   GL2 6022  13.734  17.091  10.145 -0.1912 -0.4079 -0.4170
  377loPI   C1A 6023  13.980  16.659   9.753  0.1230  0.1410 -0.0894
  377loPI   C2A 6024  13.821  16.580   9.324  0.0172 -0.0576  0.3048
  377loPI   C3A 6025  13.726  16.646   8.951  0.0286 -0.1887  0.0606
  377loPI   C4A 6026  13.839  16.585   8.580  0.0162 -0.2869  0.0174
  377loPI   C5A 6027  13.908  16.691   8.186 -0.0373 -0.1941 -0.3891
  377loPI   C6A 6028  13.811  16.502   7.870 -0.1032 -0.1510  0.0033
  377loPI   C1B 6029  13.864  17.189   9.684 -0.1775 -0.2467  0.0153
  377loPI   C2B 6030  13.887  17.201   9.208 -0.3807 -0.1828 -0.0013
  377loPI   C3B 6031  13.757  17.102   8.753 -0.1597 -0.3116 -0.1118
  377loPI   C4B 6032  13.862  17.234   8.312  0.1292 -0.0655  0.0790
  378loPI    C1 6033   4.310  14.717  10.773  0.2272  0.0823  0.2488
  378loPI    C2 6034   4.656  14.607  10.939  0.1854 -0.2275  0.1368
  378loPI    C3 6035   4.338  14.681  11.170  0.3375  0.1103  0.2438
  378loPI   PO4 6036   4.375  14.562  10.489 -0.0243  0.0877 -0.3871
  378loPI   GL1 6037   4.467  14.648  10.053 -0.1725 -0.3687  0.1372
  378loPI   GL2 6038   4.487  15.049  10.084  0.2030 -0.2608  0.3989
  378loPI   C1A 6039   4.461  14.745   9.564 -0.0226 -0.0643  0.2415
  378loPI   C2A 6040   4.328  14.839   9.151 -0.0368 -0.0636 -0.3298
  378loPI   C3A 6041   4.166  14.768   8.758  0.0718  0.2570  0.0758
  378loPI   C4A 6042   4.151  14.757   8.321 -0.0245 -0.0874 -0.1818
  378loPI   C5A 6043   4.206  15.116   7.996  0.2824 -0.0678 -0.1768
  378loPI   C6A 6044   4.504  15.161   7.865  0.0099 -0.2579  0.2870
  378loPI   C1B 6045   4.465  15.272   9.730 -0.1604 -0.1867 -0.0189
  378loPI   C2B 6046   4.353  15.385   9.236 -0.2421 -0.1800  0.0941
  378loPI   C3B 6047   4.226  15.291   8.936  0.1595 -0.0563 -0.2385
  378loPI   C4B 6048   4.192  15.375   8.522  0.0644 -0.2116  0.1771
  379loPI    C1 6049  16.388   1.277  10.727 -0.2989 -0.0075 -0.1009
  379loPI    C2 6050  16.517   1.633  10.857  0.0593 -0.1316 -0.1050
  379loPI    C3 6051  16.282   1.409  11.090  0.1045 -0.0364  0.0336
  379loPI   PO4 6052  16.636   1.210  10.617 -0.1398  0.1019 -0.2383
  379loPI   GL1 6053  16.864   1.049  10.267  0.3029 -0.2348  0.2616
  379loPI   GL2 6054  16.797   1.318  10.135 -0.1112 -0.0714  0.1019
  379loPI   C1A 6055  16.994   0.731   9.980 -0.0833  0.1578 -0.1549
  379loPI   C2A 6056  17.075   0.688   9.532 -0.0821  0.1286 -0.1880
  379loPI   C3A 6057  16.968   0.669   9.086 -0.1397 -0.0907  0.0781
  379loPI   C4A 6058  17.094   0.706   8.692 -0.0605  0.0813  0.3887
  379loPI   C5A 6059  17.135   0.628   8.289  0.0764  0.3379 -0.1175
  379loPI   C6A 6060  16.914   0.319   8.072  0.0683  0.3236  0.2279
  379loPI   C1B 6061  17.057   1.293   9.788  0.0471  0.0243 -0.0491
  379loPI   C2B 6062  16.987   1.161   9.360  0.1335 -0.0487  0.0021
  379loPI   C3B 6063  17.082   1.189   8.835  0.1959  0.2911  0.2974
  379loPI   C4B 6064  17.217   1.217   8.400  0.0022  0.1512 -0.1521
  380loPI    C1 6065   8.478   9.212  10.643  0.1809 -0.3946 -0.0596
  380loPI    C2 6066   8.158   9.220  10.884  0.0733 -0.0095 -0.2072
  380loPI    C3 6067   8.507   9.078  11.019 -0.0384  0.0087  0.1077
  380loPI   PO4 6068   8.387   9.464  10.477 -0.2309 -0.1713  0.1714
  380loPI   GL1 6069   8.498   9.570  10.121  0.0958  0.0224 -0.1473
  380loPI   GL2 6070   8.475   9.834   9.985  0.0957  0.2259 -0.3125
  380loPI   C1A 6071   8.372   9.297   9.716  0.0710 -0.0750  0.0467
  380loPI   C2A 6072   8.393   9.283   9.318  0.0652  0.1419 -0.1063
  380loPI   C3A 6073   8.383   9.353   8.921 -0.0544 -0.0845 -0.0057
  380loPI   C4A 6074   8.329   9.361   8.454  0.1565 -0.0408 -0.0054
  380loPI   C5A 6075   8.524   9.278   8.040  0.0954 -0.3898 -0.0880
  380loPI   C6A 6076   8.227   9.281   7.633 -0.0430 -0.0968 -0.1031
  380loPI   C1B 6077   8.434   9.796   9.540  0.0027  0.1387  0.2387
  380loPI   C2B 6078   8.389   9.872   9.080 -0.2349  0.0016 -0.2221
  380loPI   C3B 6079   8.431   9.862   8.637 -0.1632  0.1411 -0.0406
  380loPI   C4B 6080   8.381   9.942   8.216  0.0445 -0.0238 -0.0403
  381loPI    C1 6081  11.164  15.250  10.727  0.1890 -0.2598 -0.1597
  381loPI    C2 6082  10.948  15.002  10.955 -0.4043  0.2261 -0.1673
  381loPI    C3 6083  11.084  15.346  11.107 -0.1957  0.2283 -0.3535
  381loPI   PO4 6084  10.942  15.305  10.478 -0.0388  0.0250  0.1119
  381loPI   GL1 6085  11.020  15.294  10.121  0.2085  0.3965  0.1703
  381loPI   GL2 6086  11.135  15.021  10.040  0.1836 -0.2840 -0.1407
  381loPI   C1A 6087  11.058  15.585   9.783  0.1299 -0.0975  0.1051
  381loPI   C2A 6088  11.156  15.686   9.298  0.0010  0.0414 -0.0305
  381loPI   C3A 6089  11.157  15.518   8.902 -0.1167  0.0725  0.1014
  381loPI   C4A 6090  11.226  15.596   8.504 -0.1095 -0.0975 -0.0402
  381loPI   C5A 6091  11.246  15.688   8.030  0.3201  0.3415  0.0973
  381loPI   C6A 6092  11.247  15.962   7.711 -0.0993  0.1502  0.3056
  381loPI   C1B 6093  11.138  15.103   9.415 -0.3218 -0.1037  0.1263
  381loPI   C2B 6094  11.238  15.044   9.022 -0.3437  0.2787 -0.0664
  381loPI   C3B 6095  11.170  15.021   8.576 -0.0522  0.1886  0.1406
  381loPI   C4B 6096  11.102  15.203   8.153 -0.0045 -0.1462  0.0667
  382loPI    C1 6097   2.380  16.527  10.830  0.2780  0.1947  0.1595
  382loPI    C2 6098   2.311  16.136  10.881  0.0919  0.1984 -0.0440
  382loPI    C3 6099   2.246  16.392  11.182  0.1713  0.0793  0.0758
  382loPI   PO4 6100   2.180  16.621  10.679 -0.2797 -0.1213  0.1111
  382loPI   GL1 6101   2.020  16.862  10.415 -0.0662  0.1143 -0.2117
  382loPI   GL2 6102   1.897  17.213  10.609 -0.2054  0.3103 -0.0648
  382loPI   C1A 6103   1.959  16.620  10.074 -0.0579 -0.1127  0.1515
  382loPI   C2A 6104   1.937  16.702   9.690  0.2979  0.0616  0.1843
  382loPI   C3A 6105   2.062  16.706   9.214  0.1239  0.1523  0.0909
  382loPI   C4A 6106   1.891  16.643   8.836 -0.2506  0.0201 -0.0086
  382loPI   C5A 6107   2.018  16.579   8.423 -0.0478  0.1365  0.2276
  382loPI   C6A 6108   2.139  16.666   8.117 -0.3947  0.2063  0.0707
  382loPI   C1B 6109   1.637  17.162  10.319  0.4317  0.2545 -0.2329
  382loPI   C2B 6110   1.877  17.134   9.941  0.0115  0.0876 -0.3862
  382loPI   C3B 6111   1.944  17.259   9.559  0.5506  0.0010  0.3598
  382loPI   C4B 6112   1.901  17.228   9.043 -0.1945  0.0721  0.0045
  383loPI    C1 6113  15.447  11.418  10.870 -0.1469  0.1252 -0.1025
  383loPI    C2 6114  15.615  11.750  11.017  0.1485 -0.0590 -0.0150
  383loPI    C3 6115  15.618  11.412  11.231 -0.2397 -0.0962 -0.0602
  383loPI   PO4 6116  15.546  11.374  10.609  0.1590 -0.2637 -0.2440
  383loPI   GL1 6117  15.723  11.534  10.231  0.2670  0.0812 -0.0936
  383loPI   GL2 6118  15.850  11.803  10.118  0.0342  0.0352  0.0288
  383loPI   C1A 6119  15.821  11.471   9.754  0.0250  0.1397 -0.0798
  383loPI   C2A 6120  15.728  11.376   9.269 -0.2706 -0.2033 -0.0944
  383loPI   C3A 6121  15.681  11.388   8.782  0.0911  0.2715  0.2289
  383loPI   C4A 6122  15.606  11.527   8.333  0.1595  0.0664  0.1353
  383loPI   C5A 6123  15.400  11.357   8.026 -0.0286 -0.1550  0.2062
  383loPI   C6A 6124  15.358  11.146   7.634 -0.0070 -0.3241  0.1971
  383loPI   C1B 6125  15.787  11.965   9.699 -0.0612 -0.1035  0.0698
  383loPI   C2B 6126  15.681  11.845   9.192 -0.2953  0.0908  0.1116
  383loPI   C3B 6127  15.686  11.881   8.798  0.2457  0.1163 -0.1042
  383loPI   C4B 6128  15.576  12.029   8.325  0.1862 -0.2835 -0.0119
  384loPI    C1 6129  17.148   9.084  10.943  0.1260  0.1131  0.3421
  384loPI    C2 6130  16.805   8.936  11.085  0.0652  0.1066  0.1904
  384loPI    C3 6131  17.153   8.818  11.242  0.0030  0.0338  0.2746
  384loPI   PO4 6132  17.101   9.014  10.676 -0.3112  0.3320 -0.1806
  384loPI   GL1 6133  16.850   9.126  10.383 -0.0002 -0.0513 -0.1047
  384loPI   GL2 6134  16.703   9.402  10.184 -0.0535  0.3090 -0.2363
  384loPI   C1A 6135  17.004   9.093   9.966 -0.2776 -0.2646 -0.2288
  384loPI   C2A 6136  17.029   9.152   9.557  0.2048 -0.0085  0.0103
  384loPI   C3A 6137  17.052   9.108   9.151 -0.2239  0.0796 -0.1996
  384loPI   C4A 6138  17.020   9.065   8.728 -0.0298 -0.3746 -0.0520
  384loPI   C5A 6139  16.984   9.105   8.223 -0.2466  0.1956  0.1222
  384loPI   C6A 6140  17.256   9.213   8.041 -0.2787  0.2548 -0.0588
  384loPI   C1B 6141  16.591   9.392   9.676  0.1511 -0.2901  0.0678
  384loPI   C2B 6142  16.623   9.409   9.235  0.0977 -0.2717 -0.3001
  384loPI   C3B 6143  16.619   9.377   8.802 -0.0307  0.1128  0.1809
  384loPI   C4B 6144  16.420   9.405   8.391  0.2645 -0.5067 -0.0563
  385loPI    C1 6145  10.213  17.942  10.674  0.0542 -0.1771  0.0652
  385loPI    C2 6146  10.477  17.729  10.886  0.1871  0.0324  0.1134
  385loPI    C3 6147  10.571  18.098  10.764 -0.0502  0.0741  0.0527
  385loPI   PO4 6148  10.094  17.847  10.478  0.0003 -0.1311  0.0619
  385loPI   GL1 6149  10.164  17.980  10.081 -0.0014  0.0420  0.0323
  385loPI   GL2 6150   9.789  17.858  10.082  0.0724  0.1151 -0.2089
  385loPI   C1A 6151  10.210  17.883   9.725  0.2824  0.3434 -0.1566
  385loPI   C2A 6152  10.245  17.680   9.367  0.0415  0.0448  0.2698
  385loPI   C3A 6153  10.151  17.714   8.944  0.2023 -0.4095 -0.0856
  385loPI   C4A 6154  10.253  17.701   8.493 -0.0898  0.0828  0.2740
  385loPI   C5A 6155  10.228  17.610   8.156  0.2732 -0.0014 -0.1816
  385loPI   C6A 6156   9.810  17.402   7.952 -0.4309  0.1038 -0.3423
  385loPI   C1B 6157   9.679  17.601   9.754 -0.2565  0.2731 -0.1135
  385loPI   C2B 6158   9.768  17.429   9.352 -0.0165  0.1973 -0.2064
  385loPI   C3B 6159   9.710  17.395   8.910 -0.0201  0.2421  0.1624
  385loPI   C4B 6160   9.704  17.492   8.505 -0.0018  0.0329  0.0838
  386loPI    C1 6161   2.084  17.508  10.979 -0.1006 -0.0802  0.0715
  386loPI    C2 6162   2.268  17.695  11.280  0.1144 -0.2533  0.0507
  386loPI    C3 6163   1.869  17.671  11.274  0.0918  0.0528  0.1403
  386loPI   PO4 6164   2.275  17.560  10.837 -0.1456 -0.2767 -0.0338
  386loPI   GL1 6165   2.349  17.764  10.568 -0.2458 -0.0255  0.1091
  386loPI   GL2 6166   2.498  17.453  10.384  0.1666 -0.1344 -0.1552
  386loPI   C1A 6167   2.474  17.934  10.129  0.1760 -0.1026  0.2178
  386loPI   C2A 6168   2.423  18.009   9.778  0.1869  0.2300 -0.1241
  386loPI   C3A 6169   2.429  18.049   9.364 -0.1585 -0.1861 -0.0684
  386loPI   C4A 6170   2.476  18.022   8.884  0.0171  0.0821  0.0076
  386loPI   C5A 6171   2.355  18.008   8.439 -0.2635  0.1535 -0.2241
  386loPI   C6A 6172   2.348  18.158   8.011  0.0202  0.2056 -0.1598
  386loPI   C1B 6173   2.403  17.486   9.958  0.2532 -0.1876 -0.0980
  386loPI   C2B 6174   2.362  17.511   9.587 -0.0897 -0.1837  0.0094
  386loPI   C3B 6175   2.449  17.503   9.099  0.0890  0.3743 -0.3940
  386loPI   C4B 6176   2.330  17.477   8.653 -0.2722  0.3688  0.2235
  387loPI    C1 6177  14.160   3.457  10.482 -0.1366 -0.0018  0.1604
  387loPI    C2 6178  14.506   3.326  10.633  0.0629  0.2761 -0.0446
  387loPI    C3 6179  14.327   3.125  10.337 -0.0529  0.0271  0.1900
  387loPI   PO4 6180  14.069   3.641  10.332  0.3098 -0.0366  0.0893
  387loPI   GL1 6181  14.053   3.488   9.925  0.2272 -0.0634 -0.1739
  387loPI   GL2 6182  14.091   3.901   9.867 -0.0081  0.1043  0.2449
  387loPI   C1A 6183  14.151   3.340   9.505  0.1483  0.1834 -0.2543
  387loPI   C2A 6184  14.254   3.297   9.047 -0.1958 -0.1900 -0.3389
  387loPI   C3A 6185  14.413   3.227   8.664 -0.1918  0.1582 -0.1841
  387loPI   C4A 6186  14.561   3.375   8.328  0.1431  0.1393  0.0359
  387loPI   C5A 6187  14.726   3.656   8.168 -0.1827 -0.0945  0.3196
  387loPI   C6A 6188  15.064   3.726   7.922 -0.2163  0.1412  0.1891
  387loPI   C1B 6189  14.229   3.845   9.490  0.1330 -0.2009 -0.1762
  387loPI   C2B 6190  14.243   3.878   9.012  0.2702 -0.2298  0.0478
  387loPI   C3B 6191  14.431   3.811   8.598  0.2478  0.1144 -0.0530
  387loPI   C4B 6192  14.358   3.950   8.236 -0.3692 -0.0146  0.0380
  388loPI    C1 6193   4.517   0.082  10.742  0.2022  0.2928  0.1942
  388loPI    C2 6194   4.489  -0.006  11.131 -0.3228 -0.1324  0.0722
  388loPI    C3 6195   4.213   0.226  10.959 -0.1582 -0.0425 -0.0742
  388loPI   PO4 6196   4.453  -0.128  10.558 -0.1494  0.0674  0.3710
  388loPI   GL1 6197   4.394  -0.049  10.167 -0.2190  0.2061  0.1326
  388loPI   GL2 6198   4.252  -0.356  10.112 -0.0478 -0.1517  0.0706
  388loPI   C1A 6199   4.327   0.193   9.796 -0.0196  0.2117 -0.1916
  388loPI   C2A 6200   4.244   0.204   9.355  0.0490 -0.3388  0.0736
  388loPI   C3A 6201   4.224   0.227   8.887  0.0166  0.3033  0.1203
  388loPI   C4A 6202   4.221   0.058   8.557 -0.2562  0.0178  0.4173
  388loPI   C5A 6203   3.994   0.197   8.232 -0.0497  0.0121  0.4037
  388loPI   C6A 6204   3.832   0.535   7.881  0.0366  0.3188 -0.3948
  388loPI   C1B 6205   4.280  -0.374   9.725 -0.1758  0.1771  0.0378
  388loPI   C2B 6206   4.288  -0.323   9.270 -0.2601  0.4102 -0.0082
  388loPI   C3B 6207   4.225  -0.347   8.867 -0.0537 -0.1786 -0.1833
  388loPI   C4B 6208   4.293  -0.454   8.434  0.0334  0.1058 -0.0523
  389loPI    C1 6209  12.773   9.190  10.888 -0.2927 -0.3033 -0.4149
  389loPI    C2 6210  12.709   8.836  11.063 -0.1159 -0.1306  0.0114
  389loPI    C3 6211  13.075   8.997  11.065 -0.1633 -0.0116 -0.3121
  389loPI   PO4 6212  12.652   9.180  10.689  0.0175 -0.0801  0.3031
  389loPI   GL1 6213  12.733   9.194  10.254  0.0838 -0.1368  0.1455
  389loPI   GL2 6214  12.497   9.499  10.124  0.0892 -0.0292  0.0898
  389loPI   C1A 6215  12.944   9.275   9.925 -0.1219  0.0574  0.2309
  389loPI   C2A 6216  12.983   9.285   9.515 -0.4459 -0.1380 -0.1322
  389loPI   C3A 6217  12.958   9.272   9.087  0.2101 -0.1114  0.3744
  389loPI   C4A 6218  12.939   9.324   8.615  0.2658  0.0455 -0.1397
  389loPI   C5A 6219  12.790   9.459   8.188 -0.0876 -0.0655 -0.2023
  389loPI   C6A 6220  13.061   9.484   7.829  0.1666 -0.0544 -0.0575
  389loPI   C1B 6221  12.513   9.606   9.645 -0.0608  0.0669 -0.1807
  389loPI   C2B 6222  12.450   9.569   9.214  0.2532  0.0960 -0.0653
  389loPI   C3B 6223  12.473   9.574   8.768  0.3170 -0.1942 -0.1751
  389loPI   C4B 6224  12.405   9.777   8.343 -0.0875 -0.0708 -0.1886
  390loPI    C1 6225  10.381   8.461  10.693 -0.2264 -0.3808 -0.0782
  390loPI    C2 6226  10.001   8.533  10.793 -0.0529  0.3709  0.1010
  390loPI    C3 6227  10.246   8.355  11.054 -0.2291  0.0498  0.0525
  390loPI   PO4 6228  10.331   8.400  10.357 -0.2749 -0.0599 -0.0845
  390loPI   GL1 6229  10.600   8.556   9.995  0.1210  0.0768  0.1042
  390loPI   GL2 6230  10.496   8.212   9.916 -0.0829  0.1271 -0.1265
  390loPI   C1A 6231  10.733   8.583   9.601 -0.1549 -0.2271  0.0589
  390loPI   C2A 6232  10.793   8.599   9.223  0.1389  0.1202  0.2473
  390loPI   C3A 6233  10.645   8.601   8.815  0.4674 -0.0811 -0.0720
  390loPI   C4A 6234  10.776   8.689   8.386  0.3032 -0.0825  0.1507
  390loPI   C5A 6235  11.030   8.779   8.100 -0.1493 -0.2956  0.2834
  390loPI   C6A 6236  11.102   9.104   7.968 -0.1108  0.5447 -0.4558
  390loPI   C1B 6237  10.752   8.055   9.588  0.0673 -0.1117  0.3439
  390loPI   C2B 6238  10.763   8.139   9.216 -0.1030  0.1332 -0.1914
  390loPI   C3B 6239  10.728   8.105   8.728  0.4503  0.0988  0.1038
  390loPI   C4B 6240  10.720   8.194   8.387  0.1808  0.1740 -0.0076
  391loPI    C1 6241  15.657  12.303  10.878 -0.1323 -0.0312  0.0327
  391loPI    C2 6242  15.683  12.608  11.135  0.0040 -0.0334  0.0223
  391loPI    C3 6243  15.992  12.522  10.895 -0.0180 -0.2057  0.0548
  391loPI   PO4 6244  15.457  12.375  10.724  0.1819 -0.2208 -0.0478
  391loPI   GL1 6245  15.269  12.247  10.299 -0.0609  0.1660 -0.0795
  391loPI   GL2 6246  15.286  12.589  10.285  0.1653  0.4532  0.2275
  391loPI   C1A 6247  15.339  12.156   9.931 -0.0877  0.1506 -0.0083
  391loPI   C2A 6248  15.391  12.183   9.578 -0.0153  0.3104  0.1182
  391loPI   C3A 6249  15.240  12.210   9.161 -0.0873 -0.0281  0.1989
  391loPI   C4A 6250  15.273  12.241   8.696  0.2248  0.3352 -0.1066
  391loPI   C5A 6251  15.132  12.281   8.304 -0.1458  0.1527 -0.1358
  391loPI   C6A 6252  14.960  12.289   7.932  0.1422  0.0730 -0.0244
  391loPI   C1B 6253  15.245  12.689   9.935  0.3471  0.1960 -0.3690
  391loPI   C2B 6254  15.291  12.640   9.506  0.3425 -0.1114 -0.1313
  391loPI   C3B 6255  15.253  12.666   9.035  0.1270  0.0643  0.1254
  391loPI   C4B 6256  15.237  12.737   8.543  0.0046 -0.0738  0.3498
  392loPI    C1 6257   2.109   8.842  10.346  0.2039  0.0581 -0.0199
  392loPI    C2 6258   2.508   8.817  10.329  0.2034  0.1700 -0.2214
  392loPI    C3 6259   2.329   9.175  10.328  0.1113  0.1283  0.1315
  392loPI   PO4 6260   1.973   8.778  10.165 -0.0115  0.0167 -0.2505
  392loPI   GL1 6261   2.062   9.039   9.821 -0.3098 -0.0205  0.0846
  392loPI   GL2 6262   2.175   9.257   9.785 -0.1011  0.2842 -0.1477
  392loPI   C1A 6263   1.949   8.869   9.447  0.0157 -0.1019  0.2614
  392loPI   C2A 6264   1.806   8.792   9.042  0.2796 -0.2980  0.1596
  392loPI   C3A 6265   1.714   8.888   8.636  0.0881 -0.3037  0.2541
  392loPI   C4A 6266   1.861   8.805   8.174  0.2940  0.0592  0.1554
  392loPI   C5A 6267   1.653   8.786   7.791 -0.0532 -0.2368 -0.1353
  392loPI   C6A 6268   1.360   8.473   7.663 -0.2760  0.0044 -0.0858
  392loPI   C1B 6269   1.945   9.387   9.408  0.1444  0.0495  0.3713
  392loPI   C2B 6270   1.736   9.442   9.087 -0.0403 -0.2371 -0.0898
  392loPI   C3B 6271   1.843   9.408   8.703  0.1484 -0.0611 -0.0576
  392loPI   C4B 6272   1.710   9.287   8.265  0.1749 -0.2047 -0.0432
  393loPI    C1 6273   3.320   3.603  10.827 -0.0693 -0.0315 -0.0347
  393loPI    C2 6274   3.613   3.333  10.788 -0.0071  0.0374 -0.0458
  393loPI    C3 6275   3.324   3.277  11.059 -0.0399 -0.0815 -0.1048
  393loPI   PO4 6276   3.234   3.616  10.570  0.0048 -0.0460  0.0693
  393loPI   GL1 6277   3.277   3.350  10.237  0.0689  0.0984  0.3299
  393loPI   GL2 6278   3.128   3.327   9.946 -0.1877  0.0154 -0.1074
  393loPI   C1A 6279   3.600   3.533   9.930 -0.1893 -0.1633 -0.1989
  393loPI   C2A 6280   3.671   3.543   9.451  0.2414 -0.1132  0.5250
  393loPI   C3A 6281   3.610   3.545   9.080  0.0389 -0.0354  0.0248
  393loPI   C4A 6282   3.626   3.534   8.637 -0.3839 -0.2726 -0.0872
  393loPI   C5A 6283   3.804   3.387   8.143 -0.0956 -0.1150  0.2595
  393loPI   C6A 6284   4.039   3.000   8.044  0.0455  0.2186 -0.2746
  393loPI   C1B 6285   3.209   3.352   9.469  0.0737  0.1625  0.4714
  393loPI   C2B 6286   3.146   3.311   9.116  0.0131 -0.0760  0.0943
  393loPI   C3B 6287   3.222   3.274   8.666  0.0677  0.0653  0.0051
  393loPI   C4B 6288   3.209   3.189   8.265 -0.0707 -0.5512  0.1857
  394loPI    C1 6289   3.453  12.467  10.793  0.0539  0.0705  0.0108
  394loPI    C2 6290   3.238  12.730  11.005 -0.0139  0.0932 -0.0855
  394loPI    C3 6291   3.525  12.516  11.184  0.0027  0.1907  0.0057
  394loPI   PO4 6292   3.303  12.425  10.549  0.1358  0.0860  0.0891
  394loPI   GL1 6293   2.977  12.283  10.276  0.0858  0.2268 -0.3191
  394loPI   GL2 6294   2.944  12.565  10.123  0.1318  0.2004 -0.1894
  394loPI   C1A 6295   2.897  12.045   9.893  0.1494 -0.3456 -0.2537
  394loPI   C2A 6296   2.831  11.990   9.535  0.3163  0.4285 -0.2183
  394loPI   C3A 6297   2.818  12.052   9.057 -0.2620  0.3287 -0.0415
  394loPI   C4A 6298   2.682  11.942   8.489  0.2326  0.1794 -0.0582
  394loPI   C5A 6299   2.894  12.117   8.203  0.0489  0.3561 -0.2106
  394loPI   C6A 6300   3.033  12.475   8.000  0.0887  0.1882 -0.0504
  394loPI   C1B 6301   2.862  12.541   9.709 -0.2218  0.3446  0.0458
  394loPI   C2B 6302   3.029  12.541   9.369  0.1978  0.0925 -0.2134
  394loPI   C3B 6303   2.998  12.591   8.976 -0.2829  0.0476  0.0823
  394loPI   C4B 6304   2.740  12.406   8.674  0.0279  0.1657  0.2440
  395loPI    C1 6305   2.935  16.707  10.919 -0.0583  0.1024 -0.1102
  395loPI    C2 6306   2.652  16.744  11.198  0.0551 -0.1532  0.0421
  395loPI    C3 6307   2.837  16.393  11.147  0.1354 -0.0694 -0.2593
  395loPI   PO4 6308   2.781  16.785  10.679  0.1277 -0.0478 -0.0446
  395loPI   GL1 6309   2.545  16.716  10.256 -0.2128  0.3003  0.0629
  395loPI   GL2 6310   2.338  17.021  10.124  0.2310  0.0759  0.2412
  395loPI   C1A 6311   2.445  16.480   9.930  0.1220 -0.0129 -0.2013
  395loPI   C2A 6312   2.358  16.468   9.615  0.0549  0.1683  0.1711
  395loPI   C3A 6313   2.468  16.372   9.224  0.0582  0.1002  0.0870
  395loPI   C4A 6314   2.419  16.336   8.788  0.2247  0.2595  0.0635
  395loPI   C5A 6315   2.516  16.379   8.285 -0.0394 -0.0772 -0.1126
  395loPI   C6A 6316   2.731  16.440   7.953 -0.0295  0.0738  0.0032
  395loPI   C1B 6317   2.362  17.000   9.737  0.0491 -0.1007  0.1236
  395loPI   C2B 6318   2.427  17.023   9.285  0.0193 -0.3096 -0.0818
  395loPI   C3B 6319   2.347  16.827   8.799  0.0071 -0.2118 -0.2137
  395loPI   C4B 6320   2.405  16.905   8.426  0.3002 -0.0725 -0.1160
  396loPI    C1 6321  13.658   0.115  10.796  0.0887 -0.1324 -0.2682
  396loPI    C2 6322  13.978  -0.098  10.907  0.0441 -0.1363 -0.1456
  396loPI    C3 6323  13.631  -0.144  11.100  0.0519  0.0977 -0.0717
  396loPI   PO4 6324  13.598   0.135  10.558  0.0451  0.4620 -0.4446
  396loPI   GL1 6325  13.682  -0.004  10.201 -0.0202  0.1376  0.1833
  396loPI   GL2 6326  13.457   0.186  10.102  0.1533  0.0108  0.0631
  396loPI   C1A 6327  13.881   0.055   9.754 -0.0438 -0.1627 -0.2381
  396loPI   C2A 6328  13.953  -0.040   9.323  0.0251 -0.0423  0.1767
  396loPI   C3A 6329  13.875  -0.160   8.853 -0.0677 -0.1777 -0.2459
  396loPI   C4A 6330  13.903  -0.124   8.407  0.2420  0.0640  0.0776
  396loPI   C5A 6331  14.178  -0.001   7.979 -0.2633 -0.2113 -0.3692
  396loPI   C6A 6332  14.530  -0.025   7.896 -0.0403 -0.0759  0.0928
  396loPI   C1B 6333  13.491   0.321   9.855 -0.0473 -0.0315 -0.3339
  396loPI   C2B 6334  13.423   0.232   9.499 -0.1364  0.3519  0.3472
  396loPI   C3B 6335  13.439   0.197   9.156  0.0182 -0.0009  0.1510
  396loPI   C4B 6336  13.526   0.130   8.715 -0.1606  0.0930 -0.0639
  397loPI    C1 6337   7.320   9.075  10.790  0.0445 -0.0308 -0.1825
  397loPI    C2 6338   7.433   8.829  11.085 -0.3257  0.0573  0.0384
  397loPI    C3 6339   7.679   9.120  10.961 -0.0391 -0.1816  0.0365
  397loPI   PO4 6340   7.084   9.006  10.676 -0.1232 -0.0710  0.1041
  397loPI   GL1 6341   7.100   8.962  10.224  0.0343 -0.1229  0.0721
  397loPI   GL2 6342   7.147   8.827   9.945  0.0000  0.0220 -0.0143
  397loPI   C1A 6343   6.753   9.123   9.926  0.0306  0.2723  0.0808
  397loPI   C2A 6344   6.622   9.179   9.480  0.1981  0.0691  0.0200
  397loPI   C3A 6345   6.539   9.262   9.102  0.0591 -0.2742  0.0769
  397loPI   C4A 6346   6.306   9.286   8.674  0.0828  0.1478 -0.0018
  397loPI   C5A 6347   6.390   9.290   8.190  0.4158  0.0903 -0.0499
  397loPI   C6A 6348   6.500   9.219   7.703 -0.1594 -0.0959 -0.3363
  397loPI   C1B 6349   7.093   8.930   9.568 -0.0658 -0.0606 -0.2168
  397loPI   C2B 6350   7.005   9.053   9.200  0.0706  0.3105 -0.2033
  397loPI   C3B 6351   6.970   9.003   8.740 -0.0999  0.1911  0.4332
  397loPI   C4B 6352   7.034   9.081   8.292 -0.1701  0.1629  0.1352
  398loPI    C1 6353   2.477  12.154  10.852 -0.1753  0.0290  0.0493
  398loPI    C2 6354   2.279  11.876  11.062 -0.0030 -0.0526  0.1057
  398loPI    C3 6355   2.643  11.994  11.179  0.0374  0.0013 -0.0703
  398loPI   PO4 6356   2.454  12.137  10.543  0.1335  0.1102 -0.0688
  398loPI   GL1 6357   2.416  12.115  10.148  0.1512  0.2379  0.0318
  398loPI   GL2 6358   2.464  12.314   9.851  0.0111  0.0648 -0.0994
  398loPI   C1A 6359   2.337  11.750   9.802 -0.1639  0.1769  0.2286
  398loPI   C2A 6360   2.379  11.723   9.454  0.2123 -0.3100 -0.0038
  398loPI   C3A 6361   2.315  11.761   8.982 -0.2822  0.1182 -0.0994
  398loPI   C4A 6362   2.230  11.632   8.528  0.2238  0.2229  0.0896
  398loPI   C5A 6363   2.575  11.445   8.295  0.0374  0.1901  0.0278
  398loPI   C6A 6364   2.964  11.589   8.097  0.1988  0.0947 -0.2498
  398loPI   C1B 6365   2.424  12.219   9.467 -0.1591 -0.4889  0.0819
  398loPI   C2B 6366   2.319  12.269   8.973  0.2202  0.0647 -0.1589
  398loPI   C3B 6367   2.217  12.193   8.635 -0.0608 -0.0588  0.0635
  398loPI   C4B 6368   2.102  12.002   8.217 -0.0644 -0.1082 -0.0560
  399loPI    C1 6369   5.788  13.392  11.105 -0.3631  0.0282  0.4256
  399loPI    C2 6370   6.045  13.460  11.404 -0.0180 -0.1095  0.1667
  399loPI    C3 6371   5.786  13.157  11.428 -0.0403 -0.0765  0.3548
  399loPI   PO4 6372   5.919  13.492  10.831  0.0983  0.1612  0.1112
  399loPI   GL1 6373   5.811  13.528  10.400  0.0501  0.0985  0.2423
  399loPI   GL2 6374   6.025  13.730  10.309  0.2677 -0.2398 -0.0759
  399loPI   C1A 6375   5.774  13.490   9.869  0.1937  0.1546  0.2414
  399loPI   C2A 6376   5.737  13.510   9.409  0.0779 -0.0526  0.3574
  399loPI   C3A 6377   5.612  13.518   9.021 -0.1961 -0.0301 -0.1402
  399loPI   C4A 6378   5.606  13.387   8.535 -0.0970 -0.6158  0.1258
  399loPI   C5A 6379   5.470  13.446   8.094 -0.0208 -0.1009 -0.1544
  399loPI   C6A 6380   5.511  13.576   7.702 -0.1214  0.0706 -0.0995
  399loPI   C1B 6381   6.172  13.819   9.877 -0.2365  0.0709  0.1972
  399loPI   C2B 6382   6.204  13.799   9.424  0.2412 -0.0927  0.2486
  399loPI   C3B 6383   6.085  13.694   9.032  0.2166  0.1609  0.1838
  399loPI   C4B 6384   6.071  13.692   8.580  0.3660 -0.1772  0.3373
  400loPI    C1 6385   1.224   0.754  10.799 -0.2106 -0.0194  0.0796
  400loPI    C2 6386   1.288   0.856  11.180 -0.0318 -0.0375  0.0551
  400loPI    C3 6387   1.191   0.479  11.088  0.0524 -0.0631  0.0702
  400loPI   PO4 6388   1.509   0.903  10.632 -0.0034  0.0145  0.0190
  400loPI   GL1 6389   1.417   0.697  10.313 -0.1295 -0.2380 -0.0703
  400loPI   GL2 6390   1.198   0.427  10.418 -0.0342  0.0472  0.0412
  400loPI   C1A 6391   1.592   0.666   9.865  0.2101 -0.2480 -0.3464
  400loPI   C2A 6392   1.400   0.667   9.460  0.3279 -0.1824  0.0399
  400loPI   C3A 6393   1.553   0.669   9.033 -0.1148 -0.1464 -0.1928
  400loPI   C4A 6394   1.486   0.739   8.618 -0.1426  0.0864  0.1878
  400loPI   C5A 6395   1.448   0.879   8.278 -0.2420 -0.3351  0.0298
  400loPI   C6A 6396   1.154   1.172   8.082  0.3347 -0.1058 -0.1987
  400loPI   C1B 6397   1.114   0.405  10.033  0.2457 -0.1110 -0.1336
  400loPI   C2B 6398   1.026   0.409   9.630  0.1306 -0.4195  0.2393
  400loPI   C3B 6399   1.084   0.502   9.117  0.4809  0.0588 -0.1024
  400loPI   C4B 6400   1.071   0.417   8.830  0.2592  0.5547  0.0581
  401loPI    C1 6401   6.936   7.934  10.385  0.2065 -0.0172  0.0077
  401loPI    C2 6402   6.923   8.062  10.764 -0.2049  0.0487 -0.0248
  401loPI    C3 6403   7.069   7.699  10.680 -0.0155  0.0750  0.1836
  401loPI   PO4 6404   7.024   8.150  10.277  0.1140 -0.5499 -0.1097
  401loPI   GL1 6405   7.063   8.261   9.874 -0.2506 -0.2541  0.5160
  401loPI   GL2 6406   7.051   8.437   9.593  0.0605  0.0480 -0.0291
  401loPI   C1A 6407   7.036   7.951   9.468  0.0417  0.1369 -0.5043
  401loPI   C2A 6408   6.909   7.918   9.034  0.1510 -0.0191 -0.2748
  401loPI   C3A 6409   6.889   8.053   8.681  0.1138 -0.0617  0.0451
  401loPI   C4A 6410   6.762   7.935   8.285  0.1016  0.0276 -0.0210
  401loPI   C5A 6411   6.497   7.871   7.910  0.0612  0.2106 -0.1051
  401loPI   C6A 6412   6.448   7.784   7.450  0.0179  0.1237 -0.1041
  401loPI   C1B 6413   6.957   8.435   9.146  0.3773  0.1348 -0.0165
  401loPI   C2B 6414   6.891   8.505   8.670  0.0884  0.2120 -0.2728
  401loPI   C3B 6415   6.847   8.621   8.228  0.2074 -0.0726 -0.2328
  401loPI   C4B 6416   6.765   8.620   7.702  0.1971  0.0183  0.1900
  402loPI    C1 6417   2.290   5.407  10.862  0.1763 -0.4292 -0.2053
  402loPI    C2 6418   1.984   5.318  11.103  0.1157 -0.0253 -0.1258
  402loPI    C3 6419   2.354   5.203  11.201  0.0301 -0.2690 -0.0794
  402loPI   PO4 6420   2.277   5.419  10.618  0.1147  0.0844  0.0032
  402loPI   GL1 6421   2.150   5.469  10.251 -0.0942 -0.1415 -0.1356
  402loPI   GL2 6422   2.033   5.161  10.237  0.0896  0.1581  0.0196
  402loPI   C1A 6423   2.034   5.717   9.909 -0.1408 -0.1655  0.1500
  402loPI   C2A 6424   1.910   5.590   9.477 -0.0970 -0.1187  0.1861
  402loPI   C3A 6425   1.908   5.649   8.932  0.0102 -0.0359 -0.0007
  402loPI   C4A 6426   2.000   5.711   8.504  0.3072 -0.2087 -0.2398
  402loPI   C5A 6427   2.326   5.486   8.216 -0.0836 -0.2125 -0.0808
  402loPI   C6A 6428   2.369   5.056   8.313 -0.1513 -0.1991  0.0903
  402loPI   C1B 6429   1.967   5.196   9.787 -0.0516 -0.1888 -0.2039
  402loPI   C2B 6430   1.891   5.114   9.398 -0.1463  0.1992  0.0890
  402loPI   C3B 6431   1.885   5.068   8.905  0.0209 -0.0465 -0.1817
  402loPI   C4B 6432   1.895   5.139   8.480 -0.0270  0.1953 -0.1840
  403loPI    C1 6433   9.130   6.646  10.378  0.2656  0.2664 -0.2396
  403loPI    C2 6434   9.481   6.706  10.561  0.0921 -0.0589  0.2189
  403loPI    C3 6435   9.197   6.487  10.739 -0.2458 -0.0315 -0.2660
  403loPI   PO4 6436   9.144   6.706  10.127  0.2443 -0.2313 -0.0631
  403loPI   GL1 6437   9.102   6.863   9.731 -0.1372 -0.1349  0.1449
  403loPI   GL2 6438   9.321   7.057   9.705  0.1280 -0.2477 -0.0416
  403loPI   C1A 6439   8.927   7.027   9.388  0.0385  0.1624  0.0297
  403loPI   C2A 6440   8.860   7.094   8.965  0.1347  0.0430 -0.0869
  403loPI   C3A 6441   8.829   6.891   8.585  0.2673 -0.2790  0.0375
  403loPI   C4A 6442   8.557   6.804   8.180 -0.0974 -0.0717 -0.1429
  403loPI   C5A 6443   8.617   6.634   7.762  0.0929  0.2588 -0.2764
  403loPI   C6A 6444   8.452   6.388   7.508 -0.1745 -0.2356  0.0823
  403loPI   C1B 6445   9.417   7.176   9.268 -0.0042  0.4737 -0.0355
  403loPI   C2B 6446   9.335   7.308   9.011  0.1500 -0.2587 -0.1554
  403loPI   C3B 6447   9.667   7.426   8.827 -0.0575  0.3003  0.0681
  403loPI   C4B 6448   9.833   7.361   8.328 -0.2461  0.2553 -0.0070
  404loPI    C1 6449  13.610  12.851  10.995  0.0405 -0.4158 -0.2127
  404loPI    C2 6450  13.874  12.995  11.259 -0.3820 -0.0377  0.0192
  404loPI    C3 6451  13.857  12.602  11.186 -0.0373 -0.1107  0.3051
  404loPI   PO4 6452  13.651  12.946  10.782  0.0698 -0.2719 -0.0539
  404loPI   GL1 6453  13.586  13.097  10.294  0.0969  0.2776  0.1446
  404loPI   GL2 6454  13.832  12.885  10.222 -0.1698 -0.2702  0.0232
  404loPI   C1A 6455  13.463  13.228  10.037  0.0758 -0.2990 -0.1169
  404loPI   C2A 6456  13.390  13.383   9.654 -0.0050 -0.3391 -0.0908
  404loPI   C3A 6457  13.354  13.207   9.294  0.1483 -0.0068 -0.1234
  404loPI   C4A 6458  13.356  13.206   8.780 -0.2562 -0.0794 -0.1743
  404loPI   C5A 6459  13.457  13.235   8.401 -0.1701  0.1281 -0.1850
  404loPI   C6A 6460  13.946  13.331   8.175 -0.1314  0.1261  0.1673
  404loPI   C1B 6461  13.907  13.026   9.885 -0.3439  0.3613  0.0199
  404loPI   C2B 6462  13.868  13.053   9.404  0.0125  0.0014  0.3159
  404loPI   C3B 6463  13.835  13.075   8.942  0.0060 -0.0433 -0.4406
  404loPI   C4B 6464  13.959  12.928   8.551  0.1778  0.1112 -0.1299
  405loPI    C1 6465   7.303  15.544  10.786  0.1151 -0.0376  0.0615
  405loPI    C2 6466   7.272  15.786  11.103  0.0173 -0.0295  0.0461
  405loPI    C3 6467   7.497  15.456  11.124  0.3805  0.2076 -0.0226
  405loPI   PO4 6468   7.263  15.768  10.572  0.0757  0.0731  0.0203
  405loPI   GL1 6469   7.156  15.802  10.196 -0.3093 -0.1339 -0.0340
  405loPI   GL2 6470   7.080  15.518  10.006 -0.2144  0.0795 -0.0952
  405loPI   C1A 6471   7.151  15.974   9.756 -0.0938  0.3254 -0.0058
  405loPI   C2A 6472   7.070  15.942   9.329 -0.0154 -0.1508 -0.0493
  405loPI   C3A 6473   6.942  15.928   8.936 -0.2799 -0.0995  0.0937
  405loPI   C4A 6474   6.990  15.810   8.452 -0.0610 -0.1580  0.2940
  405loPI   C5A 6475   6.928  15.590   7.955  0.4671 -0.1065  0.1888
  405loPI   C6A 6476   6.868  15.771   7.542  0.2320  0.2120 -0.0295
  405loPI   C1B 6477   7.061  15.440   9.561 -0.0598  0.2810  0.0649
  405loPI   C2B 6478   7.081  15.468   9.081  0.2189  0.2903 -0.0981
  405loPI   C3B 6479   6.981  15.350   8.663  0.0978 -0.3114 -0.0975
  405loPI   C4B 6480   7.084  15.261   8.280  0.0506 -0.0339  0.0090
  406loPI    C1 6481   3.087   7.844  10.635  0.1742  0.3722 -0.0136
  406loPI    C2 6482   3.387   7.611  10.760 -0.0884  0.0298 -0.0060
  406loPI    C3 6483   3.073   7.678  10.998 -0.0508  0.3340 -0.0380
  406loPI   PO4 6484   3.103   7.781  10.305 -0.0928  0.1320 -0.1282
  406loPI   GL1 6485   2.996   7.739   9.914  0.1210  0.1136 -0.0190
  406loPI   GL2 6486   3.284   7.596   9.891  0.0368  0.0455  0.2267
  406loPI   C1A 6487   2.896   7.694   9.497  0.3366 -0.2302 -0.1963
  406loPI   C2A 6488   2.816   7.687   9.021  0.2240 -0.0954 -0.3077
  406loPI   C3A 6489   2.737   7.889   8.662  0.4721  0.0113  0.2481
  406loPI   C4A 6490   2.734   7.669   8.304 -0.0949  0.0716  0.0142
  406loPI   C5A 6491   2.401   7.716   8.028  0.0305  0.3815 -0.2330
  406loPI   C6A 6492   2.182   8.055   7.790  0.1793 -0.1492 -0.2745
  406loPI   C1B 6493   3.324   7.475   9.522  0.2719  0.0792  0.2747
  406loPI   C2B 6494   3.289   7.463   9.075  0.2620 -0.2757  0.0405
  406loPI   C3B 6495   3.113   7.468   8.657 -0.0895  0.2556  0.0768
  406loPI   C4B 6496   3.220   7.507   8.256  0.0682  0.0343 -0.0414
  407loPI    C1 6497   5.804  10.902  10.960  0.1176 -0.0357 -0.2113
  407loPI    C2 6498   6.153  10.812  11.134 -0.1007 -0.2995  0.1015
  407loPI    C3 6499   6.020  11.189  11.136  0.3977 -0.1061 -0.4321
  407loPI   PO4 6500   5.875  10.771  10.619 -0.0047 -0.0594  0.3367
  407loPI   GL1 6501   5.722  11.002  10.364 -0.1331  0.0857 -0.0647
  407loPI   GL2 6502   5.569  10.801  10.102 -0.1411 -0.0412  0.2111
  407loPI   C1A 6503   5.633  11.322   9.981  0.2995  0.0080 -0.0267
  407loPI   C2A 6504   5.632  11.391   9.480 -0.1931  0.0896 -0.1536
  407loPI   C3A 6505   5.677  11.375   9.077 -0.1312 -0.0437 -0.2814
  407loPI   C4A 6506   5.611  11.303   8.654  0.1846  0.1368  0.2260
  407loPI   C5A 6507   5.434  11.396   8.272  0.0536 -0.1827 -0.0460
  407loPI   C6A 6508   5.381  10.864   8.071  0.0640  0.2396  0.0725
  407loPI   C1B 6509   5.630  10.862   9.626  0.2163  0.1195 -0.3447
  407loPI   C2B 6510   5.670  10.884   9.230  0.0051  0.1451  0.3189
  407loPI   C3B 6511   5.619  10.767   8.886 -0.0017 -0.0521  0.0875
  407loPI   C4B 6512   5.673  10.862   8.446 -0.0490  0.2554  0.1242
  408loPI    C1 6513  14.697  18.119  10.889  0.1295 -0.0610  0.0133
  408loPI    C2 6514  14.432  18.008  11.168  0.0624 -0.0957 -0.0639
  408loPI    C3 6515  14.466  18.394  11.066  0.1329 -0.0743  0.0385
  408loPI   PO4 6516  14.565  18.026  10.650 -0.0569 -0.0300 -0.0351
  408loPI   GL1 6517  14.562  18.169  10.248 -0.2003  0.0694 -0.1456
  408loPI   GL2 6518  14.693  17.843  10.200  0.0397 -0.0164  0.1974
  408loPI   C1A 6519  14.268  18.056   9.928 -0.0833 -0.0734  0.2444
  408loPI   C2A 6520  14.359  18.027   9.555  0.1189 -0.2308 -0.1599
  408loPI   C3A 6521  14.322  17.997   9.167  0.0191 -0.2104 -0.0555
  408loPI   C4A 6522  14.301  17.905   8.804 -0.3134  0.3974  0.0636
  408loPI   C5A 6523  14.348  18.010   8.369 -0.0406 -0.0037  0.1075
  408loPI   C6A 6524  14.542  17.785   8.012  0.0429 -0.3296  0.1059
  408loPI   C1B 6525  14.691  17.778   9.754  0.1386 -0.0103  0.0481
  408loPI   C2B 6526  14.764  17.667   9.371 -0.0020  0.2176 -0.0369
  408loPI   C3B 6527  14.767  17.739   8.989 -0.0083 -0.0476 -0.2019
  408loPI   C4B 6528  14.809  17.695   8.587 -0.1881 -0.1340  0.2744
  409loPI    C1 6529   2.258  10.834  10.619 -0.3305  0.0791 -0.1423
  409loPI    C2 6530   2.424  11.164  10.466 -0.0141 -0.0958 -0.1854
  409loPI    C3 6531   2.482  11.071  10.850  0.1634 -0.2648 -0.2513
  409loPI   PO4 6532   2.267  10.666  10.436 -0.0835  0.0942 -0.1409
  409loPI   GL1 6533   2.401  10.413  10.092  0.1461  0.0992  0.2972
  409loPI   GL2 6534   2.503  10.722   9.977  0.0391 -0.3037 -0.3302
  409loPI   C1A 6535   2.072  10.367   9.642  0.2058  0.0225 -0.1343
  409loPI   C2A 6536   1.974  10.450   9.250  0.1083 -0.1627  0.5197
  409loPI   C3A 6537   1.817  10.394   8.873 -0.0020  0.3934  0.1313
  409loPI   C4A 6538   1.895  10.319   8.373 -0.1081  0.1160 -0.0641
  409loPI   C5A 6539   1.805  10.434   7.955  0.1367 -0.0044  0.0056
  409loPI   C6A 6540   1.859  10.923   7.870 -0.1322 -0.0963  0.1726
  409loPI   C1B 6541   2.463  10.655   9.494  0.1851  0.3512  0.2051
  409loPI   C2B 6542   2.363  10.678   9.047  0.0379 -0.0490  0.4873
  409loPI   C3B 6543   2.224  10.630   8.632  0.2422 -0.2209 -0.0345
  409loPI   C4B 6544   2.199  10.674   8.202 -0.4151  0.0590  0.2308
  410loPI    C1 6545   2.210   6.149  10.809  0.2959  0.0308 -0.0617
  410loPI    C2 6546   2.180   5.864  11.089  0.0150  0.1215  0.0035
  410loPI    C3 6547   2.413   6.183  11.152 -0.1363  0.1975  0.1844
  410loPI   PO4 6548   2.241   6.016  10.594  0.0301 -0.0234 -0.0533
  410loPI   GL1 6549   2.078   6.435  10.302  0.3877  0.0508  0.2156
  410loPI   GL2 6550   2.435   6.456  10.280 -0.1212 -0.0811 -0.0848
  410loPI   C1A 6551   2.011   6.342   9.855 -0.1336  0.1402 -0.1077
  410loPI   C2A 6552   2.096   6.185   9.512 -0.1885  0.1561 -0.1570
  410loPI   C3A 6553   2.017   6.195   9.062 -0.1094  0.2456 -0.1598
  410loPI   C4A 6554   1.914   6.226   8.642 -0.0912 -0.5096  0.2085
  410loPI   C5A 6555   2.024   6.379   8.129  0.3194 -0.4577 -0.0368
  410loPI   C6A 6556   1.788   6.272   7.648  0.0378 -0.1048  0.2035
  410loPI   C1B 6557   2.500   6.382   9.901  0.0644 -0.0017 -0.1393
  410loPI   C2B 6558   2.424   6.520   9.400 -0.0031 -0.1533 -0.1869
  410loPI   C3B 6559   2.340   6.551   8.993 -0.1039 -0.0650 -0.0691
  410loPI   C4B 6560   2.368   6.501   8.514 -0.0470  0.2538  0.2080
  411loPI    C1 6561   7.445  10.483  10.682  0.1808  0.2001  0.0639
  411loPI    C2 6562   7.326  10.564  11.056  0.1529  0.3058  0.0324
  411loPI    C3 6563   7.664  10.358  10.994 -0.0034  0.0171  0.1220
  411loPI   PO4 6564   7.182  10.670  10.421 -0.0107  0.1172 -0.0705
  411loPI   GL1 6565   7.427  10.761  10.111  0.0204 -0.1521 -0.0900
  411loPI   GL2 6566   7.102  10.987  10.037  0.0742 -0.1528 -0.0178
  411loPI   C1A 6567   7.537  10.823   9.728  0.2381  0.3251  0.2085
  411loPI   C2A 6568   7.611  10.842   9.383 -0.0920  0.0258  0.0090
  411loPI   C3A 6569   7.509  10.881   9.051  0.1235  0.0384 -0.0462
  411loPI   C4A 6570   7.518  10.904   8.589  0.1187 -0.2139 -0.0891
  411loPI   C5A 6571   7.281  10.826   8.298 -0.2460 -0.1487 -0.0068
  411loPI   C6A 6572   7.223  10.605   7.877 -0.0398 -0.2440  0.1553
  411loPI   C1B 6573   7.134  11.090   9.596  0.1342 -0.0333  0.2485
  411loPI   C2B 6574   7.132  11.185   9.215  0.1447 -0.0608 -0.1513
  411loPI   C3B 6575   6.962  11.045   8.742 -0.1239 -0.2621  0.1618
  411loPI   C4B 6576   6.780  10.898   8.281 -0.0282 -0.2307 -0.0648
  412loPI    C1 6577   1.696   7.080  10.785  0.0227  0.0274  0.0936
  412loPI    C2 6578   1.682   7.315  11.109  0.0216  0.0252  0.0951
  412loPI    C3 6579   1.648   6.919  11.148  0.0683  0.0213  0.0971
  412loPI   PO4 6580   1.873   7.193  10.634 -0.0140  0.1524 -0.1803
  412loPI   GL1 6581   1.992   6.933  10.259  0.4224  0.1714 -0.0685
  412loPI   GL2 6582   2.260   6.907  10.387 -0.1041  0.2005  0.0765
  412loPI   C1A 6583   1.974   6.855   9.830  0.0973 -0.1581  0.3056
  412loPI   C2A 6584   1.937   6.637   9.392  0.0710 -0.0028 -0.0223
  412loPI   C3A 6585   1.867   6.725   8.935  0.2105  0.0581 -0.1670
  412loPI   C4A 6586   1.928   6.802   8.541 -0.3384  0.0162 -0.2932
  412loPI   C5A 6587   2.050   6.966   8.137  0.0011  0.0590 -0.0961
  412loPI   C6A 6588   2.336   7.250   7.804  0.1904  0.1021 -0.0480
  412loPI   C1B 6589   2.445   6.900   9.914 -0.1069  0.0508  0.3434
  412loPI   C2B 6590   2.370   6.990   9.561 -0.0856 -0.1759 -0.1050
  412loPI   C3B 6591   2.453   7.025   9.158  0.1904 -0.0695 -0.0481
  412loPI   C4B 6592   2.370   6.939   8.674  0.0460  0.1537  0.3478
  413loPI    C1 6593   1.722  13.668  10.375 -0.1171  0.1374 -0.2566
  413loPI    C2 6594   1.578  13.648  10.747 -0.2043  0.1542 -0.2893
  413loPI    C3 6595   1.886  13.417  10.640 -0.1102  0.2263 -0.1764
  413loPI   PO4 6596   1.588  13.709  10.234 -0.1910 -0.1496  0.0447
  413loPI   GL1 6597   1.826  13.729   9.864  0.1115  0.2220 -0.4753
  413loPI   GL2 6598   1.847  14.067   9.923  0.0637  0.1021 -0.3148
  413loPI   C1A 6599   1.884  13.511   9.580  0.1091 -0.0102  0.1188
  413loPI   C2A 6600   1.950  13.487   9.065 -0.0595 -0.0180 -0.4590
  413loPI   C3A 6601   1.820  13.486   8.674  0.1043  0.1231  0.0949
  413loPI   C4A 6602   1.837  13.511   8.292 -0.1234 -0.1297 -0.3079
  413loPI   C5A 6603   1.795  13.094   7.987 -0.0666  0.2152  0.3525
  413loPI   C6A 6604   2.015  12.684   7.856 -0.0902 -0.1549 -0.0987
  413loPI   C1B 6605   1.982  14.000   9.477  0.0369 -0.0225  0.2590
  413loPI   C2B 6606   1.896  14.041   9.018  0.0806  0.1232  0.0920
  413loPI   C3B 6607   1.827  14.013   8.548 -0.2615  0.2426  0.0272
  413loPI   C4B 6608   1.932  14.069   8.052  0.2674  0.0142  0.1454
  414loPI    C1 6609   7.451   0.859  10.314 -0.2867 -0.0130  0.2729
  414loPI    C2 6610   7.504   1.230  10.172 -0.0721 -0.1306  0.0375
  414loPI    C3 6611   7.728   1.098  10.476 -0.0383 -0.1210  0.0168
  414loPI   PO4 6612   7.427   0.761  10.062  0.0581  0.1370 -0.0365
  414loPI   GL1 6613   7.553   0.533   9.724 -0.0317  0.2605 -0.3111
  414loPI   GL2 6614   7.645   0.278   9.943 -0.0576 -0.0111  0.1112
  414loPI   C1A 6615   7.454   0.458   9.318 -0.0356  0.1492  0.0226
  414loPI   C2A 6616   7.485   0.383   8.877 -0.2474  0.2075 -0.2149
  414loPI   C3A 6617   7.475   0.289   8.414  0.0482  0.1628  0.2030
  414loPI   C4A 6618   7.465   0.478   8.070  0.0322 -0.0363 -0.1337
  414loPI   C5A 6619   7.650   0.410   7.633 -0.1003 -0.1882 -0.2864
  414loPI   C6A 6620   7.808   0.133   7.356 -0.0655 -0.0894 -0.1775
  414loPI   C1B 6621   7.539   0.006   9.572 -0.0538  0.2358 -0.2645
  414loPI   C2B 6622   7.432  -0.012   9.185  0.0568 -0.1196 -0.1632
  414loPI   C3B 6623   7.533  -0.119   8.777  0.2179 -0.1213  0.0981
  414loPI   C4B 6624   7.530  -0.226   8.327  0.2816 -0.0309  0.2503
  415loPI    C1 6625   9.730  14.404  10.885  0.1979 -0.0148  0.0156
  415loPI    C2 6626  10.013  14.684  10.856  0.1517  0.0370  0.0606
  415loPI    C3 6627   9.871  14.581  11.215 -0.0335  0.1596  0.0242
  415loPI   PO4 6628   9.578  14.488  10.618  0.0230 -0.0334  0.0415
  415loPI   GL1 6629   9.696  14.553  10.256 -0.0030 -0.5204 -0.1404
  415loPI   GL2 6630   9.506  14.862  10.005  0.0651 -0.1954 -0.1490
  415loPI   C1A 6631   9.718  14.367   9.871  0.0365 -0.0326 -0.4144
  415loPI   C2A 6632   9.769  14.303   9.499 -0.1396 -0.0983  0.1655
  415loPI   C3A 6633   9.824  14.319   9.007 -0.1039  0.1298 -0.2491
  415loPI   C4A 6634   9.824  14.337   8.497 -0.2495  0.3481 -0.2924
  415loPI   C5A 6635   9.622  14.589   8.093  0.2741  0.0738 -0.1818
  415loPI   C6A 6636   9.463  14.888   7.885 -0.2914  0.0507  0.0647
  415loPI   C1B 6637   9.694  14.800   9.593 -0.2982  0.0783  0.2922
  415loPI   C2B 6638   9.709  14.822   9.216 -0.0737 -0.2682 -0.0820
  415loPI   C3B 6639   9.758  14.839   8.850 -0.4132 -0.1974  0.2135
  415loPI   C4B 6640   9.854  14.848   8.422  0.0965 -0.0986 -0.3893
  416loPI    C1 6641   8.158   8.739  10.538 -0.1651 -0.4865 -0.2043
  416loPI    C2 6642   7.995   8.730  10.903  0.0174  0.2718 -0.0867
  416loPI    C3 6643   8.369   8.597  10.847 -0.0192  0.1324 -0.0056
  416loPI   PO4 6644   8.074   8.975  10.460  0.0074 -0.0504 -0.2052
  416loPI   GL1 6645   8.119   9.172  10.164  0.0576  0.0985  0.4859
  416loPI   GL2 6646   8.100   8.908   9.970 -0.6420 -0.0136 -0.0594
  416loPI   C1A 6647   7.934   9.604   9.858  0.0923  0.1423 -0.0376
  416loPI   C2A 6648   7.982   9.523   9.377  0.0103  0.3258  0.1402
  416loPI   C3A 6649   7.971   9.611   8.920 -0.4215 -0.1143 -0.0335
  416loPI   C4A 6650   7.922   9.640   8.479 -0.3656  0.0545  0.1766
  416loPI   C5A 6651   8.011   9.595   8.104  0.0889 -0.1615 -0.2533
  416loPI   C6A 6652   7.926   9.659   7.682 -0.1831  0.1901 -0.0048
  416loPI   C1B 6653   7.965   9.049   9.562 -0.1659  0.1665  0.3332
  416loPI   C2B 6654   7.961   9.051   9.095  0.1142  0.1698  0.3584
  416loPI   C3B 6655   7.948   9.112   8.694 -0.0231  0.1685  0.1454
  416loPI   C4B 6656   7.905   9.171   8.328 -0.0053  0.3623  0.3272
  417loPI    C1 6657   7.729   3.051  10.177  0.1202  0.5419  0.2307
  417loPI    C2 6658   8.128   3.073  10.185  0.1781 -0.0811 -0.1857
  417loPI    C3 6659   7.937   2.825  10.433  0.0512  0.1482 -0.0505
  417loPI   PO4 6660   7.665   3.079   9.859  0.0445 -0.0470  0.2552
  417loPI   GL1 6661   7.418   3.350   9.626 -0.0573 -0.0176  0.0081
  417loPI   GL2 6662   7.237   3.672   9.623  0.4003  0.1085  0.1532
  417loPI   C1A 6663   7.140   3.381   9.258  0.2088  0.0953 -0.1656
  417loPI   C2A 6664   7.033   2.932   9.053  0.1764 -0.0535 -0.2325
  417loPI   C3A 6665   7.123   2.734   8.681  0.0580  0.0759  0.0045
  417loPI   C4A 6666   7.278   2.745   8.294  0.0853 -0.0903 -0.3074
  417loPI   C5A 6667   7.207   2.949   7.854 -0.0581 -0.0032 -0.1860
  417loPI   C6A 6668   7.337   3.303   7.535 -0.2372 -0.1776 -0.2650
  417loPI   C1B 6669   7.593   3.682   9.345  0.0110 -0.1576 -0.3073
  417loPI   C2B 6670   7.631   3.818   8.884  0.0512 -0.0914  0.2222
  417loPI   C3B 6671   7.614   3.653   8.483  0.4616  0.5865 -0.0405
  417loPI   C4B 6672   7.441   3.855   8.015  0.2646  0.0027  0.0910
  418loPI    C1 6673  18.205  15.332  10.711  0.0637  0.1783  0.2913
  418loPI    C2 6674  18.598  15.321  10.783  0.0630  0.0861  0.2819
  418loPI    C3 6675  18.372  15.001  10.861  0.0254  0.0634  0.0848
  418loPI   PO4 6676  18.234  15.460  10.500  0.1148  0.2181  0.1736
  418loPI   GL1 6677  18.091  15.328  10.109 -0.0323 -0.0423 -0.1652
  418loPI   GL2 6678  18.361  15.491   9.984 -0.2270 -0.1628 -0.2209
  418loPI   C1A 6679  18.057  15.269   9.634 -0.0316  0.2112  0.0603
  418loPI   C2A 6680  18.085  15.409   9.219 -0.0798  0.1289 -0.2610
  418loPI   C3A 6681  17.928  15.259   8.837  0.1615  0.0568 -0.2218
  418loPI   C4A 6682  17.730  15.294   8.432 -0.0097 -0.0677 -0.3200
  418loPI   C5A 6683  17.186  15.365   8.225  0.0827  0.3698  0.0494
  418loPI   C6A 6684  16.957  15.314   7.878  0.1841  0.1845  0.1990
  418loPI   C1B 6685  18.439  15.544   9.583 -0.0672  0.2568 -0.0771
  418loPI   C2B 6686  18.525  15.597   9.090 -0.2426 -0.0610  0.3300
  418loPI   C3B 6687  18.370  15.554   8.675 -0.2550  0.0892  0.3911
  418loPI   C4B 6688  18.276  15.510   8.180  0.0129 -0.0284  0.2941
  419loPI    C1 6689  17.325  13.466  11.082 -0.1460 -0.1561  0.0640
  419loPI    C2 6690  17.715  13.437  11.166 -0.1273 -0.1288 -0.0123
  419loPI    C3 6691  17.462  13.585  11.438 -0.1035 -0.2626  0.0835
  419loPI   PO4 6692  17.286  13.358  10.810  0.3635  0.2163 -0.0175
  419loPI   GL1 6693  17.187  13.451  10.441  0.1792  0.1178  0.3912
  419loPI   GL2 6694  17.430  13.298  10.240  0.1207 -0.0537  0.0831
  419loPI   C1A 6695  16.948  13.284  10.082  0.2762 -0.0090 -0.0271
  419loPI   C2A 6696  17.090  13.222   9.718  0.2880 -0.0628  0.1660
  419loPI   C3A 6697  17.092  13.257   9.274 -0.0609 -0.1609 -0.0353
  419loPI   C4A 6698  17.087  13.256   8.904  0.0020  0.1578  0.2567
  419loPI   C5A 6699  16.859  13.280   8.463 -0.2183  0.0569 -0.0034
  419loPI   C6A 6700  16.739  13.274   8.039 -0.0996 -0.0139  0.1503
  419loPI   C1B 6701  17.531  13.442   9.754 -0.0486  0.0517  0.2486
  419loPI   C2B 6702  17.527  13.563   9.381 -0.0138 -0.0633  0.1146
  419loPI   C3B 6703  17.564  13.546   8.926  0.0988  0.2052  0.0377
  419loPI   C4B 6704  17.489  13.619   8.475 -0.1588  0.2010  0.0109
  420loPI    C1 6705   6.704  13.009  10.760 -0.3644 -0.2351  0.2703
  420loPI    C2 6706   6.996  13.228  10.925 -0.1378 -0.2166 -0.1422
  420loPI    C3 6707   6.794  12.964  11.147  0.1435 -0.1782  0.1664
  420loPI   PO4 6708   6.752  13.087  10.529 -0.1806 -0.2220  0.1139
  420loPI   GL1 6709   6.925  12.852  10.297  0.0885 -0.0020 -0.0643
  420loPI   GL2 6710   7.193  12.737  10.194  0.0223 -0.3451 -0.0034
  420loPI   C1A 6711   6.574  13.007   9.933 -0.1439  0.0165  0.1093
  420loPI   C2A 6712   6.621  12.976   9.598  0.3673  0.0825  0.0981
  420loPI   C3A 6713   6.611  12.896   9.147 -0.0016 -0.0091  0.2785
  420loPI   C4A 6714   6.569  12.937   8.671 -0.0793  0.3944 -0.0729
  420loPI   C5A 6715   6.581  12.810   8.337 -0.0537 -0.3501  0.1554
  420loPI   C6A 6716   6.727  12.598   8.058 -0.0755 -0.0181  0.1735
  420loPI   C1B 6717   7.083  12.691   9.736 -0.0962  0.1589 -0.0592
  420loPI   C2B 6718   7.083  12.766   9.304 -0.0101  0.2069 -0.2526
  420loPI   C3B 6719   7.015  12.623   8.894  0.4826 -0.0156  0.0858
  420loPI   C4B 6720   7.027  12.509   8.464 -0.2189  0.0400 -0.0727
  421loPI    C1 6721  10.165   0.655  10.544  0.0279 -0.1991  0.1538
  421loPI    C2 6722  10.352   0.555  10.883 -0.0786  0.0734  0.2954
  421loPI    C3 6723  10.465   0.881  10.681 -0.0616 -0.0496  0.1043
  421loPI   PO4 6724  10.238   0.417  10.342 -0.1226 -0.2321  0.3342
  421loPI   GL1 6725  10.317   0.265   9.888  0.1356 -0.0103 -0.2310
  421loPI   GL2 6726  10.090   0.433   9.804 -0.0303 -0.0353 -0.1023
  421loPI   C1A 6727  10.600   0.262   9.572 -0.5658 -0.2380  0.0553
  421loPI   C2A 6728  10.586   0.175   9.153  0.3100 -0.2207  0.0049
  421loPI   C3A 6729  10.723   0.158   8.753 -0.1038  0.1464  0.1383
  421loPI   C4A 6730  10.722   0.198   8.313 -0.1094 -0.0925 -0.3563
  421loPI   C5A 6731  10.640   0.024   7.904 -0.2480  0.0397  0.3882
  421loPI   C6A 6732  10.858   0.078   7.516  0.0185 -0.2956  0.1532
  421loPI   C1B 6733  10.200   0.516   9.354 -0.2575 -0.3168 -0.0077
  421loPI   C2B 6734  10.340   0.535   8.940 -0.2522 -0.1442 -0.4581
  421loPI   C3B 6735  10.270   0.342   8.566  0.2523  0.2841 -0.1396
  421loPI   C4B 6736  10.211   0.412   8.110  0.0383 -0.0226 -0.3186
  422loPI    C1 6737   0.385  11.448  10.839  0.1930 -0.0287 -0.0138
  422loPI    C2 6738   0.386  11.504  11.235 -0.3236  0.0241 -0.0140
  422loPI    C3 6739   0.269  11.153  11.083 -0.0175 -0.0350 -0.1193
  422loPI   PO4 6740   0.233  11.547  10.705 -0.4262  0.0510  0.0613
  422loPI   GL1 6741   0.085  11.631  10.281 -0.0165  0.1515 -0.1455
  422loPI   GL2 6742   0.090  11.887  10.145  0.0015 -0.1120 -0.0578
  422loPI   C1A 6743   0.181  11.484   9.788 -0.0299  0.0463 -0.0110
  422loPI   C2A 6744   0.223  11.450   9.466  0.0720  0.1068  0.0997
  422loPI   C3A 6745   0.158  11.472   9.007 -0.0386  0.1711  0.0926
  422loPI   C4A 6746   0.011  11.481   8.723  0.1156 -0.1264 -0.0731
  422loPI   C5A 6747   0.050  11.468   8.270  0.0595  0.2040  0.1091
  422loPI   C6A 6748  -0.217  11.711   8.045 -0.4424  0.0220  0.4104
  422loPI   C1B 6749   0.183  11.956   9.733 -0.0355 -0.2411  0.0126
  422loPI   C2B 6750   0.235  11.907   9.384  0.1828 -0.1256 -0.2250
  422loPI   C3B 6751   0.146  11.947   8.915 -0.3964  0.3336  0.0300
  422loPI   C4B 6752  -0.052  12.018   8.488  0.0181  0.1396  0.1013
  423loPI    C1 6753   2.481   4.747  11.298 -0.1502  0.2085  0.1047
  423loPI    C2 6754   2.772   4.487  11.390 -0.1993  0.1549  0.1089
  423loPI    C3 6755   2.441   4.505  11.614 -0.2156  0.1898  0.0821
  423loPI   PO4 6756   2.530   4.789  11.045  0.1298  0.0844  0.0987
  423loPI   GL1 6757   2.568   4.713  10.596  0.0337  0.0407 -0.0353
  423loPI   GL2 6758   2.488   5.040  10.386 -0.0263  0.2184  0.0667
  423loPI   C1A 6759   2.301   4.563  10.234 -0.2079 -0.1464  0.1249
  423loPI   C2A 6760   2.408   4.409   9.797 -0.1332  0.4825  0.0793
  423loPI   C3A 6761   2.370   4.328   9.320 -0.1725  0.1272 -0.2139
  423loPI   C4A 6762   2.323   4.324   9.025 -0.2568  0.0946  0.0903
  423loPI   C5A 6763   2.216   4.325   8.538 -0.0303  0.2899 -0.1173
  423loPI   C6A 6764   2.360   4.573   8.221  0.0160 -0.1267  0.0115
  423loPI   C1B 6765   2.434   4.937   9.912 -0.2100 -0.1739 -0.1387
  423loPI   C2B 6766   2.488   4.854   9.524  0.2578  0.2664 -0.0320
  423loPI   C3B 6767   2.364   4.856   9.130  0.0065  0.1476 -0.0313
  423loPI   C4B 6768   2.288   4.872   8.744 -0.0394  0.0127  0.2043
  424loPI    C1 6769  16.792   9.496  10.833 -0.1895 -0.0577  0.3464
  424loPI    C2 6770  17.145   9.652  10.940 -0.0295 -0.1386 -0.0488
  424loPI    C3 6771  16.947   9.412  11.192  0.2832 -0.2350  0.1091
  424loPI   PO4 6772  16.639   9.661  10.678 -0.2788 -0.0051 -0.0378
  424loPI   GL1 6773  16.628  10.004  10.279  0.0324  0.1476 -0.0266
  424loPI   GL2 6774  16.940   9.803  10.301 -0.0533 -0.0944  0.0032
  424loPI   C1A 6775  16.643   9.868   9.841 -0.2030 -0.1601  0.2052
  424loPI   C2A 6776  16.600   9.864   9.449 -0.3582  0.1766  0.0628
  424loPI   C3A 6777  16.640   9.865   9.064  0.1443 -0.0852  0.3215
  424loPI   C4A 6778  16.551   9.907   8.653  0.0147 -0.0584 -0.0633
  424loPI   C5A 6779  16.649   9.914   8.164 -0.1124  0.1082  0.0564
  424loPI   C6A 6780  17.103   9.754   8.125 -0.1490 -0.1551 -0.0863
  424loPI   C1B 6781  17.079   9.595   9.924  0.1927 -0.1179  0.2380
  424loPI   C2B 6782  17.031   9.611   9.497 -0.3412 -0.1377  0.3429
  424loPI   C3B 6783  17.138   9.663   9.028  0.1663 -0.0101 -0.1578
  424loPI   C4B 6784  17.012   9.573   8.578 -0.2944  0.0298  0.0752
  425loPI    C1 6785   7.629   4.220  10.158 -0.3162 -0.0518  0.0174
  425loPI    C2 6786   7.709   3.980  10.468 -0.1179  0.0767  0.0678
  425loPI    C3 6787   7.864   4.348  10.456 -0.3072  0.1532 -0.0763
  425loPI   PO4 6788   7.397   4.186  10.130 -0.2168  0.2126 -0.2162
  425loPI   GL1 6789   7.263   4.145   9.685 -0.1425  0.0450 -0.1424
  425loPI   GL2 6790   7.095   4.380   9.813  0.3056 -0.0667 -0.3588
  425loPI   C1A 6791   7.201   3.933   9.207  0.2936 -0.0294  0.0573
  425loPI   C2A 6792   7.141   3.602   8.874  0.1080  0.1229 -0.0880
  425loPI   C3A 6793   7.124   3.680   8.384 -0.1802 -0.0305 -0.2332
  425loPI   C4A 6794   6.925   3.947   8.123 -0.5131  0.1686 -0.4430
  425loPI   C5A 6795   6.880   4.183   7.738 -0.4567 -0.1228 -0.2137
  425loPI   C6A 6796   6.974   4.523   7.558  0.3045  0.0077  0.0529
  425loPI   C1B 6797   7.030   4.510   9.339  0.2075  0.0548 -0.2010
  425loPI   C2B 6798   6.796   4.209   9.072  0.1006  0.0921  0.0467
  425loPI   C3B 6799   6.469   4.250   8.809  0.0105 -0.0883 -0.1339
  425loPI   C4B 6800   6.535   4.233   8.372 -0.1851  0.0303 -0.0302
  426loPI    C1 6801   8.344   4.016   9.865  0.0027  0.0681 -0.1667
  426loPI    C2 6802   8.449   3.832  10.204  0.1177  0.1103 -0.1791
  426loPI    C3 6803   8.069   3.943  10.146  0.0104 -0.2769 -0.2445
  426loPI   PO4 6804   8.411   3.803   9.628  0.0505 -0.0838 -0.1407
  426loPI   GL1 6805   8.217   3.601   9.379 -0.1346  0.2682 -0.0335
  426loPI   GL2 6806   8.398   3.305   9.549  0.0408  0.0589  0.2472
  426loPI   C1A 6807   7.984   3.578   9.091 -0.0698  0.0833  0.3071
  426loPI   C2A 6808   8.065   3.332   8.717  0.1324  0.1065  0.4917
  426loPI   C3A 6809   8.069   3.401   8.417 -0.2851 -0.1161  0.1691
  426loPI   C4A 6810   7.872   3.473   7.960 -0.0581  0.1897  0.1662
  426loPI   C5A 6811   7.747   3.605   7.546 -0.3259 -0.2314  0.2025
  426loPI   C6A 6812   7.825   3.972   7.213  0.0899  0.0017  0.2115
  426loPI   C1B 6813   8.293   3.183   9.110 -0.0087 -0.1047  0.2938
  426loPI   C2B 6814   8.486   3.068   8.874  0.1312 -0.1392 -0.0433
  426loPI   C3B 6815   8.502   3.077   8.418  0.0762  0.4672 -0.0522
  426loPI   C4B 6816   8.565   2.773   8.142 -0.0118 -0.0361 -0.2782
  427loPI    C1 6817   1.538  15.423  10.552 -0.1818  0.2088 -0.0148
  427loPI    C2 6818   1.348  15.132  10.352 -0.3999  0.2862  0.0767
  427loPI    C3 6819   1.176  15.301  10.672 -0.0146  0.0966  0.3938
  427loPI   PO4 6820   1.635  15.576  10.343  0.4899  0.0333 -0.0489
  427loPI   GL1 6821   1.342  15.546   9.999  0.3184 -0.0980 -0.1181
  427loPI   GL2 6822   1.523  15.285   9.927 -0.0431 -0.0477  0.2107
  427loPI   C1A 6823   1.498  15.860   9.721 -0.0400 -0.0729 -0.1720
  427loPI   C2A 6824   1.496  15.964   9.256 -0.0512  0.0368  0.2984
  427loPI   C3A 6825   1.510  15.801   8.900  0.2186  0.1750 -0.2491
  427loPI   C4A 6826   1.273  15.945   8.417  0.1807 -0.0622 -0.0223
  427loPI   C5A 6827   1.158  15.863   8.042  0.0850 -0.0542 -0.1123
  427loPI   C6A 6828   1.071  15.716   7.755 -0.1438  0.1248  0.2286
  427loPI   C1B 6829   1.469  15.324   9.578 -0.1295 -0.2055  0.0670
  427loPI   C2B 6830   1.563  15.368   9.177  0.1108  0.1945  0.3209
  427loPI   C3B 6831   1.449  15.360   8.717 -0.0814 -0.2465 -0.1345
  427loPI   C4B 6832   1.290  15.439   8.281  0.0216 -0.1671  0.0580
  428loPI    C1 6833   6.897  15.973  10.806  0.1300  0.0276  0.0879
  428loPI    C2 6834   6.512  15.865  10.787  0.1125  0.1451 -0.3625
  428loPI    C3 6835   6.797  15.586  10.820 -0.0101  0.0628  0.0789
  428loPI   PO4 6836   6.773  16.299  10.779 -0.0731  0.1524 -0.1699
  428loPI   GL1 6837   6.663  16.479  10.410 -0.2214  0.0847 -0.0089
  428loPI   GL2 6838   6.865  16.632  10.236  0.2003  0.0583  0.0993
  428loPI   C1A 6839   6.640  16.288   9.939  0.3650 -0.1669  0.1161
  428loPI   C2A 6840   6.677  16.226   9.571  0.0881 -0.2604 -0.1382
  428loPI   C3A 6841   6.573  16.253   9.260  0.1012  0.2039  0.1902
  428loPI   C4A 6842   6.537  16.196   8.956  0.2096 -0.2378 -0.5672
  428loPI   C5A 6843   6.510  16.102   8.446  0.1953 -0.0751 -0.2679
  428loPI   C6A 6844   6.678  16.042   8.104  0.1843 -0.0653  0.1728
  428loPI   C1B 6845   7.015  16.512   9.731 -0.1326  0.0134 -0.0737
  428loPI   C2B 6846   7.065  16.435   9.346 -0.0648 -0.0900  0.0879
  428loPI   C3B 6847   6.970  16.414   8.942  0.0726  0.1420 -0.0578
  428loPI   C4B 6848   7.029  16.388   8.514 -0.0417  0.1700  0.1335
  429loPI    C1 6849   5.517   6.158  10.901  0.0312 -0.2564 -0.1679
  429loPI    C2 6850   5.485   5.779  11.025  0.0951 -0.2247 -0.0527
  429loPI    C3 6851   5.768   6.016  11.177 -0.0346 -0.0890 -0.0200
  429loPI   PO4 6852   5.381   6.179  10.701 -0.1931  0.0521 -0.2104
  429loPI   GL1 6853   5.176   6.121  10.303 -0.2174  0.2375  0.1789
  429loPI   GL2 6854   5.486   6.119  10.088 -0.1343  0.0280  0.0191
  429loPI   C1A 6855   5.066   5.917   9.914 -0.0937 -0.1120  0.0949
  429loPI   C2A 6856   5.042   5.959   9.440  0.0142  0.2819  0.1311
  429loPI   C3A 6857   5.048   5.918   8.957  0.0295 -0.0480  0.0947
  429loPI   C4A 6858   5.101   5.870   8.580 -0.1174  0.2208 -0.0939
  429loPI   C5A 6859   5.026   5.904   8.081  0.0627  0.1370  0.0930
  429loPI   C6A 6860   5.273   6.157   7.759  0.2178 -0.2888 -0.1040
  429loPI   C1B 6861   5.517   6.129   9.640  0.3417 -0.0814 -0.1381
  429loPI   C2B 6862   5.491   6.192   9.184  0.0935 -0.2304 -0.0573
  429loPI   C3B 6863   5.565   6.141   8.706 -0.0622 -0.2478  0.2849
  429loPI   C4B 6864   5.426   6.140   8.310  0.3039  0.3155  0.4183
  430loPI    C1 6865   8.153   2.177  10.122 -0.3433  0.2518 -0.1799
  430loPI    C2 6866   7.962   2.031  10.441 -0.1564  0.2392 -0.0723
  430loPI    C3 6867   8.207   2.344  10.481  0.0398  0.0992 -0.1618
  430loPI   PO4 6868   7.897   2.106   9.969  0.1346 -0.0172  0.1596
  430loPI   GL1 6869   7.783   2.026   9.603 -0.1245 -0.4074 -0.1337
  430loPI   GL2 6870   7.447   2.119   9.637 -0.0904 -0.1374  0.3575
  430loPI   C1A 6871   7.898   1.787   9.301 -0.0839 -0.2547  0.1268
  430loPI   C2A 6872   7.825   1.800   8.834 -0.1719  0.1116  0.0667
  430loPI   C3A 6873   7.847   1.587   8.449  0.0491 -0.1128 -0.3940
  430loPI   C4A 6874   7.869   1.704   7.981  0.1822 -0.0170  0.1485
  430loPI   C5A 6875   7.679   1.998   7.619 -0.1757  0.1423 -0.1265
  430loPI   C6A 6876   7.457   1.998   7.147  0.0613 -0.4102 -0.2991
  430loPI   C1B 6877   7.468   2.104   9.174  0.0114  0.2461 -0.0861
  430loPI   C2B 6878   7.479   2.133   8.835  0.1480 -0.0131 -0.1175
  430loPI   C3B 6879   7.233   2.292   8.503 -0.0074 -0.1652 -0.3026
  430loPI   C4B 6880   6.946   2.323   8.435 -0.2757 -0.0292 -0.0972
  431loPI    C1 6881  13.564   1.953  10.817 -0.1454  0.0793 -0.1282
  431loPI    C2 6882  13.183   2.075  10.821 -0.2780 -0.3236  0.0111
  431loPI    C3 6883  13.337   1.887  11.139  0.0276 -0.1992 -0.0593
  431loPI   PO4 6884  13.630   1.862  10.644 -0.0256  0.0526 -0.1201
  431loPI   GL1 6885  13.756   1.934  10.300  0.0302 -0.2149  0.2646
  431loPI   GL2 6886  13.647   2.092  10.110  0.0577 -0.0018  0.1040
  431loPI   C1A 6887  14.123   1.916   9.990  0.0002 -0.0613  0.3989
  431loPI   C2A 6888  14.179   1.921   9.583  0.2924  0.0676  0.1659
  431loPI   C3A 6889  14.333   1.760   9.246 -0.1013 -0.0401  0.0846
  431loPI   C4A 6890  14.325   1.747   8.880  0.0237 -0.2102  0.2020
  431loPI   C5A 6891  14.414   1.649   8.514  0.1002 -0.0987  0.1779
  431loPI   C6A 6892  14.858   1.534   8.192  0.1531 -0.0146 -0.0963
  431loPI   C1B 6893  13.736   2.086   9.698 -0.0520 -0.1633  0.2546
  431loPI   C2B 6894  13.865   2.014   9.232 -0.1368  0.0956 -0.1477
  431loPI   C3B 6895  13.881   1.952   8.769  0.1843  0.1672 -0.1572
  431loPI   C4B 6896  13.952   1.845   8.332 -0.2705  0.0809  0.0431
  432loPI    C1 6897   3.793  10.575  10.977  0.2387  0.0542  0.1158
  432loPI    C2 6898   4.090  10.517  11.239  0.3760  0.3756  0.0359
  432loPI    C3 6899   3.832  10.819  11.291  0.0069  0.0486  0.1507
  432loPI   PO4 6900   3.932  10.554  10.651 -0.2012  0.2084 -0.0395
  432loPI   GL1 6901   3.976  10.437  10.146  0.2063  0.0951 -0.0190
  432loPI   GL2 6902   3.650  10.406  10.143 -0.0026 -0.0348  0.0801
  432loPI   C1A 6903   3.984  10.467   9.700  0.3708  0.2215 -0.1648
  432loPI   C2A 6904   3.700  10.455   9.446 -0.5284 -0.0046  0.3594
  432loPI   C3A 6905   3.752  10.366   9.067  0.4324 -0.2877 -0.0264
  432loPI   C4A 6906   3.656  10.473   8.676 -0.1166  0.1510  0.0320
  432loPI   C5A 6907   3.610  10.512   8.274 -0.1207  0.2066  0.1497
  432loPI   C6A 6908   3.869  10.477   7.917  0.1237  0.2163  0.3988
  432loPI   C1B 6909   3.468  10.714   9.794 -0.1095 -0.0354 -0.1359
  432loPI   C2B 6910   3.271  10.739   9.384  0.0966 -0.2529 -0.2248
  432loPI   C3B 6911   3.288  10.583   8.999 -0.3565 -0.3850  0.4292
  432loPI   C4B 6912   3.175  10.757   8.562 -0.2745  0.0341 -0.1247
  433loPI    C1 6913   1.213  13.953  10.518 -0.0294 -0.0016 -0.1235
  433loPI    C2 6914   0.959  14.048  10.812  0.1834  0.1388  0.0179
  433loPI    C3 6915   1.123  13.683  10.799  0.0794  0.0924  0.0028
  433loPI   PO4 6916   1.092  14.030  10.365  0.2463 -0.0120  0.1570
  433loPI   GL1 6917   0.916  13.814  10.079 -0.0209  0.0788  0.0928
  433loPI   GL2 6918   1.178  13.715   9.937  0.0311  0.0399  0.0955
  433loPI   C1A 6919   0.947  14.042   9.707  0.0200 -0.1411 -0.2619
  433loPI   C2A 6920   0.969  14.116   9.304  0.3421 -0.2295 -0.2028
  433loPI   C3A 6921   1.022  14.137   8.826 -0.0655  0.0492 -0.0088
  433loPI   C4A 6922   0.951  14.039   8.339 -0.0531  0.0303 -0.1587
  433loPI   C5A 6923   1.315  13.964   8.072 -0.0923  0.0097 -0.0005
  433loPI   C6A 6924   1.475  13.560   7.918  0.1608 -0.0788 -0.0652
  433loPI   C1B 6925   1.419  13.761   9.622  0.1491  0.0611 -0.0173
  433loPI   C2B 6926   1.505  13.741   9.233  0.0038  0.2652 -0.1240
  433loPI   C3B 6927   1.405  13.841   8.895  0.0290 -0.0785 -0.0008
  433loPI   C4B 6928   1.399  13.717   8.525  0.2460  0.0846 -0.1004
  434loPI    C1 6929  17.947   2.717  11.220  0.2711 -0.1861  0.0879
  434loPI    C2 6930  17.767   2.361  11.257  0.0268 -0.0522  0.2149
  434loPI    C3 6931  17.826   2.590  11.580  0.0683  0.0782  0.1158
  434loPI   PO4 6932  18.134   2.616  10.990  0.2030  0.1125  0.0618
  434loPI   GL1 6933  18.025   2.533  10.582  0.0325 -0.0068  0.2635
  434loPI   GL2 6934  17.938   2.696  10.361 -0.1489  0.1712  0.0656
  434loPI   C1A 6935  17.968   2.245  10.162 -0.1915  0.1237  0.0113
  434loPI   C2A 6936  17.953   2.115   9.729 -0.2807 -0.1723 -0.1010
  434loPI   C3A 6937  17.887   2.202   9.311  0.0248 -0.0417 -0.2324
  434loPI   C4A 6938  17.879   2.213   8.842 -0.0813 -0.0900  0.0330
  434loPI   C5A 6939  18.075   2.369   8.391  0.3224  0.1412 -0.0639
  434loPI   C6A 6940  18.534   2.432   8.194  0.2481 -0.0240  0.0129
  434loPI   C1B 6941  17.898   2.941  10.004  0.1231 -0.0137 -0.2149
  434loPI   C2B 6942  17.858   2.855   9.469 -0.0077 -0.0067 -0.1045
  434loPI   C3B 6943  17.998   2.641   9.020  0.1216  0.0486  0.1302
  434loPI   C4B 6944  17.934   2.807   8.588 -0.0218 -0.0752  0.0919
  435loPI    C1 6945   1.174   2.991  10.873 -0.1606 -0.0182  0.2034
  435loPI    C2 6946   1.569   2.937  10.899 -0.1839 -0.1265  0.3437
  435loPI    C3 6947   1.328   2.784  11.179 -0.2967  0.2517  0.4589
  435loPI   PO4 6948   1.143   3.003  10.664 -0.0935  0.2472  0.0591
  435loPI   GL1 6949   0.988   3.025  10.227  0.1079 -0.0200  0.6346
  435loPI   GL2 6950   1.235   2.864  10.151  0.0445  0.0597  0.1414
  435loPI   C1A 6951   0.914   3.093   9.781  0.0538  0.3427  0.1335
  435loPI   C2A 6952   1.049   3.036   9.314 -0.1687  0.0751  0.4147
  435loPI   C3A 6953   0.948   3.084   8.929 -0.0223 -0.0118  0.2091
  435loPI   C4A 6954   0.892   2.975   8.396  0.2689 -0.3081 -0.1582
  435loPI   C5A 6955   1.220   2.865   8.058 -0.1787 -0.1837  0.0396
  435loPI   C6A 6956   1.643   2.703   7.892 -0.1297  0.2637 -0.3558
  435loPI   C1B 6957   1.452   2.856   9.833  0.2982  0.0319 -0.0323
  435loPI   C2B 6958   1.405   2.699   9.448 -0.1092 -0.1075 -0.1529
  435loPI   C3B 6959   1.514   2.844   8.962  0.1584  0.0104 -0.0729
  435loPI   C4B 6960   1.410   2.794   8.528  0.2893 -0.3033  0.1663
  436loPI    C1 6961   1.977  15.389  10.769  0.1056  0.1073  0.0100
  436loPI    C2 6962   1.812  15.035  10.851  0.1980  0.0269 -0.1460
  436loPI    C3 6963   1.659  15.368  11.010 -0.0065 -0.0632 -0.1501
  436loPI   PO4 6964   2.105  15.372  10.635 -0.1392 -0.0896 -0.0126
  436loPI   GL1 6965   2.262  15.349  10.287 -0.2057 -0.0782 -0.1347
  436loPI   GL2 6966   2.026  15.490  10.137 -0.1900 -0.1890  0.0014
  436loPI   C1A 6967   2.466  15.334   9.906  0.1489 -0.0733 -0.1430
  436loPI   C2A 6968   2.401  15.236   9.511 -0.1689 -0.0350 -0.0561
  436loPI   C3A 6969   2.396  15.261   9.047  0.0867  0.2700 -0.1018
  436loPI   C4A 6970   2.297  15.293   8.657  0.0292  0.0951 -0.0483
  436loPI   C5A 6971   2.553  15.491   8.401  0.0789 -0.1889  0.0179
  436loPI   C6A 6972   2.913  15.430   8.137 -0.4447  0.0777  0.1341
  436loPI   C1B 6973   2.053  15.549   9.714  0.2790 -0.0227 -0.0530
  436loPI   C2B 6974   1.972  15.726   9.278 -0.2684 -0.0327 -0.0037
  436loPI   C3B 6975   1.935  15.547   8.840 -0.0116 -0.0253 -0.1854
  436loPI   C4B 6976   1.870  15.593   8.514  0.1165  0.0940 -0.0114
  437loPI    C1 6977  15.837   5.996  10.735 -0.0732  0.2205  0.1097
  437loPI    C2 6978  15.628   5.852  11.044 -0.2034  0.0929 -0.0357
  437loPI    C3 6979  15.878   6.161  11.097 -0.3910  0.2155  0.1502
  437loPI   PO4 6980  15.654   5.975  10.456  0.1030 -0.4260  0.0019
  437loPI   GL1 6981  15.506   6.178  10.223  0.2793 -0.0487 -0.0653
  437loPI   GL2 6982  15.779   6.068   9.964 -0.0662 -0.0742 -0.4408
  437loPI   C1A 6983  15.370   6.139   9.764 -0.0383 -0.2073 -0.0247
  437loPI   C2A 6984  15.651   6.223   9.440  0.3041  0.2022  0.1639
  437loPI   C3A 6985  15.694   6.306   9.040 -0.2242  0.0015  0.0020
  437loPI   C4A 6986  15.758   6.097   8.633 -0.0616  0.2264 -0.3685
  437loPI   C5A 6987  15.785   6.184   8.269 -0.1718  0.1887  0.0712
  437loPI   C6A 6988  15.551   6.420   8.018  0.0847 -0.1259 -0.2240
  437loPI   C1B 6989  16.124   5.962   9.724  0.2300  0.2356  0.0140
  437loPI   C2B 6990  16.178   6.068   9.321 -0.2645 -0.2720 -0.0836
  437loPI   C3B 6991  16.229   5.968   8.921  0.1134 -0.1312 -0.1508
  437loPI   C4B 6992  16.230   5.878   8.403  0.1796 -0.2131 -0.0367
  438loPI    C1 6993   5.962  17.893  10.780  0.1985  0.0045  0.2068
  438loPI    C2 6994   5.694  17.731  11.029 -0.1257 -0.0670 -0.1788
  438loPI    C3 6995   5.987  17.506  10.876  0.0796 -0.0207  0.1390
  438loPI   PO4 6996   5.757  17.999  10.526 -0.1030  0.1794 -0.0741
  438loPI   GL1 6997   5.699  17.940  10.150  0.1462  0.3150 -0.1845
  438loPI   GL2 6998   5.360  17.976  10.040  0.1756 -0.0170  0.1980
  438loPI   C1A 6999   5.644  17.736   9.782 -0.5184  0.2440 -0.0048
  438loPI   C2A 7000   5.594  17.684   9.382 -0.2798  0.0427 -0.2141
  438loPI   C3A 7001   5.570  17.752   9.022  0.1970 -0.1456  0.0685
  438loPI   C4A 7002   5.597  17.570   8.536 -0.0257 -0.0008  0.1821
  438loPI   C5A 7003   5.809  17.384   8.174  0.1180 -0.0566  0.2211
  438loPI   C6A 7004   6.312  17.284   8.028 -0.1325 -0.0386  0.2612
  438loPI   C1B 7005   5.162  18.056   9.593  0.0576  0.2179  0.2270
  438loPI   C2B 7006   5.209  18.029   9.140 -0.2284  0.1604  0.1939
  438loPI   C3B 7007   5.085  17.913   8.689 -0.1212  0.0669 -0.1678
  438loPI   C4B 7008   5.044  17.972   8.222 -0.3477  0.0486  0.1980
  439loPI    C1 7009   0.233  10.616  10.529  0.1363  0.0955 -0.1691
  439loPI    C2 7010   0.140  10.231  10.583  0.0547  0.1192 -0.1389
  439loPI    C3 7011   0.429  10.400  10.803 -0.0274  0.1199 -0.0309
  439loPI   PO4 7012   0.287  10.639  10.323  0.0406 -0.2585 -0.2903
  439loPI   GL1 7013   0.050  10.471   9.980 -0.1445 -0.1344 -0.0460
  439loPI   GL2 7014  -0.209  10.412  10.222  0.1833  0.0449 -0.0499
  439loPI   C1A 7015   0.076  10.489   9.609  0.3037  0.0015 -0.2026
  439loPI   C2A 7016   0.071  10.434   9.136  0.3248  0.0675 -0.0961
  439loPI   C3A 7017  -0.030  10.431   8.710  0.2913  0.1568 -0.2662
  439loPI   C4A 7018  -0.055  10.440   8.186  0.2551 -0.2029  0.1302
  439loPI   C5A 7019  -0.269  10.846   8.006  0.0546  0.1645 -0.3376
  439loPI   C6A 7020  -0.422  11.269   8.055 -0.0283 -0.1979 -0.2117
  439loPI   C1B 7021  -0.361  10.682   9.823  0.0460 -0.0734 -0.4182
  439loPI   C2B 7022  -0.427  10.665   9.400 -0.0527 -0.1640 -0.0281
  439loPI   C3B 7023  -0.409  10.625   8.962  0.2188  0.2251 -0.4146
  439loPI   C4B 7024  -0.425  10.682   8.493  0.1169  0.2771  0.3093
  440loPI    C1 7025   8.466  17.357  10.676  0.0002  0.0079  0.2130
  440loPI    C2 7026   8.464  17.722  10.514  0.1508 -0.1447 -0.1447
  440loPI    C3 7027   8.788  17.592  10.710  0.1021 -0.0932 -0.0288
  440loPI   PO4 7028   8.393  17.202  10.439 -0.1458  0.0674  0.0244
  440loPI   GL1 7029   8.579  17.050  10.165  0.1441  0.1085  0.0360
  440loPI   GL2 7030   8.211  17.033  10.024  0.1664  0.1887 -0.3805
  440loPI   C1A 7031   8.781  17.044   9.689  0.0290  0.0617  0.0369
  440loPI   C2A 7032   8.854  17.033   9.350 -0.2233  0.2060  0.1441
  440loPI   C3A 7033   8.800  16.954   8.951  0.1462  0.0378 -0.1374
  440loPI   C4A 7034   8.893  16.897   8.482  0.0299 -0.2231  0.3924
  440loPI   C5A 7035   8.866  16.738   8.026  0.0584  0.1477  0.1228
  440loPI   C6A 7036   8.448  16.599   7.960  0.0132 -0.2350 -0.0566
  440loPI   C1B 7037   7.931  17.159   9.817  0.1481  0.5564  0.0330
  440loPI   C2B 7038   7.926  17.096   9.391 -0.1055 -0.0025 -0.0808
  440loPI   C3B 7039   7.887  16.950   8.997 -0.0611  0.2096  0.1216
  440loPI   C4B 7040   7.915  16.965   8.612  0.0693 -0.1165 -0.1171
  441loPI    C1 7041   8.104  10.126  10.869 -0.0926 -0.1929 -0.0412
  441loPI    C2 7042   8.204   9.740  10.838  0.0066 -0.1890  0.2076
  441loPI    C3 7043   8.416   9.983  11.074  0.0004  0.0397 -0.0175
  441loPI   PO4 7044   7.971  10.166  10.678  0.1434  0.1807 -0.0733
  441loPI   GL1 7045   8.021  10.325  10.299 -0.2725  0.2262 -0.1194
  441loPI   GL2 7046   7.796  10.593  10.399  0.1771 -0.0219  0.0110
  441loPI   C1A 7047   8.087  10.104   9.830 -0.0275  0.1898  0.0449
  441loPI   C2A 7048   8.029  10.008   9.397  0.2463 -0.1275 -0.0650
  441loPI   C3A 7049   7.952  10.106   8.920  0.2650 -0.3131  0.1020
  441loPI   C4A 7050   7.926  10.102   8.449  0.1095  0.1129  0.4277
  441loPI   C5A 7051   7.899  10.098   8.028 -0.4224  0.1145 -0.0361
  441loPI   C6A 7052   8.155  10.178   7.671  0.1593 -0.1537  0.1235
  441loPI   C1B 7053   7.959  10.717   9.962  0.1797  0.2541  0.0264
  441loPI   C2B 7054   8.025  10.619   9.526  0.0731  0.2034 -0.0266
  441loPI   C3B 7055   8.040  10.576   9.098 -0.0549  0.1569  0.4289
  441loPI   C4B 7056   7.851  10.548   8.731  0.2937 -0.0940 -0.0280
  442loPI    C1 7057  12.447   4.646  10.239 -0.3053  0.3112  0.2022
  442loPI    C2 7058  12.209   4.325  10.227  0.0303  0.0637 -0.0666
  442loPI    C3 7059  12.233   4.544  10.561  0.0204 -0.3645  0.2238
  442loPI   PO4 7060  12.636   4.606   9.976 -0.2818  0.2632 -0.0750
  442loPI   GL1 7061  12.535   4.331   9.592 -0.1033 -0.1216  0.2222
  442loPI   GL2 7062  12.370   4.040   9.591  0.1473  0.2106  0.2693
  442loPI   C1A 7063  12.890   4.268   9.347 -0.2168  0.0338  0.1245
  442loPI   C2A 7064  12.949   4.151   8.989 -0.3200  0.1365 -0.1054
  442loPI   C3A 7065  13.023   3.687   8.799  0.1306 -0.1964 -0.0097
  442loPI   C4A 7066  13.121   3.491   8.325  0.1522  0.0166 -0.3278
  442loPI   C5A 7067  13.047   3.254   7.838 -0.1044 -0.1517  0.1938
  442loPI   C6A 7068  12.992   3.055   7.450 -0.0808  0.0098 -0.0590
  442loPI   C1B 7069  12.454   4.118   9.090 -0.1471  0.2854 -0.0163
  442loPI   C2B 7070  12.614   4.003   8.646  0.0169 -0.1074  0.3519
  442loPI   C3B 7071  12.588   3.903   8.221  0.2974  0.0469  0.1136
  442loPI   C4B 7072  12.630   3.654   7.871  0.1203  0.1606 -0.0601
  443loPI    C1 7073  12.268   9.450  11.009  0.2416  0.0205  0.0272
  443loPI    C2 7074  12.105   9.768  11.189  0.0439  0.0711 -0.2338
  443loPI    C3 7075  11.921   9.413  11.204  0.0324  0.0730 -0.3264
  443loPI   PO4 7076  12.280   9.525  10.761 -0.0915  0.3134  0.2086
  443loPI   GL1 7077  12.069   9.499  10.449 -0.0060  0.0058 -0.2923
  443loPI   GL2 7078  12.133   9.776  10.333  0.2234  0.1385 -0.2345
  443loPI   C1A 7079  12.066   9.193  10.076 -0.0844 -0.2265 -0.1078
  443loPI   C2A 7080  12.154   9.267   9.645  0.2681  0.1608  0.0281
  443loPI   C3A 7081  12.001   9.386   9.271 -0.3471  0.2839  0.1418
  443loPI   C4A 7082  12.100   9.265   8.867 -0.4872  0.1935 -0.4193
  443loPI   C5A 7083  12.062   9.441   8.466  0.0068 -0.1566 -0.1417
  443loPI   C6A 7084  12.051   9.428   8.014  0.0226 -0.0813 -0.0807
  443loPI   C1B 7085  12.177   9.869   9.899 -0.1053 -0.0652  0.1693
  443loPI   C2B 7086  12.163   9.886   9.511 -0.0975 -0.0738  0.1704
  443loPI   C3B 7087  12.074   9.859   9.061 -0.0494 -0.2547  0.1083
  443loPI   C4B 7088  11.999   9.875   8.720 -0.0004  0.0571 -0.2156
  444loPI    C1 7089   7.371   3.425  10.169 -0.0326 -0.0752  0.0062
  444loPI    C2 7090   7.221   3.179  10.446  0.0830 -0.0155  0.1231
  444loPI    C3 7091   7.264   3.568  10.526 -0.2948  0.0849 -0.1335
  444loPI   PO4 7092   7.177   3.385  10.011 -0.0223  0.0865  0.1261
  444loPI   GL1 7093   6.939   3.192   9.720 -0.1205  0.1598  0.3977
  444loPI   GL2 7094   6.964   2.879   9.612 -0.2241  0.5236  0.0207
  444loPI   C1A 7095   6.644   3.219   9.333 -0.1054  0.1322 -0.0178
  444loPI   C2A 7096   6.671   3.287   8.951  0.1862  0.1050 -0.0153
  444loPI   C3A 7097   6.898   3.214   8.538 -0.3250 -0.3033 -0.0137
  444loPI   C4A 7098   6.809   2.877   8.345  0.1879 -0.0763  0.1126
  444loPI   C5A 7099   6.908   2.578   8.035  0.2021  0.2600  0.0443
  444loPI   C6A 7100   6.906   2.561   7.555  0.1872 -0.1213 -0.0618
  444loPI   C1B 7101   6.695   2.655   9.381 -0.1842  0.0313 -0.0571
  444loPI   C2B 7102   6.443   2.820   9.121  0.1733 -0.0854  0.2293
  444loPI   C3B 7103   6.398   2.934   8.746 -0.0140  0.0249  0.0215
  444loPI   C4B 7104   6.351   3.120   8.338  0.0667  0.4093 -0.1412
  445loPI    C1 7105   8.647   2.065  10.228  0.1144 -0.0777  0.2353
  445loPI    C2 7106   8.874   1.744  10.302  0.0485 -0.1302  0.2108
  445loPI    C3 7107   8.476   1.709  10.291  0.0498 -0.0915 -0.0090
  445loPI   PO4 7108   8.627   2.165  10.003 -0.1034 -0.2364  0.2611
  445loPI   GL1 7109   8.446   2.328   9.642  0.2319  0.3922  0.3521
  445loPI   GL2 7110   8.149   2.355   9.577 -0.0655  0.0666 -0.0174
  445loPI   C1A 7111   8.497   2.365   9.115  0.0020 -0.0185  0.0739
  445loPI   C2A 7112   8.406   2.516   8.678  0.3341  0.1687  0.0337
  445loPI   C3A 7113   8.244   2.437   8.295 -0.0775 -0.1963  0.1995
  445loPI   C4A 7114   8.204   2.632   7.912  0.1222 -0.3174  0.0521
  445loPI   C5A 7115   8.077   2.877   7.527  0.2057 -0.1320  0.2496
  445loPI   C6A 7116   8.166   2.961   7.170 -0.0042  0.3788 -0.0736
  445loPI   C1B 7117   7.964   2.286   9.249  0.0431 -0.1472 -0.3550
  445loPI   C2B 7118   7.979   2.272   8.839  0.2212  0.3313  0.1077
  445loPI   C3B 7119   7.892   2.133   8.483 -0.0065 -0.1506 -0.0027
  445loPI   C4B 7120   7.535   1.898   8.291  0.0667  0.0640 -0.0574
  446loPI    C1 7121   3.480   8.847  10.634  0.0400 -0.0944  0.0063
  446loPI    C2 7122   3.244   9.030  10.900 -0.0242 -0.2013  0.0236
  446loPI    C3 7123   3.317   8.638  10.934  0.1666 -0.1668  0.0257
  446loPI   PO4 7124   3.361   8.810  10.340  0.2338 -0.2129 -0.0245
  446loPI   GL1 7125   3.213   8.698  10.009 -0.1590 -0.0535 -0.1955
  446loPI   GL2 7126   2.939   8.702  10.103  0.0211 -0.2723 -0.3127
  446loPI   C1A 7127   3.393   8.569   9.661  0.2737  0.1795 -0.0302
  446loPI   C2A 7128   3.251   8.460   9.277  0.0000 -0.2085 -0.2752
  446loPI   C3A 7129   3.096   8.647   8.884 -0.0461 -0.1121 -0.0139
  446loPI   C4A 7130   3.184   8.517   8.485  0.2700 -0.1958  0.2755
  446loPI   C5A 7131   3.110   8.443   8.035  0.0813  0.1965 -0.2699
  446loPI   C6A 7132   3.284   8.323   7.600  0.3785  0.0273 -0.0152
  446loPI   C1B 7133   2.899   8.684   9.636  0.1723 -0.1474  0.2791
  446loPI   C2B 7134   2.757   8.842   9.194  0.1226  0.1863 -0.0676
  446loPI   C3B 7135   2.679   8.849   8.720 -0.0129  0.1505  0.0314
  446loPI   C4B 7136   2.815   8.783   8.254 -0.0488 -0.0643  0.1396
  447loPI    C1 7137   0.263   4.399  10.686  0.1102 -0.1554 -0.1836
  447loPI    C2 7138   0.519   4.181  10.902  0.0858 -0.0921 -0.0901
  447loPI    C3 7139   0.637   4.530  10.746  0.1240 -0.1701 -0.2370
  447loPI   PO4 7140   0.195   4.213  10.473 -0.0142  0.2664 -0.0422
  447loPI   GL1 7141   0.053   4.289  10.142  0.2032  0.1789  0.0038
  447loPI   GL2 7142   0.071   4.595   9.990 -0.2422  0.0635 -0.0283
  447loPI   C1A 7143   0.055   4.111   9.718  0.1041  0.1664 -0.0605
  447loPI   C2A 7144  -0.012   4.212   9.239  0.0491 -0.0474 -0.2590
  447loPI   C3A 7145  -0.053   4.106   8.868 -0.1010 -0.0437  0.3040
  447loPI   C4A 7146  -0.058   3.993   8.354 -0.1703 -0.1730 -0.1314
  447loPI   C5A 7147   0.100   4.128   8.005  0.1122 -0.2626  0.2330
  447loPI   C6A 7148   0.186   4.365   7.714  0.1252 -0.2804  0.1396
  447loPI   C1B 7149   0.022   4.647   9.571 -0.3271  0.1092 -0.0475
  447loPI   C2B 7150   0.024   4.686   9.140  0.0397 -0.2831 -0.0588
  447loPI   C3B 7151  -0.029   4.685   8.699 -0.0238 -0.1051  0.1226
  447loPI   C4B 7152  -0.071   4.527   8.270 -0.1703  0.0724 -0.1257
  448loPI    C1 7153   1.822  10.551  10.854 -0.0949  0.2693  0.1125
  448loPI    C2 7154   1.716  10.363  11.190 -0.0282  0.1782  0.0831
  448loPI    C3 7155   1.497  10.668  11.054 -0.0242  0.2516  0.2390
  448loPI   PO4 7156   1.784  10.454  10.649 -0.1063  0.0895 -0.0254
  448loPI   GL1 7157   1.614  10.559  10.258  0.0068 -0.0314  0.3721
  448loPI   GL2 7158   1.874  10.565  10.095 -0.0792  0.3866  0.1862
  448loPI   C1A 7159   1.524  10.586   9.776  0.2384  0.0496 -0.1407
  448loPI   C2A 7160   1.487  10.592   9.303 -0.2211 -0.3613  0.0462
  448loPI   C3A 7161   1.415  10.665   8.931  0.1802 -0.1407 -0.2047
  448loPI   C4A 7162   1.334  10.618   8.470 -0.1396  0.0765  0.3724
  448loPI   C5A 7163   1.222  10.936   8.131  0.0350  0.0022 -0.0282
  448loPI   C6A 7164   1.063  11.154   7.747 -0.1041 -0.0579 -0.0699
  448loPI   C1B 7165   2.056  10.865   9.756 -0.0741  0.0850  0.0981
  448loPI   C2B 7166   1.906  10.977   9.322  0.0931  0.1892 -0.3145
  448loPI   C3B 7167   1.850  10.871   8.970 -0.0820 -0.0408 -0.1121
  448loPI   C4B 7168   1.803  10.856   8.475 -0.2802  0.0101  0.0369
  449loPI    C1 7169  13.461   9.912  11.185 -0.1341 -0.0691 -0.1849
  449loPI    C2 7170  13.472  10.260  11.382  0.0019 -0.1376 -0.0689
  449loPI    C3 7171  13.769   9.996  11.427 -0.2104 -0.3650  0.0210
  449loPI   PO4 7172  13.339   9.975  10.934 -0.1181 -0.2489 -0.1516
  449loPI   GL1 7173  13.131   9.949  10.467 -0.2243 -0.1328  0.1614
  449loPI   GL2 7174  13.056   9.703  10.214 -0.0298  0.2635 -0.3916
  449loPI   C1A 7175  13.360  10.047  10.039 -0.0237 -0.1056 -0.2319
  449loPI   C2A 7176  13.391  10.087   9.596 -0.2149  0.1248 -0.1311
  449loPI   C3A 7177  13.419  10.147   9.126 -0.2023  0.0523  0.1023
  449loPI   C4A 7178  13.405  10.101   8.793 -0.3786 -0.3502  0.2875
  449loPI   C5A 7179  13.290  10.114   8.420  0.1351  0.2675 -0.0604
  449loPI   C6A 7180  13.148  10.013   8.156  0.3274 -0.1399 -0.0232
  449loPI   C1B 7181  12.965   9.778   9.793 -0.1971  0.0349  0.0606
  449loPI   C2B 7182  13.050   9.803   9.364  0.3313 -0.0255  0.1319
  449loPI   C3B 7183  12.863   9.736   8.991 -0.3007 -0.4417  0.0133
  449loPI   C4B 7184  12.849   9.828   8.534  0.0848 -0.0935  0.0730
  450loPI    C1 7185   1.549  12.166  10.897  0.0752  0.1049  0.0756
  450loPI    C2 7186   1.347  12.507  10.949 -0.1258  0.0161 -0.1054
  450loPI    C3 7187   1.683  12.440  11.156 -0.2269  0.2082  0.1261
  450loPI   PO4 7188   1.436  12.136  10.643 -0.0769  0.1840 -0.1191
  450loPI   GL1 7189   1.447  12.228  10.260 -0.2043 -0.1846  0.0268
  450loPI   GL2 7190   1.052  12.165  10.188 -0.0093 -0.1021  0.2801
  450loPI   C1A 7191   1.580  12.315   9.808  0.0228 -0.1002 -0.0597
  450loPI   C2A 7192   1.539  12.232   9.427  0.1501  0.0941  0.0230
  450loPI   C3A 7193   1.460  12.249   8.968  0.0870 -0.5015 -0.2092
  450loPI   C4A 7194   1.439  12.192   8.442 -0.1163  0.0332  0.2265
  450loPI   C5A 7195   1.537  11.861   8.162  0.1989 -0.0421  0.1036
  450loPI   C6A 7196   1.387  11.517   7.926 -0.2154 -0.2405  0.0613
  450loPI   C1B 7197   1.079  12.000   9.747  0.0415  0.2349  0.0296
  450loPI   C2B 7198   1.043  11.956   9.346 -0.1347 -0.1274  0.2022
  450loPI   C3B 7199   1.006  11.948   8.870 -0.1298 -0.2908 -0.2442
  450loPI   C4B 7200   0.914  12.037   8.435  0.1230 -0.1186 -0.0640
  451loPI    C1 7201  12.702   7.356  10.618  0.0958 -0.1379 -0.1598
  451loPI    C2 7202  12.809   6.976  10.683  0.0073 -0.1181  0.1125
  451loPI    C3 7203  13.084   7.266  10.697  0.0405 -0.1490  0.1020
  451loPI   PO4 7204  12.552   7.311  10.313 -0.2528  0.0027 -0.5485
  451loPI   GL1 7205  12.481   7.174   9.972 -0.3364 -0.0612  0.1291
  451loPI   GL2 7206  12.636   6.942   9.893 -0.1379  0.3840 -0.0310
  451loPI   C1A 7207  12.528   7.399   9.562  0.1932  0.2933 -0.0068
  451loPI   C2A 7208  12.446   7.486   9.186 -0.1142 -0.0447  0.1366
  451loPI   C3A 7209  12.525   7.515   8.767  0.0634 -0.0555  0.0142
  451loPI   C4A 7210  12.393   7.556   8.416  0.0605 -0.1703 -0.2079
  451loPI   C5A 7211  12.525   7.475   8.011  0.1191 -0.0475  0.1583
  451loPI   C6A 7212  12.580   7.451   7.536  0.0179  0.0222 -0.0912
  451loPI   C1B 7213  12.779   7.014   9.499  0.1195  0.1802 -0.0532
  451loPI   C2B 7214  12.776   7.129   8.964  0.0096 -0.1299  0.0237
  451loPI   C3B 7215  12.936   7.306   8.593 -0.1432  0.0839  0.2256
  451loPI   C4B 7216  13.047   7.318   8.266  0.1076  0.1709  0.0716
  452loPI    C1 7217   6.031   0.578  10.761  0.0457 -0.2867  0.0807
  452loPI    C2 7218   5.640   0.647  10.809  0.1479  0.2385  0.2251
  452loPI    C3 7219   5.845   0.450  11.091  0.0068  0.0304  0.1851
  452loPI   PO4 7220   6.086   0.523  10.543 -0.2642 -0.2255 -0.1205
  452loPI   GL1 7221   5.965   0.355  10.112  0.0174  0.3157 -0.1465
  452loPI   GL2 7222   5.977   0.128  10.194  0.2032  0.1332  0.1133
  452loPI   C1A 7223   5.830   0.490   9.741 -0.0995 -0.2853  0.0518
  452loPI   C2A 7224   5.635   0.414   9.353  0.2828 -0.0417 -0.0519
  452loPI   C3A 7225   5.503   0.463   8.985  0.0721  0.2378  0.0244
  452loPI   C4A 7226   5.630   0.323   8.566 -0.2852  0.1322  0.0933
  452loPI   C5A 7227   5.632   0.171   8.211  0.0639 -0.0696  0.1148
  452loPI   C6A 7228   5.381  -0.092   7.903 -0.3052 -0.0662  0.1078
  452loPI   C1B 7229   5.741  -0.060   9.761 -0.0036  0.2657  0.0360
  452loPI   C2B 7230   5.576  -0.137   9.458  0.2069  0.0100  0.0359
  452loPI   C3B 7231   5.592  -0.035   9.009  0.0030 -0.0756  0.0480
  452loPI   C4B 7232   5.557  -0.269   8.612  0.0165 -0.1387 -0.0912
  453loPI    C1 7233   3.449   4.409  10.877 -0.0976 -0.2271  0.1931
  453loPI    C2 7234   3.602   4.582  11.204 -0.0460  0.3020 -0.0999
  453loPI    C3 7235   3.252   4.388  11.225  0.0959  0.0786  0.3252
  453loPI   PO4 7236   3.473   4.481  10.714 -0.1515 -0.0898  0.0914
  453loPI   GL1 7237   3.760   4.328  10.263 -0.1533  0.0356 -0.0576
  453loPI   GL2 7238   3.485   4.391  10.229  0.1221  0.2908 -0.3006
  453loPI   C1A 7239   3.872   4.555   9.920 -0.1198  0.0261  0.0611
  453loPI   C2A 7240   3.729   4.696   9.556 -0.1625 -0.1323  0.1178
  453loPI   C3A 7241   3.739   4.591   9.114  0.1698  0.2012 -0.0823
  453loPI   C4A 7242   3.623   4.592   8.673  0.0620 -0.1732 -0.4681
  453loPI   C5A 7243   3.601   4.602   8.233 -0.3995 -0.0321  0.2123
  453loPI   C6A 7244   3.165   4.666   8.029 -0.1972  0.0073  0.0595
  453loPI   C1B 7245   3.410   4.345   9.803 -0.0972 -0.1437 -0.3245
  453loPI   C2B 7246   3.237   4.400   9.391  0.1314  0.2590 -0.1745
  453loPI   C3B 7247   3.225   4.376   8.982 -0.1076  0.0945  0.0451
  453loPI   C4B 7248   3.234   4.307   8.600 -0.1251  0.0296 -0.1263
  454loPI    C1 7249  17.550   1.785  10.656 -0.0358 -0.0880  0.2003
  454loPI    C2 7250  17.576   1.392  10.725  0.0867 -0.1504 -0.1795
  454loPI    C3 7251  17.908   1.609  10.672  0.0112 -0.0394 -0.2010
  454loPI   PO4 7252  17.339   1.861  10.593 -0.1766  0.2216 -0.0028
  454loPI   GL1 7253  17.299   1.921  10.171 -0.0541  0.0461  0.2117
  454loPI   GL2 7254  17.262   1.584  10.114  0.1324 -0.1406 -0.3236
  454loPI   C1A 7255  17.509   1.995   9.839  0.3476  0.2134  0.0393
  454loPI   C2A 7256  17.434   2.063   9.380 -0.1655  0.1367 -0.1155
  454loPI   C3A 7257  17.488   1.991   8.999 -0.3977 -0.0624 -0.4157
  454loPI   C4A 7258  17.495   2.137   8.574  0.2060 -0.0128 -0.2057
  454loPI   C5A 7259  17.063   2.092   8.312  0.2565 -0.0674  0.1090
  454loPI   C6A 7260  16.570   2.007   8.259  0.2208  0.0390  0.0876
  454loPI   C1B 7261  16.973   1.851   9.806 -0.2510  0.0204 -0.6307
  454loPI   C2B 7262  17.020   1.763   9.411  0.2063  0.0169  0.1077
  454loPI   C3B 7263  17.052   1.775   9.018 -0.1929 -0.0317  0.3021
  454loPI   C4B 7264  17.114   1.697   8.637 -0.3549 -0.0330  0.4058
  455loPI    C1 7265   9.575   6.955  10.104 -0.1619  0.1010 -0.0655
  455loPI    C2 7266   9.518   7.350  10.070  0.0281  0.1318 -0.0413
  455loPI    C3 7267   9.519   7.178  10.431  0.2512  0.1582 -0.0284
  455loPI   PO4 7268   9.762   6.961   9.932 -0.3256  0.0717 -0.1203
  455loPI   GL1 7269   9.769   7.292   9.615 -0.0371  0.1152 -0.0023
  455loPI   GL2 7270   9.975   7.462   9.507 -0.0239  0.3459 -0.3029
  455loPI   C1A 7271  10.100   7.095   9.282 -0.0948 -0.0015 -0.0286
  455loPI   C2A 7272  10.317   7.201   8.943  0.0230 -0.0939  0.4930
  455loPI   C3A 7273  10.432   7.177   8.475  0.1539 -0.0491 -0.0689
  455loPI   C4A 7274  10.375   7.371   8.143  0.2271 -0.1551  0.0154
  455loPI   C5A 7275  10.422   7.637   7.855  0.0223 -0.2041 -0.1476
  455loPI   C6A 7276  10.313   7.929   7.555 -0.3316  0.1747 -0.2203
  455loPI   C1B 7277  10.043   7.632   9.135 -0.1438  0.5558 -0.0742
  455loPI   C2B 7278  10.229   7.627   8.662  0.0890 -0.0726 -0.1831
  455loPI   C3B 7279  10.173   7.852   8.328 -0.1446  0.0155 -0.1628
  455loPI   C4B 7280  10.322   8.129   8.036 -0.3071  0.0176  0.0052
  456loPI    C1 7281  17.280  12.843  10.669  0.1792 -0.0631  0.0081
  456loPI    C2 7282  16.934  13.034  10.610  0.0707 -0.2417  0.0597
  456loPI    C3 7283  17.046  12.932  10.980  0.1362 -0.2633  0.0340
  456loPI   PO4 7284  17.454  12.833  10.416  0.4656 -0.0402  0.2552
  456loPI   GL1 7285  17.638  12.494  10.139 -0.4644  0.0122 -0.2236
  456loPI   GL2 7286  17.632  12.916   9.935  0.0240 -0.1702  0.1661
  456loPI   C1A 7287  17.581  12.507   9.660  0.1743 -0.0050 -0.1405
  456loPI   C2A 7288  17.611  12.557   9.252  0.1552 -0.1384  0.2063
  456loPI   C3A 7289  17.439  12.502   8.782 -0.2766 -0.0267 -0.0109
  456loPI   C4A 7290  17.514  12.642   8.423  0.1149 -0.1386  0.0519
  456loPI   C5A 7291  17.289  12.786   8.137  0.3242 -0.1687 -0.1630
  456loPI   C6A 7292  17.031  12.908   7.872 -0.0572 -0.2158 -0.1863
  456loPI   C1B 7293  17.518  13.030   9.494 -0.1371 -0.0191 -0.1944
  456loPI   C2B 7294  17.550  13.035   9.059  0.0363  0.0719 -0.2506
  456loPI   C3B 7295  17.530  13.075   8.621 -0.2263  0.2631  0.0829
  456loPI   C4B 7296  17.655  13.076   8.246 -0.0232  0.0568 -0.0513
  457loPI    C1 7297   0.598  16.640  10.761 -0.2427 -0.1163  0.0988
  457loPI    C2 7298   0.451  16.969  10.934  0.1963  0.1659 -0.0472
  457loPI    C3 7299   0.615  16.682  11.159  0.0417  0.1619  0.0620
  457loPI   PO4 7300   0.744  16.598  10.609  0.1765 -0.0924  0.0332
  457loPI   GL1 7301   0.994  16.879  10.389  0.1409 -0.2097 -0.0009
  457loPI   GL2 7302   0.853  17.214  10.462  0.2501  0.1969 -0.0514
  457loPI   C1A 7303   1.048  16.684  10.062  0.2479  0.0510  0.1474
  457loPI   C2A 7304   0.920  16.647   9.635  0.1972 -0.0043 -0.2050
  457loPI   C3A 7305   1.031  16.636   9.291 -0.0771 -0.0289 -0.1016
  457loPI   C4A 7306   1.023  16.670   8.868  0.1877 -0.1087  0.0986
  457loPI   C5A 7307   1.293  16.666   8.458  0.1362  0.3671  0.2119
  457loPI   C6A 7308   1.531  16.839   8.101 -0.2312 -0.0397  0.2559
  457loPI   C1B 7309   1.058  17.211  10.034 -0.0963  0.0080  0.1052
  457loPI   C2B 7310   0.953  17.167   9.605 -0.4056 -0.1780  0.4500
  457loPI   C3B 7311   1.069  17.098   9.233  0.0952 -0.0419 -0.1077
  457loPI   C4B 7312   1.085  17.204   8.846 -0.0077 -0.0469 -0.2362
  458loPI    C1 7313   2.096   2.930  10.914 -0.1365 -0.2471  0.1420
  458loPI    C2 7314   1.972   3.229  11.148  0.0581 -0.0125 -0.0496
  458loPI    C3 7315   2.231   2.960  11.289  0.0831  0.0594  0.0428
  458loPI   PO4 7316   1.994   2.966  10.631 -0.0626  0.4259 -0.0046
  458loPI   GL1 7317   2.128   3.148  10.333 -0.1998 -0.1130  0.1030
  458loPI   GL2 7318   2.323   2.937  10.256 -0.3423  0.2354  0.0373
  458loPI   C1A 7319   1.885   3.161   9.998  0.0941  0.1140  0.4296
  458loPI   C2A 7320   1.878   3.115   9.607  0.0982  0.2649  0.1149
  458loPI   C3A 7321   1.942   3.086   9.206 -0.1261  0.1750 -0.1488
  458loPI   C4A 7322   1.855   3.149   8.823  0.0292  0.0292 -0.1905
  458loPI   C5A 7323   1.903   2.866   8.549  0.1376 -0.2357 -0.0868
  458loPI   C6A 7324   2.125   2.856   8.093  0.1115 -0.0830 -0.0595
  458loPI   C1B 7325   2.302   2.813   9.851 -0.0222  0.5035 -0.1498
  458loPI   C2B 7326   2.292   2.841   9.485  0.1284  0.0172 -0.3256
  458loPI   C3B 7327   2.396   2.810   9.001 -0.1451 -0.0314  0.2606
  458loPI   C4B 7328   2.409   2.673   8.646 -0.1660 -0.2356  0.3213
  459loPI    C1 7329  14.177   7.357  10.584  0.1818  0.1418 -0.1047
  459loPI    C2 7330  14.196   7.253  10.970  0.2818 -0.1507 -0.1853
  459loPI    C3 7331  14.155   7.638  10.868  0.1260 -0.0834  0.1181
  459loPI   PO4 7332  14.374   7.264  10.471 -0.2334  0.0494  0.0455
  459loPI   GL1 7333  14.469   7.131  10.008  0.0962  0.2380  0.2500
  459loPI   GL2 7334  14.349   7.386   9.931 -0.1203 -0.2867 -0.1932
  459loPI   C1A 7335  14.408   7.032   9.557 -0.0783 -0.0413  0.2244
  459loPI   C2A 7336  14.381   7.029   9.167 -0.2801  0.1668  0.1633
  459loPI   C3A 7337  14.375   6.928   8.684 -0.1134  0.2208 -0.1410
  459loPI   C4A 7338  14.419   6.901   8.272 -0.1648  0.2667 -0.0839
  459loPI   C5A 7339  14.455   6.760   7.857  0.1812 -0.1721 -0.1878
  459loPI   C6A 7340  14.425   6.624   7.494 -0.1347  0.0952 -0.1452
  459loPI   C1B 7341  14.445   7.576   9.565 -0.0736 -0.1621 -0.3918
  459loPI   C2B 7342  14.346   7.563   9.123 -0.2035  0.0946 -0.3794
  459loPI   C3B 7343  14.369   7.479   8.788 -0.1094  0.0403  0.2680
  459loPI   C4B 7344  14.373   7.491   8.345  0.1444 -0.2539  0.0503
  460loPI    C1 7345  11.964   6.455  10.734  0.0432  0.0503 -0.1247
  460loPI    C2 7346  11.610   6.618  10.643  0.0154  0.1744  0.1908
  460loPI    C3 7347  11.745   6.631  11.019  0.3438  0.1025  0.0790
  460loPI   PO4 7348  12.032   6.474  10.458 -0.0360 -0.1602  0.0250
  460loPI   GL1 7349  12.152   6.638   9.963 -0.0415 -0.1369  0.2696
  460loPI   GL2 7350  11.894   7.005   9.819  0.0123  0.3076  0.0763
  460loPI   C1A 7351  12.319   6.632   9.563 -0.0709 -0.2423 -0.2576
  460loPI   C2A 7352  12.380   6.566   9.143 -0.0778  0.1613 -0.1824
  460loPI   C3A 7353  12.365   6.517   8.743 -0.2277  0.0304 -0.2082
  460loPI   C4A 7354  12.409   6.442   8.399  0.0590  0.3725 -0.1528
  460loPI   C5A 7355  12.615   6.435   8.031  0.0093  0.0841 -0.0330
  460loPI   C6A 7356  12.539   6.792   7.889 -0.2129 -0.0015 -0.0044
  460loPI   C1B 7357  11.975   7.149   9.383 -0.1224 -0.2465  0.0377
  460loPI   C2B 7358  12.236   6.995   9.023 -0.0611  0.2067 -0.0553
  460loPI   C3B 7359  12.400   7.041   8.664  0.2933  0.0407  0.1302
  460loPI   C4B 7360  12.542   7.053   8.299 -0.0922 -0.0978 -0.1198
  461loPI    C1 7361   1.785   2.484  10.979  0.1247  0.1419 -0.1391
  461loPI    C2 7362   2.116   2.483  11.203  0.1257 -0.1221 -0.1384
  461loPI    C3 7363   1.770   2.614  11.357  0.2006  0.0299 -0.0970
  461loPI   PO4 7364   1.874   2.497  10.790  0.1694  0.2054  0.0488
  461loPI   GL1 7365   1.847   2.345  10.317  0.0675  0.1973 -0.0006
  461loPI   GL2 7366   1.885   2.660  10.181  0.3952  0.0456  0.0850
  461loPI   C1A 7367   1.817   2.031   9.999  0.4031 -0.1503 -0.0398
  461loPI   C2A 7368   1.817   2.045   9.563 -0.1327  0.0039 -0.0783
  461loPI   C3A 7369   1.896   2.016   9.097  0.4877 -0.2038  0.0264
  461loPI   C4A 7370   1.846   2.004   8.742 -0.2435  0.1926  0.1593
  461loPI   C5A 7371   1.829   1.866   8.327  0.0393 -0.1578  0.2555
  461loPI   C6A 7372   1.516   1.615   7.999  0.0505 -0.1600  0.1856
  461loPI   C1B 7373   1.852   2.526   9.719  0.1966 -0.1841  0.2076
  461loPI   C2B 7374   1.848   2.554   9.237 -0.1855  0.1252 -0.2851
  461loPI   C3B 7375   1.976   2.456   8.844  0.0100 -0.2245  0.2331
  461loPI   C4B 7376   1.911   2.392   8.308 -0.0350  0.0603 -0.2758
  462loPI    C1 7377   1.992   4.119  10.527  0.0683 -0.0214 -0.1038
  462loPI    C2 7378   1.954   4.196  10.918 -0.1377  0.0206 -0.1308
  462loPI    C3 7379   2.132   4.461  10.678  0.0257 -0.0233 -0.0595
  462loPI   PO4 7380   1.780   3.890  10.548  0.0156 -0.1075  0.2177
  462loPI   GL1 7381   1.688   3.681  10.257 -0.0637 -0.1462 -0.0419
  462loPI   GL2 7382   2.015   3.675  10.168 -0.2153 -0.1965 -0.0005
  462loPI   C1A 7383   1.349   3.872   9.903 -0.1744  0.1991  0.1725
  462loPI   C2A 7384   1.365   3.735   9.428 -0.1170 -0.0940 -0.3076
  462loPI   C3A 7385   1.356   3.829   9.025  0.0070  0.1018  0.0873
  462loPI   C4A 7386   1.238   3.918   8.673  0.4509 -0.0754 -0.1258
  462loPI   C5A 7387   1.541   4.000   8.241 -0.1405 -0.0061 -0.0332
  462loPI   C6A 7388   1.749   3.766   7.972  0.0770  0.0758  0.1027
  462loPI   C1B 7389   2.022   3.669   9.748 -0.2058 -0.1200  0.1272
  462loPI   C2B 7390   1.912   3.561   9.352  0.1272  0.0334  0.2358
  462loPI   C3B 7391   1.905   3.625   8.945 -0.0064 -0.1946  0.0356
  462loPI   C4B 7392   1.855   3.523   8.463  0.0578 -0.2393  0.1825
  463loPI    C1 7393  11.715  17.929  10.361 -0.0365 -0.1811  0.1951
  463loPI    C2 7394  11.466  18.070  10.640 -0.0594 -0.3054  0.2380
  463loPI    C3 7395  11.860  18.056  10.711 -0.0111  0.1169  0.0792
  463loPI   PO4 7396  11.519  17.774  10.167  0.0806 -0.1698 -0.1172
  463loPI   GL1 7397  11.395  17.504   9.876 -0.1076  0.1872 -0.2430
  463loPI   GL2 7398  11.051  17.605   9.946 -0.1095 -0.0615  0.2410
  463loPI   C1A 7399  11.516  17.449   9.544  0.2657 -0.1202 -0.2503
  463loPI   C2A 7400  11.639  17.510   9.091  0.3713 -0.3256  0.0153
  463loPI   C3A 7401  11.597  17.408   8.669 -0.0281  0.1114  0.0102
  463loPI   C4A 7402  11.595  17.429   8.233  0.1037  0.1959 -0.1302
  463loPI   C5A 7403  11.579  17.190   7.797 -0.4792 -0.0874 -0.4351
  463loPI   C6A 7404  11.730  16.886   7.453  0.0301 -0.0997 -0.0616
  463loPI   C1B 7405  11.077  17.690   9.430 -0.0345 -0.0151  0.1252
  463loPI   C2B 7406  11.036  17.648   8.980 -0.2147 -0.0818  0.2925
  463loPI   C3B 7407  11.075  17.742   8.613  0.3231 -0.0953 -0.1446
  463loPI   C4B 7408  11.083  17.779   8.184 -0.1318  0.3201 -0.0736
  464loPI    C1 7409   7.773  14.729  10.500 -0.1704  0.2237 -0.1557
  464loPI    C2 7410   7.593  14.380  10.423  0.0700  0.0912 -0.1258
  464loPI    C3 7411   7.650  14.497  10.802  0.2824  0.0065 -0.1305
  464loPI   PO4 7412   7.890  14.841  10.208 -0.3638 -0.1421 -0.1667
  464loPI   GL1 7413   7.896  14.872   9.739  0.0953 -0.3026  0.0126
  464loPI   GL2 7414   7.939  15.190   9.786  0.0524 -0.0675  0.3368
  464loPI   C1A 7415   7.997  14.922   9.396 -0.0667  0.0486  0.2304
  464loPI   C2A 7416   7.963  15.016   8.971 -0.1277 -0.3246  0.0344
  464loPI   C3A 7417   7.908  14.888   8.623 -0.2481  0.0048 -0.3330
  464loPI   C4A 7418   7.934  14.787   8.172 -0.1109  0.0712 -0.0316
  464loPI   C5A 7419   7.928  15.102   7.814 -0.0150 -0.1136 -0.1095
  464loPI   C6A 7420   7.959  15.452   7.644  0.1875 -0.0616  0.0077
  464loPI   C1B 7421   7.885  15.446   9.455 -0.1676 -0.0206  0.1930
  464loPI   C2B 7422   8.004  15.493   9.117  0.1399 -0.3667  0.1112
  464loPI   C3B 7423   8.038  15.450   8.658 -0.5009  0.2466 -0.1303
  464loPI   C4B 7424   7.852  15.336   8.341 -0.1648  0.2636  0.0009
  465loPI    C1 7425  17.329   1.031  11.307  0.1360 -0.0054 -0.4349
  465loPI    C2 7426  16.974   0.917  11.450  0.2957  0.1248  0.0873
  465loPI    C3 7427  17.090   1.298  11.484  0.4807  0.0863 -0.0931
  465loPI   PO4 7428  17.282   1.026  10.992  0.1170  0.0635 -0.4011
  465loPI   GL1 7429  17.427   0.889  10.607 -0.0482  0.2217  0.0793
  465loPI   GL2 7430  17.242   0.575  10.486 -0.2351  0.0143  0.1635
  465loPI   C1A 7431  17.414   0.980  10.167  0.2066  0.1312  0.1564
  465loPI   C2A 7432  17.492   0.972   9.718  0.1936 -0.1357 -0.0859
  465loPI   C3A 7433  17.406   0.912   9.269 -0.2246  0.0366 -0.3063
  465loPI   C4A 7434  17.659   0.934   8.920  0.0147  0.0092  0.0133
  465loPI   C5A 7435  17.629   0.969   8.615 -0.0786  0.0590  0.0228
  465loPI   C6A 7436  17.660   0.823   8.096 -0.1261  0.2695 -0.0245
  465loPI   C1B 7437  17.425   0.457  10.121  0.0095  0.1033  0.0847
  465loPI   C2B 7438  17.448   0.492   9.854  0.1213  0.1718  0.4467
  465loPI   C3B 7439  17.543   0.427   9.495 -0.1265  0.2703 -0.0812
  465loPI   C4B 7440  17.481   0.491   9.004 -0.0394 -0.0519 -0.3326
  466loPI    C1 7441   4.676  17.165  11.057  0.2148 -0.0747 -0.0317
  466loPI    C2 7442   4.764  17.509  11.242 -0.4162  0.1084 -0.0510
  466loPI    C3 7443   4.759  17.166  11.449  0.1008  0.1200 -0.0070
  466loPI   PO4 7444   4.410  17.260  10.808 -0.2177 -0.1052  0.0711
  466loPI   GL1 7445   4.457  17.431  10.395 -0.0285 -0.2659  0.1674
  466loPI   GL2 7446   4.600  17.621  10.354  0.1383  0.0190  0.0420
  466loPI   C1A 7447   4.230  17.469  10.019  0.1882  0.1975 -0.0641
  466loPI   C2A 7448   4.183  17.402   9.537 -0.2973  0.2456  0.0904
  466loPI   C3A 7449   4.213  17.512   9.110  0.0711  0.3073  0.2171
  466loPI   C4A 7450   4.261  17.393   8.711 -0.2274 -0.0468  0.0631
  466loPI   C5A 7451   4.469  17.420   8.275 -0.0691 -0.0024  0.0277
  466loPI   C6A 7452   4.661  17.746   8.089 -0.1845  0.0098  0.2103
  466loPI   C1B 7453   4.664  17.702   9.954  0.1759  0.0298 -0.0289
  466loPI   C2B 7454   4.676  17.637   9.543 -0.1319  0.1366 -0.2786
  466loPI   C3B 7455   4.701  17.744   9.134  0.1195 -0.0664  0.0200
  466loPI   C4B 7456   4.693  17.663   8.670  0.0545 -0.0886 -0.2225
  467loPI    C1 7457  15.014  11.898  11.047 -0.3175  0.0822 -0.1657
  467loPI    C2 7458  15.071  11.568  11.265 -0.0340  0.2620  0.0385
  467loPI    C3 7459  14.701  11.674  11.156 -0.1417 -0.0379  0.1020
  467loPI   PO4 7460  15.170  11.859  10.760 -0.1044  0.2300 -0.0180
  467loPI   GL1 7461  15.002  11.849  10.312  0.0044 -0.0576  0.4110
  467loPI   GL2 7462  15.290  11.730  10.150  0.0598  0.0745  0.0671
  467loPI   C1A 7463  14.864  12.029   9.965  0.0356  0.3757  0.0042
  467loPI   C2A 7464  14.924  11.945   9.482  0.2542  0.1782  0.0714
  467loPI   C3A 7465  14.796  11.952   8.998  0.1503 -0.2461 -0.1387
  467loPI   C4A 7466  14.704  11.909   8.613 -0.0528 -0.1043 -0.1151
  467loPI   C5A 7467  14.837  11.885   8.195  0.1098  0.0944  0.0381
  467loPI   C6A 7468  15.273  11.868   7.946  0.1276 -0.0552  0.0239
  467loPI   C1B 7469  15.334  11.661   9.821 -0.0303 -0.1695 -0.2452
  467loPI   C2B 7470  15.298  11.598   9.398  0.0100  0.0450 -0.5140
  467loPI   C3B 7471  15.230  11.624   9.011  0.0146  0.1650 -0.0507
  467loPI   C4B 7472  15.220  11.707   8.610 -0.3432 -0.0536  0.1337
  468loPI    C1 7473  13.645  11.308  10.701  0.4261 -0.1377 -0.0918
  468loPI    C2 7474  13.902  11.599  10.602  0.2127  0.1074  0.0597
  468loPI    C3 7475  13.767  11.571  10.977 -0.5023  0.4071 -0.1568
  468loPI   PO4 7476  13.562  11.162  10.582  0.1152 -0.0985  0.4604
  468loPI   GL1 7477  13.428  10.957  10.215 -0.0447 -0.2051 -0.0292
  468loPI   GL2 7478  13.257  10.819  10.298  0.0301 -0.2145 -0.2402
  468loPI   C1A 7479  13.483  11.061   9.782 -0.0328 -0.0759  0.1832
  468loPI   C2A 7480  13.450  11.194   9.313 -0.1162  0.1350  0.2193
  468loPI   C3A 7481  13.339  11.166   8.815 -0.1191  0.0293  0.0694
  468loPI   C4A 7482  13.238  11.085   8.392 -0.2031 -0.2211 -0.4167
  468loPI   C5A 7483  13.302  11.123   8.040  0.5385  0.0929 -0.1305
  468loPI   C6A 7484  13.432  10.992   7.581 -0.0645  0.0899 -0.1021
  468loPI   C1B 7485  13.003  10.896   9.955 -0.2449 -0.0100  0.0570
  468loPI   C2B 7486  13.078  10.924   9.463  0.0938 -0.1061  0.2545
  468loPI   C3B 7487  12.942  10.927   9.045  0.0369  0.2379 -0.1106
  468loPI   C4B 7488  12.850  10.898   8.594 -0.0764  0.0867  0.1138
  469loPI    C1 7489   6.665   8.457  10.526  0.1563 -0.1303 -0.0701
  469loPI    C2 7490   6.995   8.553  10.731  0.0286 -0.0011  0.0783
  469loPI    C3 7491   6.662   8.452  10.926 -0.0487 -0.0355 -0.0695
  469loPI   PO4 7492   6.693   8.588  10.300  0.1858  0.5704  0.2307
  469loPI   GL1 7493   6.681   8.656   9.835  0.2543  0.0265 -0.1883
  469loPI   GL2 7494   6.533   8.293   9.829  0.3343  0.0015  0.2215
  469loPI   C1A 7495   6.614   8.695   9.397  0.1720  0.1474  0.2178
  469loPI   C2A 7496   6.528   8.749   8.969 -0.0527  0.1076  0.0309
  469loPI   C3A 7497   6.392   8.783   8.511 -0.1000  0.0149 -0.0180
  469loPI   C4A 7498   6.415   8.863   8.040 -0.1811  0.0146  0.4642
  469loPI   C5A 7499   6.049   9.039   7.828  0.0116  0.0351 -0.0213
  469loPI   C6A 7500   5.558   9.075   7.698  0.1793 -0.2751 -0.1029
  469loPI   C1B 7501   6.528   8.212   9.395  0.3496  0.2631  0.0335
  469loPI   C2B 7502   6.490   8.230   8.948  0.0292 -0.1030 -0.2275
  469loPI   C3B 7503   6.489   8.310   8.461 -0.0153 -0.2305  0.1610
  469loPI   C4B 7504   6.474   8.335   8.054 -0.2214 -0.0456 -0.1556
  470loPI    C1 7505   6.647  13.759  10.752 -0.0211 -0.2948 -0.0463
  470loPI    C2 7506   6.387  13.767  11.056 -0.0304 -0.2511 -0.0553
  470loPI    C3 7507   6.752  13.613  11.109  0.0709  0.0233  0.0603
  470loPI   PO4 7508   6.534  13.595  10.580  0.1026 -0.1323  0.1243
  470loPI   GL1 7509   6.451  13.513  10.176 -0.2329 -0.2704  0.4019
  470loPI   GL2 7510   6.214  13.319  10.052 -0.2665 -0.0799  0.0164
  470loPI   C1A 7511   6.576  13.490   9.782  0.0009 -0.3454 -0.1177
  470loPI   C2A 7512   6.641  13.509   9.304 -0.2677  0.1123 -0.3891
  470loPI   C3A 7513   6.569  13.415   8.911  0.0911 -0.3316 -0.2440
  470loPI   C4A 7514   6.640  13.400   8.484 -0.1480  0.0720 -0.0648
  470loPI   C5A 7515   6.392  13.329   8.146  0.2144  0.1780  0.1328
  470loPI   C6A 7516   6.315  13.027   7.737 -0.0348  0.0948  0.0244
  470loPI   C1B 7517   6.166  13.244   9.618  0.2338  0.3896 -0.1424
  470loPI   C2B 7518   6.231  13.176   9.233  0.0921  0.1066  0.2610
  470loPI   C3B 7519   6.066  13.142   8.868 -0.1090  0.1463  0.3063
  470loPI   C4B 7520   6.026  13.103   8.541 -0.0683  0.1552  0.1530
  471loPI    C1 7521  12.458  10.922  10.909  0.1331  0.1366  0.2792
  471loPI    C2 7522  12.282  10.803  10.570  0.0992  0.2160  0.2687
  471loPI    C3 7523  12.438  10.532  10.820  0.0945  0.1551  0.2061
  471loPI   PO4 7524  12.557  11.127  10.758 -0.0593 -0.0773 -0.0716
  471loPI   GL1 7525  12.529  11.136  10.245  0.1054  0.1828 -0.1450
  471loPI   GL2 7526  12.667  11.503  10.190  0.1071 -0.0971 -0.0187
  471loPI   C1A 7527  12.670  11.197   9.769  0.1947 -0.2658 -0.3149
  471loPI   C2A 7528  12.577  11.025   9.412 -0.2115  0.0261  0.1494
  471loPI   C3A 7529  12.497  11.142   9.048 -0.1285  0.2262  0.1175
  471loPI   C4A 7530  12.433  11.188   8.735 -0.0822  0.1059 -0.0247
  471loPI   C5A 7531  12.403  11.197   8.284  0.0304  0.6711  0.0200
  471loPI   C6A 7532  12.742  11.084   8.126 -0.4207  0.0970 -0.4800
  471loPI   C1B 7533  12.578  11.743   9.714  0.2710 -0.2160  0.4482
  471loPI   C2B 7534  12.556  11.615   9.301  0.2900  0.0813 -0.1175
  471loPI   C3B 7535  12.483  11.664   8.966 -0.0246 -0.2294 -0.1557
  471loPI   C4B 7536  12.523  11.643   8.494 -0.4661  0.2100  0.2042
  472loPI    C1 7537   3.553  13.484  10.622  0.0069 -0.3997  0.0567
  472loPI    C2 7538   3.928  13.406  10.736  0.1791  0.0900 -0.1484
  472loPI    C3 7539   3.759  13.755  10.832 -0.2044 -0.1006 -0.1147
  472loPI   PO4 7540   3.497  13.385  10.406 -0.3209 -0.0998 -0.2047
  472loPI   GL1 7541   3.380  13.283   9.934 -0.2450 -0.2495 -0.2492
  472loPI   GL2 7542   3.065  13.208  10.047 -0.2675 -0.0070  0.4481
  472loPI   C1A 7543   3.268  13.225   9.500  0.5185 -0.1764  0.0265
  472loPI   C2A 7544   3.296  13.204   9.115  0.5586  0.0594 -0.0193
  472loPI   C3A 7545   3.187  13.306   8.769  0.0676 -0.3634  0.0836
  472loPI   C4A 7546   3.304  13.322   8.489  0.0225 -0.1759 -0.1006
  472loPI   C5A 7547   3.222  13.286   8.035  0.0965  0.0204 -0.1110
  472loPI   C6A 7548   3.127  13.487   7.602 -0.0976  0.0094  0.0979
  472loPI   C1B 7549   2.831  13.060   9.606 -0.0802 -0.1504 -0.2507
  472loPI   C2B 7550   2.813  12.967   9.213  0.0740  0.1229  0.0631
  472loPI   C3B 7551   2.774  13.013   8.726  0.0765  0.0533 -0.0424
  472loPI   C4B 7552   2.708  12.921   8.321  0.0212  0.0913 -0.0516
  473loPI    C1 7553  11.111   8.988  10.746 -0.1647  0.2545  0.2056
  473loPI    C2 7554  11.058   8.686  11.003 -0.0176 -0.0598 -0.1249
  473loPI    C3 7555  11.071   9.063  11.137 -0.0747 -0.2066  0.3086
  473loPI   PO4 7556  11.322   8.824  10.547 -0.0261  0.0332  0.0234
  473loPI   GL1 7557  11.714   8.903  10.376  0.3214 -0.0559  0.0948
  473loPI   GL2 7558  11.581   8.849  10.033 -0.2860  0.0141 -0.1959
  473loPI   C1A 7559  11.622   9.359  10.288  0.3193 -0.0431  0.0447
  473loPI   C2A 7560  11.633   9.651  10.062 -0.1417  0.3506  0.2034
  473loPI   C3A 7561  11.763   9.617   9.588 -0.3794  0.1735  0.0923
  473loPI   C4A 7562  11.639   9.672   9.140  0.0703  0.0733  0.0300
  473loPI   C5A 7563  11.555   9.606   8.621 -0.1561 -0.0107  0.1194
  473loPI   C6A 7564  11.712   9.813   8.273  0.1233  0.0646  0.0682
  473loPI   C1B 7565  11.654   9.112   9.729 -0.0165 -0.0250  0.1437
  473loPI   C2B 7566  11.744   9.020   9.420  0.2232 -0.1733 -0.2875
  473loPI   C3B 7567  11.584   9.168   9.091 -0.1304 -0.1166 -0.1425
  473loPI   C4B 7568  11.623   9.112   8.615  0.0506  0.0010  0.0459
  474loPI    C1 7569  17.504  18.274  11.035  0.1579 -0.0395  0.0054
  474loPI    C2 7570  17.479  18.123  11.404 -0.0713 -0.1164 -0.0397
  474loPI    C3 7571  17.369  18.501  11.336  0.0443 -0.0779 -0.0164
  474loPI   PO4 7572  17.505  18.026  10.871 -0.0649  0.0190  0.1646
  474loPI   GL1 7573  17.639  17.941  10.523 -0.1280  0.3083  0.0138
  474loPI   GL2 7574  17.883  18.070  10.409 -0.2583  0.2534 -0.1808
  474loPI   C1A 7575  17.477  17.772  10.264  0.2297  0.0932  0.1785
  474loPI   C2A 7576  17.451  17.820   9.760  0.3488  0.1207 -0.2061
  474loPI   C3A 7577  17.507  17.847   9.352  0.0666 -0.0463  0.0608
  474loPI   C4A 7578  17.515  17.688   8.970  0.0049  0.2244  0.0458
  474loPI   C5A 7579  17.628  17.658   8.605  0.2211  0.0774 -0.1831
  474loPI   C6A 7580  17.661  17.708   8.189 -0.1232 -0.0826 -0.1689
  474loPI   C1B 7581  17.873  18.112   9.919  0.0570 -0.4680 -0.0717
  474loPI   C2B 7582  17.930  18.077   9.495  0.1492  0.2108  0.0319
  474loPI   C3B 7583  18.038  17.988   9.110 -0.0047  0.1476 -0.2091
  474loPI   C4B 7584  18.142  18.046   8.616  0.1600  0.0918 -0.1394
  475loPI    C1 7585   2.853   1.342  10.851  0.2392 -0.0713 -0.3690
  475loPI    C2 7586   3.111   1.099  11.037 -0.0255  0.0248  0.1424
  475loPI    C3 7587   3.040   1.464  11.183 -0.1828  0.1358 -0.2003
  475loPI   PO4 7588   2.917   1.396  10.588 -0.0015  0.0837  0.0535
  475loPI   GL1 7589   3.154   1.399  10.244  0.1748  0.0547  0.2955
  475loPI   GL2 7590   3.431   1.212  10.236  0.0695 -0.3311 -0.1071
  475loPI   C1A 7591   2.885   1.452   9.956 -0.5218 -0.0748  0.0312
  475loPI   C2A 7592   2.870   1.554   9.461  0.1562  0.0823  0.0137
  475loPI   C3A 7593   2.837   1.539   9.019 -0.0555  0.0063  0.0967
  475loPI   C4A 7594   2.779   1.440   8.581 -0.1347 -0.1979  0.1828
  475loPI   C5A 7595   2.913   1.213   8.221  0.2657 -0.0835  0.1279
  475loPI   C6A 7596   3.005   1.325   7.772  0.0426  0.3247  0.3035
  475loPI   C1B 7597   3.399   1.245   9.862 -0.2879  0.0967  0.3437
  475loPI   C2B 7598   3.309   1.235   9.462  0.2317 -0.0377  0.4343
  475loPI   C3B 7599   3.341   1.257   8.971 -0.1767 -0.0559  0.0105
  475loPI   C4B 7600   3.276   1.196   8.588  0.1804 -0.0927 -0.0831
  476loPI    C1 7601  12.066  11.189  10.825  0.1966  0.2041  0.0161
  476loPI    C2 7602  11.834  11.487  10.957  0.0036 -0.0389  0.2369
  476loPI    C3 7603  11.792  11.119  11.108 -0.0058 -0.2590 -0.2818
  476loPI   PO4 7604  12.030  11.203  10.578  0.0599 -0.2443 -0.1177
  476loPI   GL1 7605  11.933  10.972  10.251  0.2270 -0.4829  0.1213
  476loPI   GL2 7606  12.101  10.848  10.061 -0.1316 -0.0261 -0.0117
  476loPI   C1A 7607  11.635  11.123   9.948 -0.4387  0.3429  0.0403
  476loPI   C2A 7608  11.523  11.088   9.508 -0.0337 -0.2832  0.0056
  476loPI   C3A 7609  11.546  11.141   9.020 -0.0795  0.2123 -0.3142
  476loPI   C4A 7610  11.592  11.328   8.538 -0.2357  0.0684  0.0434
  476loPI   C5A 7611  11.483  11.137   8.117 -0.4152 -0.0115  0.0276
  476loPI   C6A 7612  11.163  11.291   7.940  0.1125 -0.2955  0.0825
  476loPI   C1B 7613  12.119  10.833   9.620 -0.0189 -0.1587 -0.3102
  476loPI   C2B 7614  11.983  10.945   9.250  0.1855  0.0779  0.1123
  476loPI   C3B 7615  11.997  10.830   8.875  0.1165  0.2863  0.2227
  476loPI   C4B 7616  11.990  10.995   8.458 -0.1258 -0.4414 -0.1312
  477loPI    C1 7617  12.734  14.334  11.193 -0.0196  0.0709 -0.0656
  477loPI    C2 7618  12.733  14.013  11.432  0.2483  0.1544  0.0515
  477loPI    C3 7619  12.403  14.236  11.396  0.1117 -0.0371  0.0995
  477loPI   PO4 7620  12.887  14.269  10.935 -0.1072 -0.1963 -0.2205
  477loPI   GL1 7621  12.763  14.247  10.443 -0.1926  0.0231  0.0507
  477loPI   GL2 7622  12.514  14.299  10.303  0.2159  0.2968 -0.0643
  477loPI   C1A 7623  13.010  14.119  10.067 -0.0506 -0.1769  0.3263
  477loPI   C2A 7624  13.039  14.145   9.538  0.1611 -0.3156 -0.1122
  477loPI   C3A 7625  12.960  14.061   9.100 -0.0077 -0.1392  0.1870
  477loPI   C4A 7626  12.839  13.913   8.690 -0.3190 -0.0434  0.2299
  477loPI   C5A 7627  12.680  13.804   8.360 -0.0554 -0.0096 -0.0664
  477loPI   C6A 7628  12.521  14.043   8.027 -0.1864 -0.1908 -0.1322
  477loPI   C1B 7629  12.558  14.347   9.886 -0.0131  0.1147 -0.0388
  477loPI   C2B 7630  12.603  14.289   9.375  0.0161 -0.0440  0.4138
  477loPI   C3B 7631  12.577  14.310   8.904 -0.2035 -0.0905  0.0860
  477loPI   C4B 7632  12.563  14.378   8.478 -0.2424  0.0247  0.0263
  478loPI    C1 7633  16.384   0.653  10.779  0.1595 -0.0458 -0.0414
  478loPI    C2 7634  16.529   0.910  11.049  0.1879 -0.2050  0.0966
  478loPI    C3 7635  16.518   0.519  11.131 -0.2155 -0.2094  0.0438
  478loPI   PO4 7636  16.450   0.730  10.557  0.5215  0.1597  0.1003
  478loPI   GL1 7637  16.326   1.065  10.237  0.1096  0.2962 -0.0361
  478loPI   GL2 7638  16.000   1.188  10.248  0.2284  0.1921  0.0043
  478loPI   C1A 7639  16.569   0.924   9.788 -0.0077 -0.1327  0.0708
  478loPI   C2A 7640  16.549   0.881   9.367  0.2956 -0.1888 -0.1700
  478loPI   C3A 7641  16.633   0.982   8.981 -0.1740 -0.1628  0.1546
  478loPI   C4A 7642  16.667   0.992   8.522 -0.2280  0.2200  0.0397
  478loPI   C5A 7643  16.631   0.793   8.111  0.1742 -0.2311 -0.0115
  478loPI   C6A 7644  16.670   0.812   7.700  0.1703  0.2047  0.2073
  478loPI   C1B 7645  15.973   1.205   9.818  0.1909 -0.1961 -0.2887
  478loPI   C2B 7646  16.050   1.212   9.424 -0.1709  0.1040  0.3293
  478loPI   C3B 7647  16.187   1.215   9.059 -0.0188 -0.0607 -0.2345
  478loPI   C4B 7648  16.218   1.216   8.568 -0.0884  0.2266 -0.0060
  479loPI    C1 7649   2.318  13.829  10.506  0.0291  0.0483 -0.1366
  479loPI    C2 7650   1.974  13.916  10.691  0.0577 -0.1019 -0.0110
  479loPI    C3 7651   2.268  13.732  10.891  0.1608 -0.0949 -0.1546
  479loPI   PO4 7652   2.213  13.909  10.221 -0.1967  0.3641  0.0079
  479loPI   GL1 7653   2.286  13.620   9.857 -0.0017  0.2977 -0.3651
  479loPI   GL2 7654   2.388  13.823   9.716  0.1173  0.1963  0.2369
  479loPI   C1A 7655   2.346  13.323   9.574 -0.0804  0.2424 -0.0821
  479loPI   C2A 7656   2.352  13.250   9.148 -0.2125 -0.2411 -0.1291
  479loPI   C3A 7657   2.315  13.229   8.812  0.0758 -0.2547 -0.1417
  479loPI   C4A 7658   2.344  13.250   8.458 -0.2575  0.0738 -0.2362
  479loPI   C5A 7659   2.382  13.197   8.015 -0.0396  0.1395 -0.3444
  479loPI   C6A 7660   2.634  13.334   7.680 -0.2298  0.0383  0.1214
  479loPI   C1B 7661   2.340  13.764   9.239  0.1935 -0.1327  0.2997
  479loPI   C2B 7662   2.329  13.789   8.754 -0.0650 -0.1754 -0.2363
  479loPI   C3B 7663   2.368  13.750   8.257 -0.0805 -0.4151 -0.1621
  479loPI   C4B 7664   2.268  13.686   7.865  0.3355 -0.1840 -0.0937
  480loPI    C1 7665   0.336  12.732  10.782  0.2818 -0.0231  0.0076
  480loPI    C2 7666   0.563  12.916  11.055 -0.0277  0.0031  0.2538
  480loPI    C3 7667   0.168  12.891  11.109 -0.0956  0.0151 -0.1994
  480loPI   PO4 7668   0.518  12.463  10.766  0.2045  0.0234 -0.0909
  480loPI   GL1 7669   0.583  12.469  10.288 -0.1834  0.3434 -0.2644
  480loPI   GL2 7670   0.720  12.554  10.053 -0.3133 -0.1386 -0.0876
  480loPI   C1A 7671   0.255  12.394   9.983  0.1815  0.2296 -0.0514
  480loPI   C2A 7672   0.230  12.482   9.564 -0.2003  0.0394  0.1192
  480loPI   C3A 7673   0.181  12.464   9.070  0.0344 -0.0101 -0.0580
  480loPI   C4A 7674   0.128  12.604   8.668 -0.3573  0.2894 -0.1511
  480loPI   C5A 7675   0.103  12.516   8.189  0.0580  0.1660 -0.1451
  480loPI   C6A 7676  -0.186  12.386   7.867 -0.2193 -0.3240 -0.2500
  480loPI   C1B 7677   0.629  12.713   9.716  0.1395 -0.0106  0.3957
  480loPI   C2B 7678   0.558  12.744   9.236 -0.1446  0.1031 -0.1142
  480loPI   C3B 7679   0.576  12.741   8.873  0.1756 -0.4025  0.0853
  480loPI   C4B 7680   0.550  12.751   8.424  0.0971  0.0141  0.1288
  481loPI    C1 7681   7.773   4.719  10.030 -0.2943 -0.0616 -0.1012
  481loPI    C2 7682   7.673   4.781  10.412 -0.0217 -0.1191 -0.0183
  481loPI    C3 7683   8.056   4.807  10.299 -0.1124 -0.0063 -0.3075
  481loPI   PO4 7684   7.577   4.577   9.810  0.0909 -0.0030 -0.0741
  481loPI   GL1 7685   7.517   4.533   9.367 -0.3309 -0.1512  0.0312
  481loPI   GL2 7686   7.650   4.234   9.307 -0.5300 -0.1003  0.2625
  481loPI   C1A 7687   7.265   4.788   9.049 -0.3495 -0.0999  0.1087
  481loPI   C2A 7688   7.236   5.202   8.965 -0.1966  0.2245  0.2623
  481loPI   C3A 7689   7.404   5.486   8.692  0.0560 -0.0493 -0.2217
  481loPI   C4A 7690   7.376   5.711   8.368  0.3573 -0.1862 -0.2522
  481loPI   C5A 7691   7.336   5.993   8.045  0.0391 -0.1274  0.1617
  481loPI   C6A 7692   7.436   6.226   7.668  0.0783  0.0171 -0.0579
  481loPI   C1B 7693   7.478   4.339   8.913  0.5064 -0.1184  0.3071
  481loPI   C2B 7694   7.222   4.535   8.550  0.0597 -0.0803  0.0410
  481loPI   C3B 7695   6.984   4.486   8.231 -0.0628 -0.3514  0.0945
  481loPI   C4B 7696   6.604   4.609   7.916 -0.1143 -0.1187  0.0061
  482loPI    C1 7697   4.552  16.123  10.871  0.1595 -0.1845 -0.0028
  482loPI    C2 7698   4.369  15.872  11.122  0.0656 -0.1219 -0.0081
  482loPI    C3 7699   4.684  16.084  11.247  0.3005 -0.4242 -0.0749
  482loPI   PO4 7700   4.511  15.954  10.647 -0.0664 -0.1641 -0.0162
  482loPI   GL1 7701   4.696  16.007  10.257  0.1551 -0.0062 -0.0261
  482loPI   GL2 7702   4.543  16.348  10.323  0.2075  0.3200 -0.2260
  482loPI   C1A 7703   4.689  16.208   9.820 -0.1784 -0.0201  0.3094
  482loPI   C2A 7704   4.815  16.213   9.437 -0.0275  0.1919  0.2795
  482loPI   C3A 7705   4.806  16.130   9.013 -0.0212  0.1382 -0.3083
  482loPI   C4A 7706   4.714  16.047   8.649 -0.1511 -0.3501  0.1769
  482loPI   C5A 7707   4.844  16.007   8.128 -0.0883 -0.0718 -0.0908
  482loPI   C6A 7708   4.679  15.940   7.755  0.2045 -0.0499  0.1291
  482loPI   C1B 7709   4.502  16.605   9.988 -0.3616 -0.0324  0.1357
  482loPI   C2B 7710   4.575  16.677   9.556  0.3280  0.1131 -0.0680
  482loPI   C3B 7711   4.715  16.767   9.195 -0.1801 -0.3138 -0.1959
  482loPI   C4B 7712   4.737  16.634   8.918  0.1878  0.0431 -0.3523
  483loPI    C1 7713   6.948  11.124  10.542 -0.1673  0.1963  0.0396
  483loPI    C2 7714   7.199  10.971  10.813 -0.0986 -0.2696 -0.2754
  483loPI    C3 7715   7.343  11.147  10.484 -0.1842  0.1047 -0.1177
  483loPI   PO4 7716   6.823  11.021  10.491 -0.1681  0.0497  0.1582
  483loPI   GL1 7717   6.666  10.822  10.096 -0.0666  0.1554  0.2404
  483loPI   GL2 7718   6.515  10.539   9.997 -0.2905  0.2358 -0.1383
  483loPI   C1A 7719   6.698  10.856   9.622  0.4242  0.0893 -0.2844
  483loPI   C2A 7720   6.746  10.923   9.225  0.1057  0.4086  0.1447
  483loPI   C3A 7721   6.515  10.770   8.893 -0.0756 -0.4046 -0.2772
  483loPI   C4A 7722   6.305  10.739   8.503  0.0228  0.0081  0.1796
  483loPI   C5A 7723   6.022  10.662   8.097 -0.1813 -0.2713  0.1106
  483loPI   C6A 7724   5.759  10.512   7.751  0.5465 -0.0135 -0.0623
  483loPI   C1B 7725   6.276  10.588   9.746 -0.1315 -0.0211 -0.2315
  483loPI   C2B 7726   6.242  10.568   9.259 -0.4195 -0.0659  0.2141
  483loPI   C3B 7727   6.041  10.520   8.847  0.1675 -0.0996 -0.1717
  483loPI   C4B 7728   5.925  10.389   8.489  0.0936  0.0491 -0.3269
  484loPI    C1 7729  10.267   4.337   9.969  0.1041 -0.0941  0.1105
  484loPI    C2 7730  10.302   4.716  10.093  0.2275 -0.0505 -0.0551
  484loPI    C3 7731  10.274   4.420  10.360 -0.1871  0.1017  0.0781
  484loPI   PO4 7732  10.310   4.417   9.725 -0.2405 -0.0051 -0.1537
  484loPI   GL1 7733  10.370   4.266   9.397 -0.1169  0.0499  0.1178
  484loPI   GL2 7734  10.553   3.985   9.247 -0.3211  0.1499  0.0587
  484loPI   C1A 7735  10.389   4.432   9.001  0.1239 -0.0101 -0.1751
  484loPI   C2A 7736  10.453   4.270   8.566  0.0121 -0.1204 -0.3431
  484loPI   C3A 7737  10.791   4.419   8.347 -0.2291  0.0446 -0.2648
  484loPI   C4A 7738  10.576   4.539   7.983 -0.0397 -0.0141 -0.2087
  484loPI   C5A 7739  10.514   4.871   7.801 -0.0155 -0.2772 -0.0479
  484loPI   C6A 7740  10.607   5.167   7.772 -0.0478 -0.4606  0.0201
  484loPI   C1B 7741  10.432   3.821   8.844 -0.2168 -0.1382  0.2333
  484loPI   C2B 7742  10.232   3.799   8.469 -0.4304  0.0056 -0.1949
  484loPI   C3B 7743  10.107   3.909   8.103 -0.1185 -0.1820  0.1274
  484loPI   C4B 7744  10.171   3.991   7.668  0.0618 -0.5496  0.2896
  485loPI    C1 7745  16.078   8.459  10.692  0.0186  0.0331 -0.0920
  485loPI    C2 7746  16.129   8.085  10.561 -0.2161 -0.1113  0.2148
  485loPI    C3 7747  16.066   8.153  10.950  0.0569  0.2709  0.1976
  485loPI   PO4 7748  16.157   8.594  10.405 -0.0016  0.2936 -0.2687
  485loPI   GL1 7749  16.107   8.901  10.148 -0.3119 -0.1497 -0.0572
  485loPI   GL2 7750  16.265   9.162   9.973  0.2607  0.2477  0.2083
  485loPI   C1A 7751  16.084   8.688   9.726  0.4199  0.2084  0.1452
  485loPI   C2A 7752  16.081   8.567   9.252 -0.2200 -0.4435  0.0200
  485loPI   C3A 7753  16.124   8.568   8.850 -0.1463 -0.0751  0.1861
  485loPI   C4A 7754  16.133   8.577   8.412  0.2419 -0.1981  0.1434
  485loPI   C5A 7755  16.251   8.455   8.126  0.3383 -0.0789 -0.2485
  485loPI   C6A 7756  16.549   8.456   7.830 -0.2035 -0.2639  0.1230
  485loPI   C1B 7757  16.131   9.240   9.599  0.0387 -0.3272  0.3208
  485loPI   C2B 7758  16.126   9.103   9.251 -0.0137  0.0823 -0.0034
  485loPI   C3B 7759  16.156   9.138   8.760  0.2618  0.0830 -0.3873
  485loPI   C4B 7760  16.002   9.029   8.388  0.1360 -0.0422 -0.0428
  486loPI    C1 7761  18.019   9.104  10.822 -0.2028 -0.0069  0.0585
  486loPI    C2 7762  18.234   9.123  11.158 -0.1054  0.2411 -0.0154
  486loPI    C3 7763  18.063   9.453  11.011  0.1068  0.1964 -0.3726
  486loPI   PO4 7764  17.945   8.873  10.780  0.4174 -0.0244 -0.2702
  486loPI   GL1 7765  17.617   8.956  10.376  0.0343  0.0294 -0.2190
  486loPI   GL2 7766  17.411   8.762  10.279 -0.0037 -0.4167  0.0508
  486loPI   C1A 7767  17.871   8.702  10.134 -0.2166 -0.0697 -0.0888
  486loPI   C2A 7768  17.927   8.591   9.670  0.0508  0.0801  0.2271
  486loPI   C3A 7769  17.922   8.684   9.254 -0.2661  0.0060  0.0386
  486loPI   C4A 7770  17.815   8.509   8.912 -0.1231  0.2990 -0.0127
  486loPI   C5A 7771  17.867   8.643   8.506 -0.2027  0.1689 -0.0366
  486loPI   C6A 7772  17.734   9.033   8.105  0.1876 -0.0598 -0.0851
  486loPI   C1B 7773  17.483   8.912   9.874 -0.0801 -0.2702 -0.4222
  486loPI   C2B 7774  17.436   8.847   9.472  0.0200  0.0125  0.0467
  486loPI   C3B 7775  17.425   8.792   8.988 -0.0027  0.1676  0.0132
  486loPI   C4B 7776  17.384   8.769   8.578  0.0294 -0.0227 -0.0217
  487loPI    C1 7777  13.670  15.232  10.982  0.1384 -0.0315 -0.0430
  487loPI    C2 7778  13.486  15.137  11.325  0.2915 -0.2975 -0.0322
  487loPI    C3 7779  13.823  15.353  11.332  0.2636 -0.2545 -0.0186
  487loPI   PO4 7780  13.562  15.007  10.816  0.2295  0.0843 -0.0522
  487loPI   GL1 7781  13.639  14.770  10.382 -0.0410  0.0091 -0.1504
  487loPI   GL2 7782  13.890  14.583  10.469 -0.1912  0.1436  0.0443
  487loPI   C1A 7783  13.370  14.915   9.973 -0.0115  0.2164 -0.0902
  487loPI   C2A 7784  13.466  14.875   9.421 -0.0187 -0.0807  0.0443
  487loPI   C3A 7785  13.480  14.842   8.973 -0.0441 -0.0138  0.0343
  487loPI   C4A 7786  13.505  14.794   8.462  0.0434 -0.1572  0.1938
  487loPI   C5A 7787  13.603  14.502   8.121 -0.2639  0.0958  0.1698
  487loPI   C6A 7788  13.783  14.305   7.834 -0.1162  0.0260  0.3027
  487loPI   C1B 7789  13.848  14.588   9.942  0.2567  0.0303  0.0752
  487loPI   C2B 7790  13.878  14.467   9.530 -0.2051 -0.0088  0.1164
  487loPI   C3B 7791  13.921  14.503   9.083  0.0265  0.0604  0.0981
  487loPI   C4B 7792  13.851  14.559   8.723  0.1504  0.3270 -0.3433
  488loPI    C1 7793  13.070  13.308  11.256  0.3445  0.2294 -0.0855
  488loPI    C2 7794  12.731  13.485  11.371  0.2401 -0.1167  0.1574
  488loPI    C3 7795  13.081  13.673  11.419  0.1179  0.0917  0.2502
  488loPI   PO4 7796  12.905  13.194  10.982  0.0216  0.1313  0.2406
  488loPI   GL1 7797  12.846  13.268  10.573  0.4179 -0.0673 -0.2142
  488loPI   GL2 7798  12.548  13.520  10.613 -0.0538 -0.3128  0.2894
  488loPI   C1A 7799  12.590  13.301  10.138  0.0268 -0.1811 -0.0014
  488loPI   C2A 7800  12.601  13.344   9.644  0.0691  0.0324  0.0388
  488loPI   C3A 7801  12.541  13.227   9.321 -0.1987  0.1235 -0.0630
  488loPI   C4A 7802  12.553  13.214   8.843 -0.2695 -0.0999  0.0025
  488loPI   C5A 7803  12.465  13.133   8.442 -0.1729  0.1096  0.1230
  488loPI   C6A 7804  12.936  13.277   8.295 -0.1345  0.3037  0.1209
  488loPI   C1B 7805  12.655  13.836  10.233  0.2284  0.2730  0.0487
  488loPI   C2B 7806  12.510  13.883   9.692 -0.1591 -0.0580  0.5100
  488loPI   C3B 7807  12.528  13.746   9.293  0.3267  0.0577 -0.0301
  488loPI   C4B 7808  12.375  13.794   8.887  0.0899 -0.2137  0.1093
  489loPI    C1 7809   0.403  13.231  10.663  0.1249 -0.2136  0.1886
  489loPI    C2 7810   0.751  13.346  10.825  0.1070  0.2692 -0.0961
  489loPI    C3 7811   0.411  13.392  11.030  0.1787  0.0352  0.0803
  489loPI   PO4 7812   0.455  13.313  10.368 -0.0774  0.4823 -0.3711
  489loPI   GL1 7813   0.653  13.177  10.067  0.3129 -0.1381  0.0444
  489loPI   GL2 7814   0.915  13.299   9.921 -0.1372 -0.0317 -0.2080
  489loPI   C1A 7815   0.458  13.178   9.645 -0.0203 -0.3585 -0.1915
  489loPI   C2A 7816   0.561  13.294   9.157 -0.0937  0.2578  0.0548
  489loPI   C3A 7817   0.500  13.302   8.749  0.1994 -0.0570  0.0879
  489loPI   C4A 7818   0.605  13.178   8.230  0.0923  0.1760  0.0241
  489loPI   C5A 7819   0.391  13.106   7.791 -0.0081  0.1107  0.0001
  489loPI   C6A 7820   0.032  12.865   7.632 -0.0982 -0.1148 -0.2715
  489loPI   C1B 7821   0.947  13.476   9.523  0.3463  0.2241 -0.0473
  489loPI   C2B 7822   1.042  13.586   9.158  0.2944  0.1538  0.0423
  489loPI   C3B 7823   0.973  13.546   8.668 -0.2959  0.0392  0.1272
  489loPI   C4B 7824   1.058  13.404   8.205 -0.1059  0.0465  0.0634
  490loPI    C1 7825   3.651  11.547  10.529 -0.2048 -0.0952 -0.1306
  490loPI    C2 7826   3.868  11.644  10.850 -0.2181  0.1303 -0.1878
  490loPI    C3 7827   3.501  11.492  10.895 -0.1034 -0.1259 -0.0932
  490loPI   PO4 7828   3.721  11.432  10.406  0.0527  0.0688  0.3154
  490loPI   GL1 7829   3.866  11.350  10.044 -0.1953 -0.3204  0.0121
  490loPI   GL2 7830   3.620  11.145  10.007  0.1804  0.1543  0.1578
  490loPI   C1A 7831   3.824  11.418   9.606  0.0103 -0.0780 -0.0313
  490loPI   C2A 7832   3.834  11.434   9.225  0.0470 -0.0700 -0.2089
  490loPI   C3A 7833   3.649  11.450   8.845 -0.1210  0.0814  0.0153
  490loPI   C4A 7834   3.571  11.505   8.342 -0.1692  0.1019 -0.1451
  490loPI   C5A 7835   3.407  11.841   7.927  0.1491 -0.1657  0.0821
  490loPI   C6A 7836   3.447  12.271   7.753  0.2998  0.1249 -0.0008
  490loPI   C1B 7837   3.333  11.197   9.724  0.0772 -0.1367  0.1375
  490loPI   C2B 7838   3.354  11.178   9.245  0.0160 -0.3191 -0.1891
  490loPI   C3B 7839   3.175  11.207   8.857  0.1731 -0.0304 -0.0569
  490loPI   C4B 7840   3.095  11.300   8.470 -0.0874  0.0719 -0.1775
  491loPI    C1 7841  18.071  11.331  10.703  0.0090 -0.0953  0.0589
  491loPI    C2 7842  18.006  11.096  11.021 -0.1556 -0.2324 -0.0746
  491loPI    C3 7843  18.123  11.475  11.073  0.0561 -0.3257  0.1437
  491loPI   PO4 7844  18.017  11.220  10.517  0.3598 -0.5264 -0.3779
  491loPI   GL1 7845  18.172  11.238  10.183 -0.0630  0.2254 -0.0307
  491loPI   GL2 7846  18.228  10.936  10.151  0.0861  0.0971  0.1671
  491loPI   C1A 7847  18.046  11.164   9.684  0.0369 -0.1451 -0.0217
  491loPI   C2A 7848  18.072  11.213   9.266 -0.1216 -0.1625 -0.0747
  491loPI   C3A 7849  17.824  11.139   8.892 -0.0537  0.2872 -0.0456
  491loPI   C4A 7850  17.599  11.101   8.440  0.0622  0.0704 -0.1799
  491loPI   C5A 7851  17.262  11.147   8.227 -0.1691  0.0009 -0.2596
  491loPI   C6A 7852  16.841  11.270   8.106  0.0271 -0.0351  0.3648
  491loPI   C1B 7853  18.496  10.919   9.708 -0.3665 -0.0392 -0.1052
  491loPI   C2B 7854  18.464  10.906   9.345  0.1044  0.0570 -0.0816
  491loPI   C3B 7855  18.349  10.945   8.840  0.0074 -0.0478 -0.0462
  491loPI   C4B 7856  18.162  11.098   8.510  0.1468 -0.0546  0.0115
  492loPI    C1 7857   3.351   8.352  10.532  0.1348  0.1770  0.0758
  492loPI    C2 7858   3.594   8.038  10.486 -0.2172 -0.0752 -0.1130
  492loPI    C3 7859   3.438   8.118  10.845  0.1512  0.0991  0.0134
  492loPI   PO4 7860   3.216   8.351  10.334 -0.1091  0.0048  0.0085
  492loPI   GL1 7861   3.177   8.206  10.040 -0.2658  0.0987 -0.0728
  492loPI   GL2 7862   3.545   8.044   9.992 -0.2348  0.2164  0.0929
  492loPI   C1A 7863   2.874   8.185   9.722  0.3121 -0.1942 -0.1759
  492loPI   C2A 7864   2.765   8.314   9.241  0.4043 -0.0545  0.3118
  492loPI   C3A 7865   2.642   8.327   8.825  0.1723  0.5715 -0.0665
  492loPI   C4A 7866   2.723   8.336   8.493  0.0876  0.0242 -0.0785
  492loPI   C5A 7867   2.711   8.126   8.092 -0.1072  0.2249 -0.3668
  492loPI   C6A 7868   2.703   8.173   7.575 -0.1428 -0.3443  0.4668
  492loPI   C1B 7869   3.352   8.052   9.609  0.0996  0.0556  0.1074
  492loPI   C2B 7870   3.232   7.965   9.229  0.0333  0.2040 -0.1319
  492loPI   C3B 7871   3.163   8.079   8.792  0.0401  0.0481 -0.4278
  492loPI   C4B 7872   3.172   8.011   8.361 -0.0327 -0.2986  0.3195
  493loPI    C1 7873   3.518   6.309  10.778  0.2692  0.1483 -0.0484
  493loPI    C2 7874   3.392   6.162  11.129  0.0817 -0.1257 -0.2268
  493loPI    C3 7875   3.514   6.542  11.103 -0.4690  0.0766  0.0095
  493loPI   PO4 7876   3.422   6.319  10.617 -0.4015  0.0070  0.1632
  493loPI   GL1 7877   3.457   6.405  10.162  0.3054 -0.0832 -0.0249
  493loPI   GL2 7878   3.417   6.082  10.195  0.2355 -0.0466 -0.1053
  493loPI   C1A 7879   3.465   6.501   9.769 -0.1149 -0.2341  0.2866
  493loPI   C2A 7880   3.391   6.434   9.398  0.0999 -0.1744 -0.3012
  493loPI   C3A 7881   3.296   6.361   8.999  0.0098 -0.1431  0.0895
  493loPI   C4A 7882   3.344   6.382   8.559 -0.0867  0.1661  0.0998
  493loPI   C5A 7883   3.263   6.277   8.251 -0.1866 -0.2110 -0.0083
  493loPI   C6A 7884   3.048   6.507   7.979 -0.0665  0.0450  0.0916
  493loPI   C1B 7885   3.430   5.935   9.859  0.2777  0.2596 -0.3022
  493loPI   C2B 7886   3.330   5.857   9.362 -0.3012 -0.3124 -0.2221
  493loPI   C3B 7887   3.263   5.864   8.890  0.0657 -0.0698  0.2344
  493loPI   C4B 7888   3.237   5.873   8.466 -0.0429  0.2153 -0.0533
  494loPI    C1 7889  14.171  13.351  11.015  0.1682  0.1844 -0.1325
  494loPI    C2 7890  13.993  13.583  11.288  0.2971  0.2173 -0.0762
  494loPI    C3 7891  14.233  13.285  11.405  0.3243  0.2093 -0.1527
  494loPI   PO4 7892  14.343  13.499  10.821  0.0189  0.3056  0.0153
  494loPI   GL1 7893  14.320  13.688  10.504 -0.1043  0.3025  0.2517
  494loPI   GL2 7894  14.530  13.911  10.478 -0.0328  0.2606 -0.1888
  494loPI   C1A 7895  14.323  13.706  10.086  0.1077 -0.3664 -0.0764
  494loPI   C2A 7896  14.327  13.798   9.702 -0.0571  0.0787  0.3656
  494loPI   C3A 7897  14.351  13.733   9.247  0.3258 -0.2739 -0.0017
  494loPI   C4A 7898  14.323  13.767   8.768 -0.1011  0.1607  0.0071
  494loPI   C5A 7899  14.344  13.663   8.368 -0.1990  0.1324  0.2516
  494loPI   C6A 7900  14.612  13.451   8.164  0.1503  0.0621 -0.0346
  494loPI   C1B 7901  14.704  13.962  10.091  0.0172  0.0273 -0.0531
  494loPI   C2B 7902  14.832  14.036   9.748 -0.2679 -0.0536 -0.0732
  494loPI   C3B 7903  14.793  13.977   9.276  0.1447  0.3811  0.0214
  494loPI   C4B 7904  14.819  14.066   8.786  0.3533  0.0842 -0.0293
  495loPI    C1 7905   2.447  15.681  10.821 -0.1205  0.3694 -0.2229
  495loPI    C2 7906   2.724  15.907  11.000  0.0741 -0.0369  0.0048
  495loPI    C3 7907   2.710  15.514  11.072 -0.4151 -0.0626 -0.1900
  495loPI   PO4 7908   2.531  15.752  10.565 -0.2113 -0.1124  0.5151
  495loPI   GL1 7909   2.579  15.742  10.223  0.0274 -0.0626  0.3063
  495loPI   GL2 7910   2.362  15.846  10.021 -0.0448 -0.1726  0.0818
  495loPI   C1A 7911   2.802  16.052   9.921  0.1473  0.0795 -0.0686
  495loPI   C2A 7912   2.898  16.117   9.595  0.1559 -0.0123  0.0256
  495loPI   C3A 7913   2.875  16.135   9.182  0.1450 -0.1663 -0.2644
  495loPI   C4A 7914   2.805  16.047   8.764 -0.1367 -0.1520 -0.4172
  495loPI   C5A 7915   2.853  15.877   8.278 -0.1710 -0.0177 -0.2092
  495loPI   C6A 7916   2.574  15.929   7.932 -0.1107  0.1974 -0.2411
  495loPI   C1B 7917   2.368  15.968   9.602 -0.0913 -0.1304  0.2796
  495loPI   C2B 7918   2.411  15.847   9.111  0.1118 -0.0993  0.1203
  495loPI   C3B 7919   2.298  15.872   8.731  0.0476 -0.0013 -0.0228
  495loPI   C4B 7920   2.231  15.889   8.274  0.0986 -0.2268  0.1079
  496loPI    C1 7921  11.268  10.578  10.737 -0.4115  0.0239  0.0278
  496loPI    C2 7922  11.055  10.356  10.992 -0.2441  0.1037  0.2408
  496loPI    C3 7923  11.280  10.656  11.129  0.1876 -0.1240  0.0488
  496loPI   PO4 7924  11.431  10.428  10.601  0.0640  0.2173  0.1104
  496loPI   GL1 7925  11.628  10.562  10.308  0.0544 -0.0827 -0.1009
  496loPI   GL2 7926  11.698  10.232  10.226 -0.1296 -0.0441  0.1743
  496loPI   C1A 7927  11.609  10.622   9.868 -0.0800 -0.0762  0.3235
  496loPI   C2A 7928  11.645  10.619   9.425  0.0157 -0.1017 -0.0969
  496loPI   C3A 7929  11.575  10.604   8.970  0.1199 -0.2967  0.0721
  496loPI   C4A 7930  11.556  10.824   8.527 -0.0518 -0.1264 -0.1956
  496loPI   C5A 7931  11.416  10.626   8.178 -0.0726  0.0152  0.1017
  496loPI   C6A 7932  11.144  10.152   8.125 -0.5409  0.0995 -0.1586
  496loPI   C1B 7933  11.731  10.115   9.786 -0.0476  0.2046  0.3830
  496loPI   C2B 7934  11.728  10.158   9.333 -0.0422  0.0293 -0.0945
  496loPI   C3B 7935  11.560  10.114   8.947 -0.1476 -0.0584  0.1511
  496loPI   C4B 7936  11.467  10.153   8.518  0.1483 -0.1007 -0.0774
  497loPI    C1 7937   0.722   1.943  10.787 -0.0007  0.0310 -0.2886
  497loPI    C2 7938   0.798   1.583  10.629 -0.0243 -0.0134 -0.1993
  497loPI    C3 7939   0.944   1.678  10.989 -0.1219  0.0202 -0.1684
  497loPI   PO4 7940   0.786   2.101  10.619 -0.3434 -0.3532 -0.0811
  497loPI   GL1 7941   0.948   2.074  10.246  0.2075  0.3351  0.1434
  497loPI   GL2 7942   1.235   2.308  10.193  0.2742 -0.2537 -0.3294
  497loPI   C1A 7943   0.927   2.057   9.868  0.2411  0.2132  0.1114
  497loPI   C2A 7944   1.004   1.984   9.435 -0.1099  0.0386  0.1838
  497loPI   C3A 7945   1.033   2.050   9.047  0.0148 -0.1457 -0.5669
  497loPI   C4A 7946   0.921   1.999   8.705  0.1972 -0.2384  0.4243
  497loPI   C5A 7947   0.973   2.174   8.343  0.0831 -0.1518  0.3012
  497loPI   C6A 7948   1.124   2.370   7.983 -0.1806 -0.0856 -0.1604
  497loPI   C1B 7949   1.374   2.261   9.762  0.0878 -0.1111 -0.1788
  497loPI   C2B 7950   1.442   2.199   9.361 -0.1218  0.2754  0.0037
  497loPI   C3B 7951   1.484   2.344   8.964  0.1955  0.1756 -0.1263
  497loPI   C4B 7952   1.422   2.313   8.560 -0.3388  0.2393  0.0541
  498loPI    C1 7953  10.829   3.551  10.131 -0.1434  0.1484 -0.0152
  498loPI    C2 7954  11.047   3.886  10.110 -0.0304  0.0761 -0.0075
  498loPI    C3 7955  10.921   3.751  10.465 -0.3583  0.2891 -0.0383
  498loPI   PO4 7956  10.698   3.607   9.919 -0.2172 -0.2166 -0.1044
  498loPI   GL1 7957  10.542   3.540   9.561  0.1575  0.3488  0.0795
  498loPI   GL2 7958  10.733   3.466   9.300  0.1037 -0.1405 -0.0827
  498loPI   C1A 7959  10.235   3.540   9.235  0.4602  0.1887 -0.1486
  498loPI   C2A 7960   9.996   3.557   8.921  0.1271  0.1328  0.3232
  498loPI   C3A 7961  10.037   3.291   8.537  0.0812  0.0513  0.2685
  498loPI   C4A 7962  10.322   3.101   8.247 -0.2247  0.2452 -0.3065
  498loPI   C5A 7963  10.374   3.046   7.872  0.2669 -0.0323  0.0419
  498loPI   C6A 7964  10.439   3.384   7.429  0.0782  0.1057  0.1409
  498loPI   C1B 7965  10.848   3.495   8.979 -0.0735 -0.1562  0.2361
  498loPI   C2B 7966  11.034   3.491   8.587 -0.3480 -0.2974 -0.2597
  498loPI   C3B 7967  11.173   3.660   8.141 -0.3308  0.0309  0.0335
  498loPI   C4B 7968  11.377   3.836   7.655  0.0203  0.0506 -0.2437
  499loPI    C1 7969   5.829  16.036  10.485  0.0838 -0.1452 -0.1473
  499loPI    C2 7970   6.110  15.751  10.478  0.1878 -0.0486  0.0269
  499loPI    C3 7971   5.959  15.876  10.827  0.0277 -0.0016 -0.0578
  499loPI   PO4 7972   5.694  15.973  10.341  0.2172  0.1880  0.0441
  499loPI   GL1 7973   5.605  15.922   9.914 -0.2249 -0.0455  0.3453
  499loPI   GL2 7974   5.594  15.641   9.946 -0.2540  0.3818  0.1794
  499loPI   C1A 7975   5.657  16.141   9.488  0.0958  0.1908 -0.1242
  499loPI   C2A 7976   5.712  16.146   9.072  0.2166 -0.0006 -0.1805
  499loPI   C3A 7977   5.656  16.071   8.711 -0.1055 -0.0639 -0.1895
  499loPI   C4A 7978   5.773  16.030   8.274 -0.0385 -0.3032  0.0023
  499loPI   C5A 7979   6.086  15.835   8.016 -0.2328  0.1526 -0.1486
  499loPI   C6A 7980   6.298  15.979   7.705  0.0696 -0.1490  0.0268
  499loPI   C1B 7981   5.619  15.580   9.476  0.2922  0.0319 -0.0640
  499loPI   C2B 7982   5.641  15.569   8.962  0.0285  0.0654 -0.1362
  499loPI   C3B 7983   5.655  15.588   8.518 -0.1614 -0.0564  0.6895
  499loPI   C4B 7984   5.760  15.443   8.004 -0.0227 -0.2179  0.0225
  500loPI    C1 7985   1.086  12.857  10.407 -0.3561  0.0377 -0.2005
  500loPI    C2 7986   0.702  12.867  10.516 -0.2516 -0.1144  0.1991
  500loPI    C3 7987   0.989  12.860  10.794  0.0374 -0.1754 -0.0939
  500loPI   PO4 7988   1.162  12.661  10.277  0.4008  0.1232  0.2565
  500loPI   GL1 7989   1.160  12.585   9.891  0.0400 -0.0145 -0.0156
  500loPI   GL2 7990   1.063  12.867   9.801 -0.0625 -0.0380  0.2425
  500loPI   C1A 7991   1.085  12.473   9.493 -0.2071 -0.2367  0.1596
  500loPI   C2A 7992   0.980  12.459   9.007  0.2576  0.4090  0.0118
  500loPI   C3A 7993   0.948  12.474   8.499  0.0548  0.0498  0.0356
  500loPI   C4A 7994   1.071  12.377   8.121 -0.2032 -0.2291  0.1099
  500loPI   C5A 7995   1.053  11.980   7.932 -0.2501  0.0402 -0.0478
  500loPI   C6A 7996   0.848  11.593   7.932  0.0171 -0.1805  0.1500
  500loPI   C1B 7997   1.025  12.991   9.404  0.0927 -0.2540 -0.0204
  500loPI   C2B 7998   0.946  13.003   9.005  0.1547 -0.2078 -0.0784
  500loPI   C3B 7999   0.925  13.054   8.600  0.1252  0.3077  0.0279
  500loPI   C4B 8000   1.019  12.877   8.258  0.2161  0.1180 -0.0896
  501loPI    C1 8001   9.599   5.246   9.843  0.2041 -0.0241  0.0183
  501loPI    C2 8002   9.492   5.409  10.192  0.0184  0.0421 -0.0682
  501loPI    C3 8003   9.553   5.015  10.166  0.1788  0.0564  0.0726
  501loPI   PO4 8004   9.426   5.346   9.710 -0.1091  0.1701 -0.1484
  501loPI   GL1 8005   9.329   5.263   9.283  0.0909 -0.0884 -0.0843
  501loPI   GL2 8006   9.664   5.217   9.313  0.1181  0.0555  0.0069
  501loPI   C1A 8007   9.307   5.402   8.908 -0.1413  0.1753  0.2726
  501loPI   C2A 8008   9.555   5.398   8.509  0.1131  0.0406 -0.0384
  501loPI   C3A 8009   9.627   5.378   8.128  0.1505 -0.2207 -0.0271
  501loPI   C4A 8010   9.757   5.139   7.760  0.1794  0.0229  0.0954
  501loPI   C5A 8011   9.562   4.889   7.394 -0.0722  0.0453 -0.0530
  501loPI   C6A 8012   9.268   4.631   7.323  0.1531 -0.2858  0.1231
  501loPI   C1B 8013   9.823   5.095   9.000  0.2632 -0.4628 -0.2903
  501loPI   C2B 8014   9.797   4.988   8.636  0.0216  0.1589  0.1920
  501loPI   C3B 8015   9.655   4.769   8.253 -0.0777  0.4708 -0.2725
  501loPI   C4B 8016   9.528   4.615   7.834  0.0404  0.1379  0.2968
  502loPI    C1 8017  14.534   6.376  10.762 -0.1094  0.0132 -0.0205
  502loPI    C2 8018  14.145   6.371  10.853 -0.0209  0.1224  0.3847
  502loPI    C3 8019  14.418   6.306  11.138  0.2639  0.2005  0.1348
  502loPI   PO4 8020  14.490   6.319  10.442 -0.1741  0.0254  0.2692
  502loPI   GL1 8021  14.766   6.291  10.035 -0.0051  0.0670 -0.1644
  502loPI   GL2 8022  14.977   6.030  10.062 -0.2424  0.0868  0.0662
  502loPI   C1A 8023  14.756   6.230   9.605  0.0912 -0.0677 -0.0372
  502loPI   C2A 8024  14.771   6.231   9.089 -0.5113  0.1787  0.1844
  502loPI   C3A 8025  14.792   6.236   8.668  0.0313 -0.0339  0.0129
  502loPI   C4A 8026  14.812   6.125   8.310  0.5023 -0.2787  0.3785
  502loPI   C5A 8027  15.083   5.960   7.882 -0.0882  0.1323  0.0374
  502loPI   C6A 8028  15.124   5.778   7.589  0.1016  0.2610 -0.1298
  502loPI   C1B 8029  15.036   5.800   9.686 -0.0490 -0.1502  0.0169
  502loPI   C2B 8030  15.187   5.930   9.311 -0.1220 -0.2407 -0.1716
  502loPI   C3B 8031  15.251   5.942   8.868  0.2789  0.1644  0.1429
  502loPI   C4B 8032  15.261   5.969   8.438  0.2521  0.2053 -0.3198
  503loPI    C1 8033  14.210  12.855  10.891  0.1278  0.1512  0.0790
  503loPI    C2 8034  14.552  12.647  10.878  0.0570  0.0378  0.0239
  503loPI    C3 8035  14.447  12.838  11.213  0.0176 -0.1938  0.1458
  503loPI   PO4 8036  14.139  12.963  10.615  0.1054  0.1280  0.1297
  503loPI   GL1 8037  14.228  13.247  10.287  0.4089 -0.2720 -0.3503
  503loPI   GL2 8038  13.893  13.451  10.198  0.0211  0.3265  0.1092
  503loPI   C1A 8039  14.448  13.304   9.940  0.2549  0.2547 -0.2539
  503loPI   C2A 8040  14.340  13.262   9.631 -0.1062 -0.4840 -0.1673
  503loPI   C3A 8041  14.333  13.219   9.181 -0.1971 -0.4454  0.0771
  503loPI   C4A 8042  14.347  13.271   8.705  0.6182 -0.0833  0.1071
  503loPI   C5A 8043  14.331  13.038   8.245  0.0553 -0.0510  0.0922
  503loPI   C6A 8044  13.994  12.656   8.109 -0.0889  0.1496 -0.2395
  503loPI   C1B 8045  13.908  13.513   9.850 -0.1235 -0.0635  0.2771
  503loPI   C2B 8046  13.799  13.530   9.482  0.0857 -0.0649  0.2197
  503loPI   C3B 8047  13.954  13.510   9.040 -0.0525 -0.2929 -0.0357
  503loPI   C4B 8048  13.867  13.595   8.575 -0.1728 -0.0325  0.0687
  504loPI    C1 8049   9.220  14.173  10.844 -0.4447 -0.2792 -0.1463
  504loPI    C2 8050   9.027  14.488  10.691  0.0145 -0.0099 -0.1889
  504loPI    C3 8051   9.233  14.526  11.032 -0.1477 -0.3382 -0.0500
  504loPI   PO4 8052   9.092  13.980  10.601  0.1342 -0.1496 -0.1306
  504loPI   GL1 8053   9.103  13.913  10.177  0.1253 -0.2068 -0.0720
  504loPI   GL2 8054   8.817  13.651  10.132  0.3582  0.1825  0.1304
  504loPI   C1A 8055   9.318  14.073   9.870  0.2489  0.0579  0.0145
  504loPI   C2A 8056   9.303  13.960   9.457  0.2162 -0.1407  0.2251
  504loPI   C3A 8057   9.381  14.059   9.033  0.0706 -0.0414 -0.0688
  504loPI   C4A 8058   9.242  14.020   8.518 -0.1294  0.0221 -0.1530
  504loPI   C5A 8059   9.108  13.808   8.141 -0.4271  0.1057  0.0254
  504loPI   C6A 8060   8.890  13.576   7.866  0.1619  0.2225  0.0561
  504loPI   C1B 8061   8.937  13.772   9.652  0.0117 -0.2885  0.0711
  504loPI   C2B 8062   8.889  13.825   9.160  0.1198  0.3257  0.2383
  504loPI   C3B 8063   8.730  13.825   8.721  0.1036 -0.2267 -0.1247
  504loPI   C4B 8064   8.668  13.648   8.316 -0.1745 -0.1215  0.1751
  505loPI    C1 8065   6.637   3.595  10.223  0.3730  0.1252  0.0230
  505loPI    C2 8066   6.379   3.334  10.383  0.0502  0.3734 -0.0803
  505loPI    C3 8067   6.699   3.452  10.592 -0.1068  0.3270  0.1911
  505loPI   PO4 8068   6.699   3.553  10.078  0.0903  0.0558 -0.0666
  505loPI   GL1 8069   6.674   3.652   9.599 -0.2207 -0.1933  0.1028
  505loPI   GL2 8070   6.749   3.988   9.642 -0.0891  0.0953  0.1760
  505loPI   C1A 8071   6.688   3.747   9.282 -0.1083  0.3832  0.4488
  505loPI   C2A 8072   6.610   3.784   8.734 -0.0946 -0.1655 -0.0549
  505loPI   C3A 8073   6.544   3.624   8.341 -0.1489  0.0722  0.1738
  505loPI   C4A 8074   6.330   3.408   7.965 -0.2890 -0.2631  0.2315
  505loPI   C5A 8075   6.169   3.257   7.710 -0.1715  0.3505 -0.0453
  505loPI   C6A 8076   6.373   2.931   7.364 -0.0939 -0.0392  0.2113
  505loPI   C1B 8077   6.488   4.330   9.555  0.1453 -0.2230 -0.0294
  505loPI   C2B 8078   6.466   4.582   9.178  0.0497 -0.3297  0.0758
  505loPI   C3B 8079   6.161   4.786   9.013  0.0565 -0.3480  0.1261
  505loPI   C4B 8080   5.977   4.926   8.611 -0.0169 -0.1248  0.0820
  506loPI    C1 8081   8.388  16.380  10.396  0.0257 -0.0798 -0.2521
  506loPI    C2 8082   8.098  16.609  10.243  0.0025 -0.1533 -0.3188
  506loPI    C3 8083   8.088  16.213  10.191 -0.2344 -0.2296  0.2347
  506loPI   PO4 8084   8.605  16.544  10.356 -0.1484  0.1720  0.2087
  506loPI   GL1 8085   8.801  16.579   9.904  0.0105  0.2172  0.0352
  506loPI   GL2 8086   8.509  16.580   9.867 -0.2900 -0.0763 -0.2706
  506loPI   C1A 8087   8.861  16.576   9.483  0.0773 -0.0862 -0.2648
  506loPI   C2A 8088   8.900  16.420   9.075  0.0972 -0.0177  0.2643
  506loPI   C3A 8089   8.848  16.381   8.650  0.5065  0.1095  0.1190
  506loPI   C4A 8090   9.059  16.307   8.169  0.1289  0.2863  0.3679
  506loPI   C5A 8091   8.804  16.132   7.907  0.0011  0.1101  0.1115
  506loPI   C6A 8092   8.664  16.149   7.467  0.0690  0.0550  0.1659
  506loPI   C1B 8093   8.309  16.829   9.580 -0.0767  0.2482  0.1278
  506loPI   C2B 8094   8.351  16.800   9.197 -0.0023  0.0951 -0.2250
  506loPI   C3B 8095   8.392  16.708   8.846 -0.0439 -0.0446 -0.0539
  506loPI   C4B 8096   8.324  16.579   8.467 -0.3426  0.3096  0.1035
  507loPI    C1 8097  17.884   7.296  10.950 -0.0154 -0.0057 -0.0969
  507loPI    C2 8098  18.220   7.169  11.126  0.1215  0.1896 -0.2132
  507loPI    C3 8099  17.904   7.270  11.349  0.0639 -0.1966 -0.1119
  507loPI   PO4 8100  17.960   7.439  10.779 -0.3263 -0.4528  0.0231
  507loPI   GL1 8101  17.748   7.454  10.390  0.1001  0.2364 -0.2051
  507loPI   GL2 8102  17.894   7.643  10.205  0.2108 -0.0051 -0.3284
  507loPI   C1A 8103  17.597   7.204  10.009 -0.0292  0.0212  0.1019
  507loPI   C2A 8104  17.484   7.387   9.622  0.5843 -0.3147 -0.1814
  507loPI   C3A 8105  17.513   7.243   9.253 -0.2372  0.1111 -0.1659
  507loPI   C4A 8106  17.515   7.208   8.774  0.0170  0.4343  0.5109
  507loPI   C5A 8107  17.521   7.084   8.339 -0.3406 -0.3808 -0.2029
  507loPI   C6A 8108  17.127   6.945   8.515  0.2932  0.2621 -0.0995
  507loPI   C1B 8109  17.921   7.597   9.785  0.1965  0.1133 -0.1220
  507loPI   C2B 8110  17.906   7.563   9.323  0.1762 -0.2997  0.0245
  507loPI   C3B 8111  17.891   7.543   8.915  0.0282  0.1017  0.0028
  507loPI   C4B 8112  17.919   7.406   8.525 -0.0681 -0.0698  0.0785
  508loPI    C1 8113   6.953  18.000  10.593 -0.1213  0.0917  0.0088
  508loPI    C2 8114   6.994  18.331  10.373  0.1635 -0.0228 -0.1164
  508loPI    C3 8115   6.906  18.359  10.762 -0.2946  0.1828 -0.2268
  508loPI   PO4 8116   7.108  17.808  10.460  0.0943 -0.1654 -0.0866
  508loPI   GL1 8117   7.234  17.557  10.105  0.3664 -0.1001  0.0812
  508loPI   GL2 8118   7.609  17.429  10.039  0.1650  0.2167 -0.1612
  508loPI   C1A 8119   7.023  17.490   9.783 -0.2860  0.1201 -0.3586
  508loPI   C2A 8120   7.041  17.565   9.370 -0.2074 -0.1587 -0.1391
  508loPI   C3A 8121   7.004  17.417   8.917  0.1684 -0.0212 -0.0201
  508loPI   C4A 8122   7.008  17.438   8.421 -0.1194 -0.1396 -0.5376
  508loPI   C5A 8123   7.180  17.404   7.944 -0.0379 -0.2363  0.1737
  508loPI   C6A 8124   7.218  17.440   7.499  0.0677 -0.1320  0.1943
  508loPI   C1B 8125   7.531  17.340   9.597 -0.0808  0.1568  0.0308
  508loPI   C2B 8126   7.458  17.325   9.254 -0.2235 -0.0433  0.1184
  508loPI   C3B 8127   7.436  17.138   8.893  0.1836 -0.0810 -0.0619
  508loPI   C4B 8128   7.450  17.245   8.444  0.0832 -0.1025  0.0438
  509loPI    C1 8129   5.254   8.848  10.531 -0.0026 -0.1201 -0.0646
  509loPI    C2 8130   4.932   8.667  10.683 -0.1680  0.1266 -0.1146
  509loPI    C3 8131   5.266   8.695  10.900 -0.1211 -0.2793 -0.1259
  509loPI   PO4 8132   5.320   8.686  10.342  0.0600  0.0094 -0.0345
  509loPI   GL1 8133   5.268   8.444   9.993  0.1514 -0.0585 -0.5219
  509loPI   GL2 8134   5.137   8.187  10.020  0.1672  0.1147  0.0574
  509loPI   C1A 8135   5.166   8.394   9.529 -0.2601  0.0787 -0.2493
  509loPI   C2A 8136   5.209   8.467   9.106 -0.0125  0.0777 -0.1700
  509loPI   C3A 8137   5.040   8.511   8.669 -0.0425  0.0482  0.0181
  509loPI   C4A 8138   4.886   8.581   8.300 -0.0636  0.2923  0.1714
  509loPI   C5A 8139   5.028   8.312   7.987 -0.0757 -0.3875  0.2572
  509loPI   C6A 8140   4.968   8.302   7.526 -0.2706 -0.4100  0.0842
  509loPI   C1B 8141   5.183   7.848   9.661  0.2725 -0.0133 -0.0879
  509loPI   C2B 8142   5.196   8.018   9.217 -0.3745  0.2940  0.1619
  509loPI   C3B 8143   5.065   8.012   8.788 -0.1685 -0.2721 -0.1389
  509loPI   C4B 8144   5.068   8.043   8.413 -0.1402 -0.3247  0.0785
  510loPI    C1 8145  15.809   1.281  11.041  0.3283  0.2198 -0.2670
  510loPI    C2 8146  15.592   1.593  11.165  0.2001  0.0007  0.0767
  510loPI    C3 8147  15.837   1.407  11.420  0.2845 -0.1733 -0.1287
  510loPI   PO4 8148  15.900   1.506  10.765 -0.0852 -0.0405  0.0915
  510loPI   GL1 8149  16.165   1.653  10.502  0.0289  0.1209  0.0455
  510loPI   GL2 8150  15.902   1.855  10.410 -0.1293  0.0807  0.4275
  510loPI   C1A 8151  16.394   1.690  10.213  0.1093 -0.2799 -0.1255
  510loPI   C2A 8152  16.458   1.450   9.835 -0.0164  0.0893  0.2148
  510loPI   C3A 8153  16.607   1.526   9.361 -0.1702  0.1561  0.0042
  510loPI   C4A 8154  16.580   1.478   8.945  0.1319  0.0445  0.1272
  510loPI   C5A 8155  16.706   1.507   8.491 -0.0449 -0.0322 -0.0940
  510loPI   C6A 8156  16.964   1.555   8.105 -0.0372 -0.1291  0.0437
  510loPI   C1B 8157  15.984   1.825  10.035  0.2296 -0.0062  0.0617
  510loPI   C2B 8158  16.115   1.736   9.611  0.4977  0.2839 -0.0488
  510loPI   C3B 8159  16.171   1.685   9.150  0.0659  0.0700  0.3080
  510loPI   C4B 8160  16.285   1.801   8.714  0.0303 -0.1839  0.1662
  511loPI    C1 8161   7.500  15.048  10.815 -0.0416  0.0603  0.1372
  511loPI    C2 8162   7.850  15.162  10.657 -0.0834 -0.1893 -0.1439
  511loPI    C3 8163   7.842  14.975  11.010  0.0346  0.1275  0.0304
  511loPI   PO4 8164   7.354  14.961  10.588  0.0937  0.0389  0.1619
  511loPI   GL1 8165   7.372  14.941  10.188 -0.0033 -0.1231  0.2792
  511loPI   GL2 8166   7.422  14.729  10.087 -0.0682  0.1974  0.2396
  511loPI   C1A 8167   7.449  15.207   9.833  0.1176  0.1380  0.1851
  511loPI   C2A 8168   7.393  15.117   9.369  0.1147 -0.2714 -0.0760
  511loPI   C3A 8169   7.566  15.282   8.975  0.1280  0.1799  0.0697
  511loPI   C4A 8170   7.437  15.179   8.595  0.1820 -0.3050  0.0688
  511loPI   C5A 8171   7.499  15.029   8.203 -0.1419 -0.1945 -0.3515
  511loPI   C6A 8172   7.531  14.682   7.900 -0.0776 -0.1765 -0.0323
  511loPI   C1B 8173   7.482  14.694   9.668  0.3368  0.0409  0.2541
  511loPI   C2B 8174   7.635  14.620   9.273 -0.3034 -0.1078  0.0271
  511loPI   C3B 8175   7.512  14.789   8.879 -0.0325 -0.2535 -0.2152
  511loPI   C4B 8176   7.384  14.648   8.541  0.1306 -0.3746  0.3356
  512loPI    C1 8177  13.296  17.181  10.697 -0.0670 -0.1087  0.1430
  512loPI    C2 8178  13.490  17.111  11.040  0.0148 -0.0699  0.1048
  512loPI    C3 8179  13.483  17.480  10.886  0.0075 -0.0942  0.0471
  512loPI   PO4 8180  13.426  16.919  10.566 -0.0631 -0.0237  0.0285
  512loPI   GL1 8181  13.269  16.990  10.181  0.1714 -0.0221  0.1962
  512loPI   GL2 8182  13.319  17.341  10.202 -0.0855 -0.1718 -0.1754
  512loPI   C1A 8183  13.335  16.994   9.827 -0.2027 -0.0392  0.0845
  512loPI   C2A 8184  13.420  16.938   9.373  0.3423 -0.0916 -0.0632
  512loPI   C3A 8185  13.322  16.938   8.941 -0.2143  0.1426 -0.2055
  512loPI   C4A 8186  13.359  16.837   8.458 -0.1241 -0.1132  0.1145
  512loPI   C5A 8187  13.557  16.998   8.001 -0.0982  0.1937 -0.3047
  512loPI   C6A 8188  13.355  17.160   7.669  0.1002  0.2572  0.0568
  512loPI   C1B 8189  13.565  17.459   9.913 -0.1776 -0.1077  0.0839
  512loPI   C2B 8190  13.483  17.473   9.430  0.1161  0.1271 -0.1120
  512loPI   C3B 8191  13.377  17.397   9.100 -0.3730  0.2580  0.1349
  512loPI   C4B 8192  13.348  17.455   8.657 -0.1926  0.1649 -0.3605
  513loPI    C1 8193  10.555  14.485  10.423  0.1047 -0.0356 -0.0900
  513loPI    C2 8194  10.442  14.350  10.782  0.1260 -0.1075 -0.1103
  513loPI    C3 8195  10.536  14.735  10.735 -0.1676 -0.0328 -0.1062
  513loPI   PO4 8196  10.648  14.394  10.377  0.0004 -0.0078  0.0497
  513loPI   GL1 8197  10.686  14.142  10.069 -0.0580 -0.1194 -0.0479
  513loPI   GL2 8198  10.661  13.883   9.955  0.2481  0.0061 -0.0127
  513loPI   C1A 8199  10.665  14.280   9.688 -0.2046 -0.1688 -0.0403
  513loPI   C2A 8200  10.702  14.293   9.198  0.2290 -0.1924 -0.2197
  513loPI   C3A 8201  10.626  14.280   8.792 -0.2093 -0.1001 -0.2143
  513loPI   C4A 8202  10.749  14.383   8.411  0.0809  0.0666  0.1389
  513loPI   C5A 8203  11.145  14.563   8.148  0.0095 -0.1536 -0.5068
  513loPI   C6A 8204  11.267  14.683   7.749 -0.2061 -0.1697 -0.0796
  513loPI   C1B 8205  10.631  13.817   9.478  0.3069  0.2895 -0.1732
  513loPI   C2B 8206  10.680  13.829   9.015 -0.0407 -0.0051 -0.1184
  513loPI   C3B 8207  10.685  13.858   8.571  0.0089 -0.0510 -0.0453
  513loPI   C4B 8208  10.638  13.721   8.178 -0.1298  0.2687 -0.2107
  514loPI    C1 8209   0.473   7.317  11.019  0.0834 -0.0236 -0.0451
  514loPI    C2 8210   0.323   6.956  11.107  0.3627 -0.1749 -0.1749
  514loPI    C3 8211   0.683   7.063  11.246  0.1636  0.1650  0.0941
  514loPI   PO4 8212   0.331   7.321  10.798 -0.0495 -0.0019 -0.0022
  514loPI   GL1 8213   0.318   7.130  10.380 -0.0214 -0.1902  0.1818
  514loPI   GL2 8214   0.239   7.338  10.046 -0.2180 -0.3518 -0.0003
  514loPI   C1A 8215   0.166   6.853   9.969 -0.1483  0.0120  0.2757
  514loPI   C2A 8216   0.053   6.714   9.529 -0.1289  0.1877  0.1190
  514loPI   C3A 8217   0.034   6.758   9.145  0.5049 -0.4141  0.2658
  514loPI   C4A 8218   0.089   6.711   8.756  0.1790 -0.0709 -0.3681
  514loPI   C5A 8219  -0.041   6.773   8.229  0.0565  0.1256 -0.3271
  514loPI   C6A 8220  -0.464   6.772   8.075  0.2227 -0.0303  0.1370
  514loPI   C1B 8221   0.006   7.392   9.602 -0.0975  0.0085 -0.2324
  514loPI   C2B 8222   0.049   7.261   9.252  0.2699 -0.2020 -0.1894
  514loPI   C3B 8223   0.015   7.222   8.790 -0.1684 -0.1790 -0.0090
  514loPI   C4B 8224   0.087   7.237   8.406  0.1235  0.1530 -0.0299
  515loPI    C1 8225  11.510   4.176  10.207  0.0519 -0.0048 -0.0854
  515loPI    C2 8226  11.275   4.476  10.087 -0.1809 -0.1801 -0.0752
  515loPI    C3 8227  11.256   4.346  10.465 -0.1362 -0.2588 -0.0999
  515loPI   PO4 8228  11.733   4.258  10.023  0.1026 -0.3444 -0.0131
  515loPI   GL1 8229  11.871   4.131   9.576 -0.0901  0.2177  0.1008
  515loPI   GL2 8230  12.024   4.410   9.381 -0.1466  0.0984  0.2388
  515loPI   C1A 8231  11.962   3.925   9.182  0.0685  0.0017  0.1818
  515loPI   C2A 8232  12.043   4.053   8.761  0.4385 -0.0574  0.1880
  515loPI   C3A 8233  11.871   4.240   8.401  0.3755 -0.1697  0.0179
  515loPI   C4A 8234  12.079   4.121   8.123 -0.1911  0.3053 -0.0844
  515loPI   C5A 8235  12.380   4.072   7.783  0.1284 -0.2573 -0.1438
  515loPI   C6A 8236  12.466   3.871   7.375  0.0436 -0.1663  0.1621
  515loPI   C1B 8237  12.023   4.459   9.007  0.3292 -0.2605 -0.0537
  515loPI   C2B 8238  12.198   4.528   8.677 -0.2051 -0.0522 -0.0392
  515loPI   C3B 8239  12.413   4.383   8.313 -0.0388  0.0868  0.0013
  515loPI   C4B 8240  12.801   4.320   8.144 -0.0900 -0.0984 -0.1239
  516loPI    C1 8241  16.650   6.556  11.107  0.1762  0.0998  0.1583
  516loPI    C2 8242  16.259   6.500  11.043  0.2257 -0.1096  0.0285
  516loPI    C3 8243  16.381   6.763  11.319 -0.0098 -0.2223  0.2439
  516loPI   PO4 8244  16.739   6.557  10.785  0.0396  0.1163 -0.1053
  516loPI   GL1 8245  16.651   6.445  10.385 -0.1659  0.0557  0.2578
  516loPI   GL2 8246  16.609   6.673  10.183 -0.0071 -0.1054  0.1953
  516loPI   C1A 8247  17.068   6.366  10.119  0.0160 -0.0044  0.1997
  516loPI   C2A 8248  17.008   6.473   9.617 -0.0179 -0.0321 -0.0605
  516loPI   C3A 8249  17.105   6.436   9.132  0.0241 -0.0143  0.0145
  516loPI   C4A 8250  17.044   6.458   8.714  0.0766 -0.2425  0.1123
  516loPI   C5A 8251  17.239   6.427   8.352  0.2908  0.1678 -0.1847
  516loPI   C6A 8252  17.335   6.707   8.076 -0.2399  0.1845  0.1102
  516loPI   C1B 8253  16.552   6.640   9.768  0.1880  0.0629  0.4148
  516loPI   C2B 8254  16.662   6.705   9.345 -0.0930 -0.0289 -0.0353
  516loPI   C3B 8255  16.624   6.738   8.959  0.1573  0.0645 -0.1453
  516loPI   C4B 8256  16.702   6.669   8.441 -0.2239 -0.2767 -0.0841
  517loPI    C1 8257  11.725   5.999   9.980  0.3254 -0.1480 -0.1528
  517loPI    C2 8258  11.698   6.147  10.351 -0.0652 -0.1429 -0.1794
  517loPI    C3 8259  11.751   5.754  10.296  0.0828 -0.1319 -0.1181
  517loPI   PO4 8260  11.936   6.156   9.858 -0.2132 -0.0044 -0.0436
  517loPI   GL1 8261  12.045   6.251   9.451  0.2355 -0.3605  0.1002
  517loPI   GL2 8262  11.734   5.973   9.453 -0.1417  0.0898 -0.2855
  517loPI   C1A 8263  12.136   6.040   9.100 -0.2458  0.2108  0.0992
  517loPI   C2A 8264  11.926   6.136   8.794 -0.0595 -0.1756 -0.2501
  517loPI   C3A 8265  12.001   6.169   8.342  0.1065  0.0048  0.0326
  517loPI   C4A 8266  12.194   6.077   7.892 -0.1970  0.0333 -0.6323
  517loPI   C5A 8267  12.092   6.144   7.409  0.3025 -0.2807 -0.0389
  517loPI   C6A 8268  11.746   6.021   7.117 -0.0587  0.0086 -0.1336
  517loPI   C1B 8269  11.638   6.305   9.121 -0.1975  0.1428 -0.1107
  517loPI   C2B 8270  11.504   6.452   8.794 -0.0457  0.0530 -0.0231
  517loPI   C3B 8271  11.621   6.439   8.366  0.2896  0.0702  0.1909
  517loPI   C4B 8272  11.769   6.369   7.879  0.3578  0.1845 -0.2844
  518loPI    C1 8273  10.597   7.616  10.325  0.0133 -0.1037  0.0338
  518loPI    C2 8274  10.831   7.781  10.045  0.2425 -0.1636  0.1876
  518loPI    C3 8275  10.658   8.012  10.322 -0.0167 -0.0994 -0.0243
  518loPI   PO4 8276  10.525   7.381  10.131 -0.1969 -0.2423  0.1950
  518loPI   GL1 8277  10.773   7.317   9.823  0.1619  0.1687  0.0538
  518loPI   GL2 8278  11.074   7.395   9.649 -0.4325  0.0957  0.3903
  518loPI   C1A 8279  10.543   7.529   9.401 -0.4037  0.2064 -0.2056
  518loPI   C2A 8280  10.559   7.693   9.008  0.2541  0.2260  0.1468
  518loPI   C3A 8281  10.700   7.622   8.618  0.0019  0.0433  0.0607
  518loPI   C4A 8282  10.669   7.754   8.230 -0.3887 -0.1853  0.0594
  518loPI   C5A 8283  10.844   8.037   7.921 -0.2307  0.1065 -0.0332
  518loPI   C6A 8284  10.705   8.424   7.906 -0.5303  0.2638 -0.3550
  518loPI   C1B 8285  10.995   7.399   9.143  0.0884 -0.0372  0.0078
  518loPI   C2B 8286  11.242   7.425   8.729 -0.3255  0.0865  0.0771
  518loPI   C3B 8287  11.555   7.527   8.402 -0.2391  0.1416 -0.1149
  518loPI   C4B 8288  11.379   7.824   8.059  0.1618 -0.1636 -0.0773
  519loPI    C1 8289   8.154  11.907  10.957 -0.1244  0.1070 -0.0800
  519loPI    C2 8290   8.374  12.105  11.226 -0.0829  0.1561 -0.1499
  519loPI    C3 8291   8.124  11.816  11.346  0.3622 -0.2254 -0.1109
  519loPI   PO4 8292   8.224  12.094  10.709  0.2273  0.1134  0.0836
  519loPI   GL1 8293   8.041  11.962  10.373 -0.3213 -0.1461  0.2571
  519loPI   GL2 8294   8.338  11.638  10.316 -0.2732  0.0401  0.1479
  519loPI   C1A 8295   7.919  12.098  10.002  0.0818 -0.0856  0.0970
  519loPI   C2A 8296   7.967  12.128   9.543 -0.2224 -0.0335 -0.2574
  519loPI   C3A 8297   7.969  12.111   9.201 -0.0101  0.0148  0.3383
  519loPI   C4A 8298   7.953  12.253   8.817  0.1169 -0.2868 -0.0511
  519loPI   C5A 8299   8.216  12.372   8.346 -0.1772  0.2430 -0.0833
  519loPI   C6A 8300   8.311  12.318   7.852 -0.1655  0.0442  0.2630
  519loPI   C1B 8301   8.344  11.806   9.874 -0.2123 -0.3497  0.2016
  519loPI   C2B 8302   8.411  11.872   9.349 -0.1366  0.1279 -0.0180
  519loPI   C3B 8303   8.444  11.880   8.995 -0.0647  0.0029  0.0595
  519loPI   C4B 8304   8.250  11.912   8.584 -0.0035 -0.2000 -0.4346
  520loPI    C1 8305   9.033  13.562  10.836 -0.1382  0.0196 -0.2373
  520loPI    C2 8306   9.144  13.798  11.139 -0.3653  0.1874 -0.2819
  520loPI    C3 8307   8.972  13.444  11.213  0.0751 -0.0191 -0.2138
  520loPI   PO4 8308   9.312  13.586  10.692 -0.2514  0.3711 -0.1708
  520loPI   GL1 8309   9.393  13.471  10.316  0.0007  0.0735  0.0770
  520loPI   GL2 8310   9.094  13.314  10.384 -0.1502 -0.1087  0.1594
  520loPI   C1A 8311   9.340  13.505   9.849  0.0197  0.2075  0.1685
  520loPI   C2A 8312   9.286  13.471   9.402  0.2270  0.2062  0.0696
  520loPI   C3A 8313   9.320  13.566   8.988  0.3252  0.1472 -0.1329
  520loPI   C4A 8314   9.181  13.481   8.576 -0.0057  0.1388 -0.0925
  520loPI   C5A 8315   9.291  13.281   8.119  0.2768 -0.2697 -0.1602
  520loPI   C6A 8316   9.490  12.977   7.918 -0.1179 -0.0485  0.0184
  520loPI   C1B 8317   8.973  13.264   9.978 -0.1895  0.4267  0.3055
  520loPI   C2B 8318   8.860  13.209   9.594  0.2066  0.0907  0.0922
  520loPI   C3B 8319   8.886  13.279   9.078 -0.1250 -0.2179 -0.0414
  520loPI   C4B 8320   8.777  13.222   8.652  0.0837  0.1041  0.0176
  521loPI    C1 8321  16.166   2.545  11.116 -0.0705 -0.0031  0.0816
  521loPI    C2 8322  15.877   2.458  10.854 -0.0327 -0.1559  0.0900
  521loPI    C3 8323  15.846   2.337  11.234 -0.0381 -0.0246  0.1318
  521loPI   PO4 8324  16.272   2.825  11.041 -0.1734 -0.0144  0.1492
  521loPI   GL1 8325  16.416   2.881  10.656 -0.1772 -0.3833  0.7099
  521loPI   GL2 8326  16.137   2.877  10.469  0.1601 -0.1413  0.1535
  521loPI   C1A 8327  16.531   2.654  10.193 -0.0425 -0.1163  0.1065
  521loPI   C2A 8328  16.604   2.564   9.766  0.2977  0.1880  0.2231
  521loPI   C3A 8329  16.596   2.528   9.361 -0.1798 -0.0505  0.0995
  521loPI   C4A 8330  16.657   2.576   8.935  0.0633 -0.0439 -0.1078
  521loPI   C5A 8331  16.722   2.545   8.521 -0.2414  0.2160  0.0484
  521loPI   C6A 8332  16.597   2.489   8.098  0.1082 -0.0121  0.0405
  521loPI   C1B 8333  16.109   2.830  10.041  0.1375  0.0056 -0.2478
  521loPI   C2B 8334  16.102   2.775   9.675 -0.2362  0.1776  0.2107
  521loPI   C3B 8335  16.126   2.834   9.225 -0.1642 -0.0251  0.0405
  521loPI   C4B 8336  16.199   2.739   8.855 -0.0228  0.0466 -0.1905
  522loPI    C1 8337   8.661   1.261  10.055  0.0608  0.1476 -0.3138
  522loPI    C2 8338   9.019   1.317   9.886  0.3653 -0.3097  0.1507
  522loPI    C3 8339   8.920   0.958  10.031 -0.2280 -0.1500  0.1689
  522loPI   PO4 8340   8.537   1.389   9.896  0.0927 -0.0609 -0.2097
  522loPI   GL1 8341   8.346   1.420   9.495  0.0744 -0.4464  0.0730
  522loPI   GL2 8342   8.241   1.134   9.610  0.2238  0.2834  0.3738
  522loPI   C1A 8343   8.584   1.429   9.177  0.2609  0.1692 -0.0042
  522loPI   C2A 8344   8.664   1.393   8.749 -0.2104 -0.2814 -0.0737
  522loPI   C3A 8345   8.687   1.372   8.264 -0.0454  0.0846 -0.4853
  522loPI   C4A 8346   8.762   1.159   7.885 -0.2497 -0.0864 -0.5164
  522loPI   C5A 8347   8.873   1.388   7.529  0.1867 -0.1478 -0.5092
  522loPI   C6A 8348   8.793   1.630   7.197 -0.2499  0.0124 -0.0565
  522loPI   C1B 8349   8.337   1.006   9.129 -0.2350 -0.2002  0.2654
  522loPI   C2B 8350   8.417   0.956   8.630  0.0685 -0.1166 -0.1800
  522loPI   C3B 8351   8.455   0.918   8.243  0.1869  0.0360  0.2672
  522loPI   C4B 8352   8.372   0.736   7.846  0.4122 -0.4035 -0.1228
  523loPI    C1 8353   8.921   8.891  10.692  0.1621  0.1750 -0.1521
  523loPI    C2 8354   8.791   8.616  10.433 -0.0948  0.1574 -0.0081
  523loPI    C3 8355   8.869   8.513  10.811 -0.0989  0.2636  0.0219
  523loPI   PO4 8356   8.973   9.093  10.533 -0.1122 -0.0756  0.0716
  523loPI   GL1 8357   9.042   9.174  10.097  0.0881  0.1518 -0.1420
  523loPI   GL2 8358   8.920   9.368  10.062  0.0521 -0.2448 -0.2350
  523loPI   C1A 8359   9.208   9.268   9.647  0.4538  0.0881 -0.1186
  523loPI   C2A 8360   9.363   9.346   9.214 -0.0379  0.1471  0.0769
  523loPI   C3A 8361   9.395   9.351   8.757  0.1775  0.0065  0.3599
  523loPI   C4A 8362   9.237   9.445   8.366 -0.1487  0.1671 -0.2587
  523loPI   C5A 8363   8.990   9.250   8.008  0.0892 -0.2636  0.3451
  523loPI   C6A 8364   8.725   8.958   7.743  0.0235 -0.0225  0.1900
  523loPI   C1B 8365   8.829   9.576   9.736 -0.2843 -0.0499 -0.1127
  523loPI   C2B 8366   8.905   9.492   9.190  0.1770 -0.1845 -0.0182
  523loPI   C3B 8367   8.920   9.537   8.781 -0.0545 -0.2321  0.1312
  523loPI   C4B 8368   8.808   9.656   8.356 -0.3608  0.0662 -0.2422
  524loPI    C1 8369   7.366  12.173  11.158 -0.0382 -0.0385  0.0105
  524loPI    C2 8370   7.564  11.833  11.083 -0.0612 -0.0530  0.0154
  524loPI    C3 8371   7.747  12.134  11.273 -0.0360 -0.0568 -0.0030
  524loPI   PO4 8372   7.247  12.282  10.913 -0.0660  0.0598 -0.0918
  524loPI   GL1 8373   7.233  12.236  10.419  0.0600 -0.0405  0.0572
  524loPI   GL2 8374   7.559  12.067  10.271 -0.2387 -0.4083 -0.2291
  524loPI   C1A 8375   7.088  12.119   9.949 -0.1068  0.2072  0.0651
  524loPI   C2A 8376   7.066  12.133   9.616  0.1901 -0.0798  0.1137
  524loPI   C3A 8377   7.071  12.221   9.166 -0.0577 -0.1351 -0.0383
  524loPI   C4A 8378   7.092  12.129   8.763 -0.0648  0.0582  0.1218
  524loPI   C5A 8379   7.017  12.009   8.316 -0.0122  0.0496  0.2079
  524loPI   C6A 8380   7.035  11.778   7.977  0.1004  0.2653 -0.1553
  524loPI   C1B 8381   7.487  11.962   9.799  0.0967 -0.0343 -0.0108
  524loPI   C2B 8382   7.508  11.837   9.399  0.0658  0.0333 -0.0007
  524loPI   C3B 8383   7.519  11.998   8.897 -0.1609 -0.0755  0.2204
  524loPI   C4B 8384   7.457  11.864   8.546 -0.2871 -0.0766 -0.0888
  525loPI    C1 8385  16.529   5.586  10.786 -0.1401 -0.0501 -0.0583
  525loPI    C2 8386  16.275   5.795  11.013 -0.0742 -0.2967  0.2491
  525loPI    C3 8387  16.576   5.594  11.183  0.1875 -0.2013 -0.0911
  525loPI   PO4 8388  16.580   5.739  10.618 -0.0762 -0.0528  0.0588
  525loPI   GL1 8389  16.763   5.984  10.326  0.1069  0.1620  0.0507
  525loPI   GL2 8390  16.945   5.822  10.258 -0.1449 -0.1266 -0.0226
  525loPI   C1A 8391  16.581   6.126   9.856  0.2002  0.0344  0.1233
  525loPI   C2A 8392  16.641   6.206   9.489  0.3224  0.1588  0.2227
  525loPI   C3A 8393  16.608   6.243   9.115  0.0961 -0.1062  0.1476
  525loPI   C4A 8394  16.559   6.280   8.713  0.1305 -0.0200  0.0937
  525loPI   C5A 8395  16.372   6.353   8.323  0.1781 -0.1429 -0.0216
  525loPI   C6A 8396  16.107   6.559   8.110 -0.2181  0.0569  0.1268
  525loPI   C1B 8397  17.034   5.917   9.874 -0.0052  0.0924  0.0070
  525loPI   C2B 8398  17.079   5.978   9.385 -0.3253  0.3145  0.0189
  525loPI   C3B 8399  17.092   5.965   8.963  0.4494  0.1426 -0.0785
  525loPI   C4B 8400  17.126   5.940   8.511  0.2943  0.4017  0.0631
  526loPI    C1 8401  14.189   9.556  10.605 -0.1629  0.1523  0.1977
  526loPI    C2 8402  13.937   9.264  10.496 -0.0829  0.1017  0.1472
  526loPI    C3 8403  14.096   9.264  10.863  0.1899 -0.1139  0.0331
  526loPI   PO4 8404  14.123   9.722  10.514  0.1598 -0.0971 -0.1751
  526loPI   GL1 8405  14.167   9.894  10.189 -0.2629  0.2274 -0.2069
  526loPI   GL2 8406  14.401  10.046  10.158  0.0954 -0.1316 -0.0982
  526loPI   C1A 8407  14.294   9.705   9.745  0.0522  0.0112 -0.0567
  526loPI   C2A 8408  14.352   9.546   9.411 -0.0698  0.1740 -0.1849
  526loPI   C3A 8409  14.261   9.635   9.023 -0.0658 -0.1003  0.0936
  526loPI   C4A 8410  14.300   9.641   8.615 -0.2393  0.4001 -0.0488
  526loPI   C5A 8411  14.056   9.507   8.240  0.1304  0.0394  0.2558
  526loPI   C6A 8412  14.196   9.478   7.804  0.0782 -0.5436  0.1050
  526loPI   C1B 8413  14.354  10.144   9.820  0.0533 -0.2441 -0.1542
  526loPI   C2B 8414  14.334  10.076   9.357 -0.2893  0.0965 -0.1152
  526loPI   C3B 8415  14.308  10.156   8.933  0.0308 -0.0279 -0.0711
  526loPI   C4B 8416  14.184  10.223   8.517 -0.0029  0.5417  0.1515
  527loPI    C1 8417   3.078   5.498  11.043  0.0969 -0.0486 -0.0156
  527loPI    C2 8418   3.322   5.697  11.290 -0.0325  0.0412  0.0407
  527loPI    C3 8419   3.036   5.460  11.439 -0.3132  0.3387 -0.0146
  527loPI   PO4 8420   3.161   5.461  10.862  0.1309  0.0534  0.0430
  527loPI   GL1 8421   2.943   5.349  10.395  0.1092 -0.0882 -0.1579
  527loPI   GL2 8422   2.656   5.469  10.290 -0.2782 -0.0880 -0.2239
  527loPI   C1A 8423   2.943   5.176  10.009 -0.2065 -0.0018 -0.1733
  527loPI   C2A 8424   2.861   5.155   9.563 -0.0577  0.0470 -0.1490
  527loPI   C3A 8425   2.796   5.069   9.092  0.2822 -0.2540 -0.0382
  527loPI   C4A 8426   2.744   5.111   8.672 -0.1475  0.3396 -0.0815
  527loPI   C5A 8427   2.805   4.848   8.381  0.2073  0.2321  0.2158
  527loPI   C6A 8428   2.835   4.441   8.277 -0.1535 -0.0563  0.0554
  527loPI   C1B 8429   2.444   5.409   9.902 -0.1607  0.1333  0.1279
  527loPI   C2B 8430   2.429   5.350   9.535  0.1212  0.1439  0.4034
  527loPI   C3B 8431   2.268   5.342   9.145  0.1017 -0.0801 -0.0393
  527loPI   C4B 8432   2.316   5.382   8.720  0.1885  0.1262 -0.0168
  528loPI    C1 8433  15.745   7.847  10.699 -0.1783  0.3652  0.0958
  528loPI    C2 8434  15.752   7.494  10.886 -0.1592  0.2404 -0.1373
  528loPI    C3 8435  15.672   7.827  11.092 -0.1851  0.1003  0.0828
  528loPI   PO4 8436  15.644   7.729  10.469 -0.0162 -0.0018  0.2175
  528loPI   GL1 8437  15.586   7.606  10.109 -0.0440 -0.2152  0.0266
  528loPI   GL2 8438  15.679   7.281  10.039 -0.0105  0.2003  0.3051
  528loPI   C1A 8439  15.729   7.835   9.782  0.2226  0.1113  0.5545
  528loPI   C2A 8440  15.657   7.775   9.450 -0.0147 -0.0675  0.0992
  528loPI   C3A 8441  15.600   7.840   9.074  0.0852 -0.3085 -0.2759
  528loPI   C4A 8442  15.675   7.771   8.600 -0.3569 -0.0829 -0.0310
  528loPI   C5A 8443  15.704   7.885   8.148  0.1891  0.2359 -0.1935
  528loPI   C6A 8444  15.546   7.807   7.789  0.0395 -0.4498 -0.3783
  528loPI   C1B 8445  15.770   7.168   9.568 -0.1242 -0.3224 -0.3936
  528loPI   C2B 8446  15.734   7.234   9.212  0.0863  0.1411  0.1150
  528loPI   C3B 8447  15.681   7.331   8.899 -0.1269  0.2477  0.1356
  528loPI   C4B 8448  15.743   7.286   8.519 -0.1213  0.0575  0.3184
  529loPI    C1 8449   4.140   7.468  10.642  0.2315  0.0694 -0.0410
  529loPI    C2 8450   3.851   7.722  10.751  0.1679 -0.0798  0.1433
  529loPI    C3 8451   4.222   7.768  10.892  0.2389  0.1173 -0.1007
  529loPI   PO4 8452   4.095   7.516  10.280  0.3532 -0.3910  0.0375
  529loPI   GL1 8453   4.311   7.405   9.924 -0.1387  0.2174 -0.0818
  529loPI   GL2 8454   4.291   7.133   9.880 -0.1348  0.2912  0.1031
  529loPI   C1A 8455   4.290   7.370   9.486 -0.2249  0.0315 -0.1246
  529loPI   C2A 8456   4.279   7.465   8.984 -0.0721  0.1180  0.0459
  529loPI   C3A 8457   4.088   7.484   8.540 -0.0605 -0.0055  0.1267
  529loPI   C4A 8458   4.096   7.342   8.140  0.1369  0.0742 -0.3070
  529loPI   C5A 8459   4.384   7.567   7.909  0.0733 -0.2785 -0.0277
  529loPI   C6A 8460   4.580   7.920   7.818  0.1644 -0.2562 -0.1783
  529loPI   C1B 8461   4.330   6.935   9.320  0.1874 -0.1891  0.0212
  529loPI   C2B 8462   4.171   6.873   8.836  0.1243  0.1978 -0.2856
  529loPI   C3B 8463   4.119   6.927   8.442 -0.0361 -0.1268 -0.1084
  529loPI   C4B 8464   4.120   6.658   8.047  0.3331  0.0021 -0.2962
  530loPI    C1 8465  14.603   8.568  10.769 -0.1407 -0.0933  0.0493
  530loPI    C2 8466  14.887   8.846  10.815 -0.1034 -0.1164 -0.0403
  530loPI    C3 8467  14.799   8.599  11.117  0.1489 -0.2761 -0.0938
  530loPI   PO4 8468  14.670   8.640  10.391  0.1994 -0.2389 -0.1027
  530loPI   GL1 8469  14.364   8.723  10.061  0.2041  0.1832 -0.2280
  530loPI   GL2 8470  14.564   8.990  10.036  0.2510  0.0184  0.2967
  530loPI   C1A 8471  14.390   8.694   9.606  0.3073  0.0607 -0.2462
  530loPI   C2A 8472  14.355   8.584   9.129  0.0147 -0.3407 -0.0465
  530loPI   C3A 8473  14.315   8.643   8.674 -0.1154 -0.0654  0.0550
  530loPI   C4A 8474  14.245   8.506   8.259 -0.1520  0.0245 -0.0971
  530loPI   C5A 8475  14.303   8.360   7.874 -0.2354 -0.2051 -0.1035
  530loPI   C6A 8476  14.160   8.535   7.568  0.0707  0.1833  0.1313
  530loPI   C1B 8477  14.839   8.769   9.676  0.1419  0.3264  0.0307
  530loPI   C2B 8478  14.782   8.851   9.167  0.1397  0.1972  0.2111
  530loPI   C3B 8479  14.807   8.904   8.778  0.0526  0.0299 -0.0726
  530loPI   C4B 8480  14.645   8.902   8.395 -0.1358  0.1412 -0.0429
  531loPI    C1 8481  10.024  13.536  10.634  0.0469  0.0536  0.0426
  531loPI    C2 8482   9.749  13.344  10.852 -0.1277  0.0494 -0.1782
  531loPI    C3 8483  10.035  13.556  11.034 -0.0571 -0.2455  0.0635
  531loPI   PO4 8484   9.935  13.645  10.477 -0.0661  0.1208  0.1171
  531loPI   GL1 8485   9.822  13.607  10.039 -0.4669  0.2432 -0.1248
  531loPI   GL2 8486   9.746  13.253   9.988 -0.2449  0.2934  0.0277
  531loPI   C1A 8487   9.784  13.831   9.648  0.1770 -0.1612  0.0353
  531loPI   C2A 8488   9.798  13.792   9.202  0.4180  0.1070 -0.1696
  531loPI   C3A 8489   9.719  13.938   8.714  0.1695  0.2540  0.3118
  531loPI   C4A 8490   9.836  13.850   8.326  0.2687 -0.0160  0.1461
  531loPI   C5A 8491   9.819  13.463   7.937  0.0978 -0.0832  0.0751
  531loPI   C6A 8492   9.855  13.118   7.600  0.3054 -0.1667 -0.1426
  531loPI   C1B 8493   9.783  13.272   9.557  0.0364 -0.1637 -0.1474
  531loPI   C2B 8494   9.708  13.262   9.138  0.3145  0.3223  0.1840
  531loPI   C3B 8495   9.784  13.381   8.787 -0.1533 -0.0745  0.2261
  531loPI   C4B 8496   9.696  13.315   8.386  0.0191  0.0942  0.1453
  532loPI    C1 8497   2.454  14.773  10.721  0.0713 -0.2816 -0.0002
  532loPI    C2 8498   2.302  15.063  10.951  0.1664 -0.0327 -0.2454
  532loPI    C3 8499   2.278  14.681  11.068 -0.1305  0.0546 -0.0091
  532loPI   PO4 8500   2.302  14.837  10.517  0.2504  0.0341  0.5458
  532loPI   GL1 8501   2.193  14.876  10.056  0.4169  0.1503 -0.0089
  532loPI   GL2 8502   2.003  15.047   9.860 -0.0789 -0.5799 -0.0326
  532loPI   C1A 8503   2.531  14.822   9.722 -0.0674  0.0257 -0.2082
  532loPI   C2A 8504   2.511  14.775   9.357 -0.1599 -0.1435 -0.1063
  532loPI   C3A 8505   2.384  14.735   8.942  0.0333  0.0620 -0.0340
  532loPI   C4A 8506   2.349  14.778   8.534  0.1435  0.0745 -0.2972
  532loPI   C5A 8507   2.477  15.082   8.200 -0.1886 -0.2154 -0.1309
  532loPI   C6A 8508   2.835  14.997   7.917  0.0136  0.2355 -0.2976
  532loPI   C1B 8509   1.928  15.140   9.463 -0.0723  0.0146 -0.1326
  532loPI   C2B 8510   1.946  15.039   9.027  0.1468  0.2952 -0.1701
  532loPI   C3B 8511   1.849  15.020   8.658 -0.0013  0.0907 -0.2670
  532loPI   C4B 8512   1.767  15.157   8.290 -0.2263 -0.1127  0.0532
  533loPI    C1 8513   8.581  18.231  10.605  0.0551  0.0806  0.1477
  533loPI    C2 8514   8.527  18.387  10.969 -0.0124 -0.0126  0.1779
  533loPI    C3 8515   8.783  18.085  10.917 -0.1026 -0.0884  0.1722
  533loPI   PO4 8516   8.296  18.184  10.544  0.1607  0.0203 -0.1025
  533loPI   GL1 8517   8.176  18.080  10.217 -0.4361  0.3439  0.0952
  533loPI   GL2 8518   7.884  18.049  10.122 -0.2758 -0.0330 -0.0831
  533loPI   C1A 8519   8.298  17.939   9.773  0.0188 -0.2584 -0.1044
  533loPI   C2A 8520   8.348  17.802   9.339  0.0538  0.0407 -0.0733
  533loPI   C3A 8521   8.421  17.755   8.870 -0.0765  0.1824  0.0438
  533loPI   C4A 8522   8.400  17.701   8.479  0.1981 -0.0143  0.1605
  533loPI   C5A 8523   8.243  18.036   8.217  0.0624  0.2312  0.1065
  533loPI   C6A 8524   7.872  18.065   7.997  0.0219  0.3010  0.1438
  533loPI   C1B 8525   7.892  18.179   9.842  0.0239  0.0337 -0.0832
  533loPI   C2B 8526   7.939  18.096   9.395 -0.2895  0.2362  0.2647
  533loPI   C3B 8527   7.885  18.046   8.994  0.1607 -0.0017 -0.2127
  533loPI   C4B 8528   7.956  17.881   8.586  0.1482 -0.1056 -0.1614
  534loPI    C1 8529   1.650   0.177  11.074  0.0050 -0.0747  0.0934
  534loPI    C2 8530   1.604   0.443  11.369  0.2551 -0.0611  0.1225
  534loPI    C3 8531   1.453   0.075  11.407  0.1823 -0.0222  0.2160
  534loPI   PO4 8532   1.561   0.338  10.777  0.1806 -0.1066 -0.3034
  534loPI   GL1 8533   1.646   0.052  10.512 -0.1374 -0.0646 -0.1129
  534loPI   GL2 8534   1.519  -0.257  10.487  0.1826  0.1637 -0.1121
  534loPI   C1A 8535   1.484   0.121  10.118 -0.0078 -0.1964  0.0829
  534loPI   C2A 8536   1.417   0.102   9.754  0.0143  0.1476  0.2301
  534loPI   C3A 8537   1.509   0.195   9.273  0.1093 -0.0070  0.2226
  534loPI   C4A 8538   1.557   0.262   8.776 -0.0257 -0.2013 -0.0456
  534loPI   C5A 8539   1.582   0.266   8.326 -0.4631  0.0607  0.3404
  534loPI   C6A 8540   1.559   0.130   7.897  0.0253 -0.0130 -0.0324
  534loPI   C1B 8541   1.465  -0.366  10.075  0.1942 -0.0139  0.1004
  534loPI   C2B 8542   1.425  -0.436   9.645  0.2110 -0.0572 -0.2572
  534loPI   C3B 8543   1.533  -0.378   9.282  0.0563  0.1572  0.0169
  534loPI   C4B 8544   1.531  -0.361   8.797  0.1835 -0.0814  0.0150
  535loPI    C1 8545   6.320  14.728  11.082  0.1302 -0.0204 -0.1459
  535loPI    C2 8546   6.399  14.495  11.398 -0.3271 -0.2053 -0.1607
  535loPI    C3 8547   6.160  14.813  11.439 -0.0930 -0.0163 -0.2450
  535loPI   PO4 8548   6.321  14.583  10.785  0.1782 -0.0495  0.1070
  535loPI   GL1 8549   6.326  14.516  10.346 -0.0760 -0.1778 -0.0610
  535loPI   GL2 8550   6.360  14.782  10.322 -0.0703 -0.2049 -0.1142
  535loPI   C1A 8551   6.255  14.301  10.030  0.1475  0.2438  0.0584
  535loPI   C2A 8552   6.145  14.310   9.501  0.1421  0.2341  0.2545
  535loPI   C3A 8553   6.083  14.225   9.145 -0.2821 -0.1429  0.2469
  535loPI   C4A 8554   5.989  14.277   8.774  0.0358  0.1538  0.0133
  535loPI   C5A 8555   6.009  14.435   8.371 -0.1691  0.1971  0.2190
  535loPI   C6A 8556   6.182  14.347   8.083 -0.2885 -0.0476  0.3323
  535loPI   C1B 8557   6.215  14.901   9.947 -0.0058 -0.2763 -0.2978
  535loPI   C2B 8558   6.158  14.919   9.511  0.0997  0.0327  0.0774
  535loPI   C3B 8559   6.072  14.724   9.209  0.2342  0.0916 -0.0271
  535loPI   C4B 8560   6.106  14.806   8.703  0.2432 -0.1075  0.1241
  536loPI    C1 8561  10.190  12.200  10.842  0.0790 -0.0222 -0.0120
  536loPI    C2 8562   9.846  12.041  10.969  0.0726 -0.3463 -0.4117
  536loPI    C3 8563  10.194  11.897  11.103  0.0623  0.0246  0.0428
  536loPI   PO4 8564  10.239  12.222  10.593 -0.3014  0.3197  0.1909
  536loPI   GL1 8565  10.008  12.318  10.238  0.1135 -0.1502 -0.1641
  536loPI   GL2 8566  10.251  12.490   9.996  0.1730  0.3654 -0.2210
  536loPI   C1A 8567   9.753  12.234   9.910  0.2014 -0.2678  0.2052
  536loPI   C2A 8568   9.869  12.208   9.477  0.1818  0.0464  0.2740
  536loPI   C3A 8569   9.744  12.198   9.127 -0.1159 -0.1601  0.3220
  536loPI   C4A 8570   9.700  12.175   8.635 -0.1222 -0.0486  0.0760
  536loPI   C5A 8571   9.603  12.041   8.265  0.0575 -0.2224  0.0437
  536loPI   C6A 8572   9.452  11.841   7.898  0.1198  0.0645 -0.1206
  536loPI   C1B 8573  10.211  12.559   9.472  0.1882 -0.4238  0.0295
  536loPI   C2B 8574  10.196  12.370   9.037 -0.0296 -0.0090  0.4815
  536loPI   C3B 8575  10.326  12.308   8.633  0.1850 -0.0759  0.1265
  536loPI   C4B 8576  10.553  12.128   8.231  0.1272 -0.0286 -0.1097
  537loPI    C1 8577   9.966   2.298  10.180 -0.0880  0.0687 -0.5754
  537loPI    C2 8578  10.314   2.311  10.377 -0.2033 -0.0221 -0.3620
  537loPI    C3 8579  10.064   2.624  10.389 -0.2677 -0.0770 -0.2559
  537loPI   PO4 8580  10.104   2.321   9.918  0.0517 -0.0840  0.3365
  537loPI   GL1 8581  10.440   2.234   9.628 -0.0261  0.1552 -0.0340
  537loPI   GL2 8582  10.653   2.442   9.334  0.1570 -0.0456  0.0936
  537loPI   C1A 8583  10.253   2.036   9.250  0.0191 -0.0420 -0.1256
  537loPI   C2A 8584  10.057   1.907   8.888  0.0054  0.1674  0.1570
  537loPI   C3A 8585   9.850   1.819   8.452 -0.0163  0.0156 -0.0364
  537loPI   C4A 8586   9.680   1.823   8.081 -0.1703 -0.3314  0.0735
  537loPI   C5A 8587   9.716   1.755   7.617  0.0721  0.2627  0.2716
  537loPI   C6A 8588   9.732   1.977   7.228 -0.3617  0.0414  0.0155
  537loPI   C1B 8589  10.864   2.408   9.004  0.0973  0.0480 -0.1918
  537loPI   C2B 8590  10.795   2.330   8.567  0.3136  0.1132  0.1160
  537loPI   C3B 8591  10.729   2.311   8.162 -0.1888  0.0539  0.4125
  537loPI   C4B 8592  10.678   2.206   7.653 -0.1033  0.0469 -0.1209
  538loPI    C1 8593  11.684  15.346  10.693  0.1247 -0.1429  0.2055
  538loPI    C2 8594  11.729  15.339  11.090  0.2995  0.0177  0.1899
  538loPI    C3 8595  11.465  15.588  10.922  0.2984  0.0228  0.1991
  538loPI   PO4 8596  11.857  15.468  10.594  0.3289  0.0290 -0.0318
  538loPI   GL1 8597  11.994  15.580  10.151  0.0056 -0.1240 -0.4963
  538loPI   GL2 8598  12.247  15.495  10.240 -0.3691 -0.1536  0.0813
  538loPI   C1A 8599  12.031  15.698   9.691  0.1418  0.0667 -0.1022
  538loPI   C2A 8600  12.024  15.612   9.243 -0.2560 -0.1202 -0.0700
  538loPI   C3A 8601  12.050  15.681   8.710 -0.1858  0.0790  0.0238
  538loPI   C4A 8602  12.150  15.721   8.270 -0.2562  0.3125 -0.0443
  538loPI   C5A 8603  12.322  15.862   7.898 -0.2817  0.0853  0.3959
  538loPI   C6A 8604  12.665  15.923   7.695 -0.1317 -0.0758  0.4313
  538loPI   C1B 8605  12.505  15.360   9.845 -0.2007 -0.1743 -0.0937
  538loPI   C2B 8606  12.489  15.454   9.469 -0.2703  0.2258  0.1029
  538loPI   C3B 8607  12.589  15.404   8.985 -0.0371  0.3011  0.2201
  538loPI   C4B 8608  12.508  15.400   8.576  0.1300  0.0445  0.0392
  539loPI    C1 8609   5.704  15.473  10.913 -0.0624 -0.1330 -0.3436
  539loPI    C2 8610   5.361  15.270  10.955 -0.2625  0.2277 -0.1915
  539loPI    C3 8611   5.499  15.495  11.256  0.1246  0.0657 -0.2424
  539loPI   PO4 8612   5.841  15.379  10.711  0.1065  0.0021 -0.2080
  539loPI   GL1 8613   5.940  15.311  10.285  0.0564 -0.1366 -0.1243
  539loPI   GL2 8614   5.712  15.195  10.144  0.4083  0.1900 -0.0538
  539loPI   C1A 8615   6.134  15.443   9.919  0.0435 -0.0599  0.1382
  539loPI   C2A 8616   6.109  15.392   9.440  0.4677  0.1636  0.3347
  539loPI   C3A 8617   6.067  15.268   9.103  0.0996 -0.0134  0.1648
  539loPI   C4A 8618   6.016  15.323   8.788  0.0622  0.0065  0.1043
  539loPI   C5A 8619   5.977  15.186   8.367  0.5100 -0.2729 -0.2144
  539loPI   C6A 8620   6.132  14.835   8.072  0.1741  0.3873 -0.1249
  539loPI   C1B 8621   5.757  15.154   9.762 -0.0024  0.0824  0.1953
  539loPI   C2B 8622   5.693  15.080   9.400  0.1694  0.0727  0.0253
  539loPI   C3B 8623   5.651  15.061   9.005 -0.1684 -0.1139 -0.0444
  539loPI   C4B 8624   5.491  15.038   8.633 -0.1074 -0.4149  0.1889
  540loPI    C1 8625  13.103  16.492  10.701 -0.1280 -0.0864  0.1559
  540loPI    C2 8626  13.041  16.836  10.894  0.3142  0.1147 -0.0466
  540loPI    C3 8627  12.838  16.508  11.000  0.0379  0.3850  0.2856
  540loPI   PO4 8628  13.016  16.535  10.494  0.1000 -0.2469  0.4544
  540loPI   GL1 8629  13.301  16.455  10.136  0.1213 -0.1537  0.1449
  540loPI   GL2 8630  13.619  16.416  10.082 -0.0864  0.0714 -0.2962
  540loPI   C1A 8631  13.036  16.215   9.771  0.2408  0.3757 -0.0121
  540loPI   C2A 8632  12.988  16.106   9.315  0.3330  0.1182  0.2308
  540loPI   C3A 8633  12.945  16.200   8.867  0.0819 -0.2109 -0.2056
  540loPI   C4A 8634  13.045  16.072   8.456 -0.1145  0.2794  0.2929
  540loPI   C5A 8635  12.947  16.212   8.009 -0.2598  0.0509 -0.0377
  540loPI   C6A 8636  13.320  16.544   7.734  0.1913  0.1504 -0.3227
  540loPI   C1B 8637  13.467  16.534   9.703 -0.0096 -0.1469  0.0059
  540loPI   C2B 8638  13.361  16.386   9.150  0.1129 -0.1346  0.2544
  540loPI   C3B 8639  13.428  16.333   8.711  0.3016  0.0699  0.0845
  540loPI   C4B 8640  13.455  16.368   8.226 -0.2868  0.0994 -0.1229
  541loPI    C1 8641  18.057   4.258  10.680 -0.2582  0.1621  0.0090
  541loPI    C2 8642  17.856   4.313  11.022 -0.0257 -0.0993  0.1920
  541loPI    C3 8643  18.253   4.265  11.029 -0.0030  0.0171 -0.1286
  541loPI   PO4 8644  17.973   4.362  10.528  0.1992  0.0650  0.0331
  541loPI   GL1 8645  17.726   4.506  10.277  0.0762 -0.3604  0.1261
  541loPI   GL2 8646  17.411   4.530  10.244 -0.2085 -0.0242  0.0536
  541loPI   C1A 8647  17.994   4.476   9.898  0.0603 -0.1821  0.1942
  541loPI   C2A 8648  17.893   4.330   9.527  0.2243  0.3407 -0.0173
  541loPI   C3A 8649  17.940   4.395   9.124 -0.0312  0.1615 -0.0367
  541loPI   C4A 8650  17.946   4.353   8.628 -0.1060 -0.1685 -0.1333
  541loPI   C5A 8651  17.780   4.221   8.280 -0.0627 -0.1699  0.0877
  541loPI   C6A 8652  17.942   4.197   7.881  0.2810  0.2172 -0.2819
  541loPI   C1B 8653  17.527   4.623   9.831  0.1085 -0.2613 -0.1041
  541loPI   C2B 8654  17.467   4.589   9.403 -0.2629 -0.2112  0.0646
  541loPI   C3B 8655  17.551   4.697   8.885 -0.0948  0.1248 -0.0604
  541loPI   C4B 8656  17.393   4.653   8.359  0.0679 -0.3066 -0.2026
  542loPI    C1 8657  13.626   3.268  10.555  0.0732  0.0167  0.2191
  542loPI    C2 8658  13.567   2.952  10.792 -0.1250 -0.0261  0.1147
  542loPI    C3 8659  13.439   3.314  10.905  0.0459  0.0064  0.2059
  542loPI   PO4 8660  13.823   3.113  10.372  0.1569  0.0389 -0.4855
  542loPI   GL1 8661  13.802   2.861   9.993 -0.0971  0.0894  0.1205
  542loPI   GL2 8662  13.667   2.524   9.892 -0.2017  0.2358 -0.0387
  542loPI   C1A 8663  13.704   3.003   9.610 -0.1226  0.1157  0.0071
  542loPI   C2A 8664  13.850   3.041   9.148  0.0085  0.3617  0.0916
  542loPI   C3A 8665  13.942   3.059   8.787 -0.0303  0.2151 -0.1338
  542loPI   C4A 8666  13.979   3.137   8.371 -0.0179 -0.3534 -0.1681
  542loPI   C5A 8667  14.187   3.334   8.046  0.2507 -0.0586  0.1199
  542loPI   C6A 8668  14.229   3.666   7.868 -0.1778 -0.0767  0.0611
  542loPI   C1B 8669  13.805   2.549   9.501 -0.3565 -0.0840 -0.2738
  542loPI   C2B 8670  13.837   2.508   9.105 -0.1107 -0.3952 -0.0369
  542loPI   C3B 8671  13.913   2.457   8.666  0.0153  0.0228  0.1129
  542loPI   C4B 8672  14.006   2.290   8.143  0.0546 -0.0437  0.2409
  543loPI    C1 8673  14.744   0.394  10.881  0.1061 -0.1167  0.2386
  543loPI    C2 8674  14.930   0.231  11.196  0.0776  0.0439  0.3397
  543loPI    C3 8675  14.672   0.532  11.249 -0.0060  0.0030  0.1724
  543loPI   PO4 8676  14.780   0.231  10.665 -0.1450  0.3333 -0.2269
  543loPI   GL1 8677  14.874   0.201  10.296 -0.1629  0.0533  0.1482
  543loPI   GL2 8678  14.997  -0.028  10.309 -0.1369  0.6754  0.2112
  543loPI   C1A 8679  14.767   0.448   9.970 -0.3507  0.2482 -0.1985
  543loPI   C2A 8680  14.729   0.611   9.565 -0.4508  0.1078  0.1180
  543loPI   C3A 8681  14.804   0.490   9.110 -0.0997  0.0254 -0.2169
  543loPI   C4A 8682  14.836   0.435   8.669 -0.1776 -0.2327 -0.4603
  543loPI   C5A 8683  14.595   0.281   8.269 -0.1332 -0.1128  0.0339
  543loPI   C6A 8684  14.708   0.435   7.864 -0.1223 -0.0877  0.0560
  543loPI   C1B 8685  14.866  -0.062   9.799 -0.0145  0.1385 -0.0459
  543loPI   C2B 8686  14.838  -0.180   9.320 -0.1310  0.3819 -0.0126
  543loPI   C3B 8687  14.713  -0.099   8.942 -0.2247 -0.2129 -0.1778
  543loPI   C4B 8688  14.783  -0.121   8.500 -0.0024  0.3089 -0.2087
  544loPI    C1 8689  15.486   9.507  10.654  0.1048 -0.1857 -0.0628
  544loPI    C2 8690  15.574   9.275  10.967 -0.0963 -0.0535  0.0942
  544loPI    C3 8691  15.199   9.403  10.912  0.0148  0.2464  0.0193
  544loPI   PO4 8692  15.538   9.492  10.454  0.1002 -0.1855  0.0067
  544loPI   GL1 8693  15.451   9.700  10.136  0.1068  0.2055  0.3510
  544loPI   GL2 8694  15.666   9.908  10.126 -0.1498 -0.1187 -0.0292
  544loPI   C1A 8695  15.244   9.589   9.746  0.0552  0.0396  0.2097
  544loPI   C2A 8696  15.242   9.529   9.286 -0.3212  0.1136  0.1984
  544loPI   C3A 8697  15.160   9.676   8.885 -0.1525  0.5567  0.2085
  544loPI   C4A 8698  15.204   9.642   8.468 -0.0181  0.0457  0.1491
  544loPI   C5A 8699  15.286   9.866   8.182 -0.1843 -0.2582  0.1057
  544loPI   C6A 8700  15.211  10.016   7.804 -0.2250 -0.1178  0.1106
  544loPI   C1B 8701  15.697   9.949   9.811  0.1301  0.0648 -0.0677
  544loPI   C2B 8702  15.728   9.787   9.391 -0.3421 -0.0884  0.4522
  544loPI   C3B 8703  15.618   9.805   8.978  0.0910 -0.0463 -0.0502
  544loPI   C4B 8704  15.581   9.860   8.685  0.2355 -0.2186 -0.0335
  545loPI    C1 8705   1.696   5.614  10.428  0.2301 -0.2515 -0.1677
  545loPI    C2 8706   1.789   5.312  10.673 -0.0039  0.0778  0.3441
  545loPI    C3 8707   1.846   5.689  10.791 -0.3697  0.2506 -0.0068
  545loPI   PO4 8708   1.478   5.517  10.344 -0.3109  0.1817 -0.1325
  545loPI   GL1 8709   1.330   5.564   9.987 -0.2874  0.2683  0.3498
  545loPI   GL2 8710   1.080   5.835  10.022 -0.3516 -0.1401  0.1151
  545loPI   C1A 8711   1.518   5.358   9.649 -0.2424 -0.3699 -0.1468
  545loPI   C2A 8712   1.497   5.446   9.271 -0.1468  0.4272 -0.2744
  545loPI   C3A 8713   1.513   5.416   8.743 -0.2303 -0.0329  0.0358
  545loPI   C4A 8714   1.263   5.439   8.407  0.1410 -0.3539 -0.0511
  545loPI   C5A 8715   1.220   5.310   7.962 -0.0865  0.4370 -0.1600
  545loPI   C6A 8716   1.314   5.403   7.501  0.1973 -0.0743  0.0635
  545loPI   C1B 8717   0.995   5.713   9.577 -0.0559  0.0889 -0.1280
  545loPI   C2B 8718   1.031   5.690   9.077 -0.1973 -0.0698 -0.0429
  545loPI   C3B 8719   0.925   5.705   8.658 -0.1254  0.3295 -0.1716
  545loPI   C4B 8720   0.942   5.799   8.234 -0.3069  0.5251  0.0418
  546loPI    C1 8721   5.112   4.494  10.594  0.2000 -0.0940  0.0665
  546loPI    C2 8722   4.978   4.624  10.948 -0.1113  0.0124 -0.0865
  546loPI    C3 8723   4.917   4.244  10.838 -0.1113  0.0081 -0.0716
  546loPI   PO4 8724   5.146   4.701  10.461  0.1210 -0.2678  0.1596
  546loPI   GL1 8725   4.861   4.805  10.220 -0.1042 -0.2332 -0.2192
  546loPI   GL2 8726   4.679   4.572  10.119 -0.0131 -0.1891  0.1639
  546loPI   C1A 8727   5.032   4.925   9.806  0.1612  0.3140 -0.0147
  546loPI   C2A 8728   5.094   4.848   9.337 -0.1522 -0.2384  0.2426
  546loPI   C3A 8729   5.011   4.882   8.973  0.2291  0.4153 -0.1640
  546loPI   C4A 8730   5.054   4.881   8.553 -0.1992  0.1723  0.4759
  546loPI   C5A 8731   5.149   4.941   8.099 -0.0226 -0.1853 -0.1046
  546loPI   C6A 8732   5.526   4.800   7.968 -0.3323 -0.6829  0.0105
  546loPI   C1B 8733   4.601   4.590   9.710  0.1798 -0.2785 -0.0895
  546loPI   C2B 8734   4.664   4.715   9.285  0.0368  0.3334 -0.1703
  546loPI   C3B 8735   4.564   4.600   8.897 -0.1803  0.3207 -0.0705
  546loPI   C4B 8736   4.587   4.778   8.522  0.1864  0.3110 -0.0060
  547loPI    C1 8737   6.208  18.326  10.565  0.1177 -0.0330  0.1250
  547loPI    C2 8738   6.408  18.511  10.858 -0.0547  0.0906  0.1660
  547loPI    C3 8739   6.056  18.336  10.935 -0.0450  0.0226  0.0578
  547loPI   PO4 8740   6.445  18.166  10.386 -0.1391  0.3197 -0.3539
  547loPI   GL1 8741   6.687  18.326   9.966  0.0341  0.0160 -0.2452
  547loPI   GL2 8742   6.438  18.509   9.872 -0.1489 -0.1308 -0.1153
  547loPI   C1A 8743   6.570  18.197   9.466  0.2390 -0.0486 -0.1794
  547loPI   C2A 8744   6.550  18.219   9.045 -0.0135 -0.1938 -0.0188
  547loPI   C3A 8745   6.575  18.186   8.641 -0.0718  0.0166 -0.1991
  547loPI   C4A 8746   6.496  18.118   8.205 -0.2356  0.2560 -0.0694
  547loPI   C5A 8747   6.470  18.158   7.836  0.2254 -0.0719  0.2832
  547loPI   C6A 8748   6.245  18.270   7.317  0.0923 -0.4436 -0.1893
  547loPI   C1B 8749   6.112  18.481   9.504  0.2291  0.2767  0.3353
  547loPI   C2B 8750   6.064  18.521   8.990 -0.0541 -0.0605  0.0282
  547loPI   C3B 8751   6.061  18.501   8.490 -0.1300  0.1959  0.0268
  547loPI   C4B 8752   6.069  18.277   8.114  0.1041  0.1673  0.1132
  548loPI    C1 8753   7.935   0.736  10.664  0.1591  0.1085  0.1568
  548loPI    C2 8754   7.751   0.430  10.845 -0.0050  0.0338 -0.1304
  548loPI    C3 8755   8.018   0.649  11.046 -0.1487 -0.0749  0.1859
  548loPI   PO4 8756   7.918   0.623  10.400  0.1684 -0.2795 -0.0604
  548loPI   GL1 8757   8.046   0.544   9.984 -0.2168  0.1391 -0.2024
  548loPI   GL2 8758   8.208   0.298  10.133 -0.4273 -0.0730 -0.0637
  548loPI   C1A 8759   7.977   0.336   9.541 -0.2556  0.2309 -0.1645
  548loPI   C2A 8760   7.916   0.268   9.172 -0.0031 -0.1028  0.2880
  548loPI   C3A 8761   7.916   0.141   8.712  0.0175  0.4362 -0.2863
  548loPI   C4A 8762   7.910   0.187   8.359  0.2659 -0.0326  0.4145
  548loPI   C5A 8763   7.956   0.234   7.981 -0.1049  0.0719 -0.0507
  548loPI   C6A 8764   8.123   0.037   7.702 -0.2344 -0.2193 -0.1300
  548loPI   C1B 8765   8.423   0.121   9.906 -0.0308  0.2536 -0.2097
  548loPI   C2B 8766   8.437   0.116   9.502 -0.0893 -0.0887  0.1081
  548loPI   C3B 8767   8.328  -0.081   9.118  0.0808 -0.0171  0.4653
  548loPI   C4B 8768   8.320  -0.090   8.643  0.1623 -0.2376 -0.4733
  549loPI    C1 8769  14.096  11.227  10.916  0.1067 -0.0231 -0.3530
  549loPI    C2 8770  14.413  11.119  11.134  0.0057 -0.0388 -0.2124
  549loPI    C3 8771  14.227  11.464  11.210 -0.2424 -0.2068 -0.0405
  549loPI   PO4 8772  14.105  11.086  10.641  0.2102  0.0795  0.0748
  549loPI   GL1 8773  13.915  11.155  10.283  0.0392 -0.5317 -0.2971
  549loPI   GL2 8774  14.073  11.434  10.141 -0.0331  0.2123  0.1403
  549loPI   C1A 8775  13.888  10.845   9.918 -0.2811 -0.0751  0.0610
  549loPI   C2A 8776  13.894  10.894   9.460 -0.1340  0.1019 -0.3818
  549loPI   C3A 8777  13.810  10.850   9.074  0.1919  0.1041  0.1222
  549loPI   C4A 8778  13.809  10.916   8.572 -0.1091  0.0742  0.0230
  549loPI   C5A 8779  13.789  10.923   8.166  0.0518  0.2861  0.0080
  549loPI   C6A 8780  14.044  10.752   7.912  0.4370  0.1428  0.2179
  549loPI   C1B 8781  13.990  11.446   9.681  0.0628  0.2403  0.1296
  549loPI   C2B 8782  13.902  11.434   9.249 -0.4396  0.5157 -0.2331
  549loPI   C3B 8783  13.788  11.307   8.843 -0.2667  0.0692 -0.0766
  549loPI   C4B 8784  13.758  11.381   8.296  0.1007  0.0136 -0.0254
  550loPI    C1 8785   5.132   2.645  10.886  0.0595  0.0164 -0.0495
  550loPI    C2 8786   5.276   2.917  10.631  0.2282  0.0559  0.0857
  550loPI    C3 8787   4.993   3.020  10.893  0.0474  0.0127 -0.0898
  550loPI   PO4 8788   5.079   2.440  10.607  0.1027  0.0175  0.1259
  550loPI   GL1 8789   5.006   2.494  10.160 -0.0301  0.1243 -0.5307
  550loPI   GL2 8790   5.237   2.548   9.970 -0.1673 -0.0580  0.1888
  550loPI   C1A 8791   4.760   2.178   9.831 -0.5414  0.2048 -0.2347
  550loPI   C2A 8792   4.720   2.134   9.397 -0.0168  0.0029 -0.0614
  550loPI   C3A 8793   4.630   2.021   9.054  0.0458  0.0859 -0.2041
  550loPI   C4A 8794   4.633   1.911   8.664  0.1721 -0.0131 -0.1452
  550loPI   C5A 8795   4.684   1.794   8.319 -0.0085  0.2051  0.2090
  550loPI   C6A 8796   4.378   1.806   8.090  0.0170 -0.1903  0.3764
  550loPI   C1B 8797   5.250   2.351   9.595  0.0155 -0.3640  0.0155
  550loPI   C2B 8798   5.122   2.288   9.191  0.1958  0.0872  0.0987
  550loPI   C3B 8799   5.101   2.239   8.853  0.0658 -0.4434  0.0584
  550loPI   C4B 8800   5.064   2.167   8.395  0.0897 -0.0888 -0.0776
  551loPI    C1 8801  15.275  17.429  10.674 -0.0330  0.1085  0.0237
  551loPI    C2 8802  15.356  17.040  10.722 -0.1140  0.0842 -0.0351
  551loPI    C3 8803  15.051  17.207  10.920 -0.0249  0.1378  0.0578
  551loPI   PO4 8804  15.358  17.510  10.421 -0.2338 -0.0628  0.0233
  551loPI   GL1 8805  15.252  17.700   9.992 -0.1845 -0.2731  0.2545
  551loPI   GL2 8806  15.643  17.663   9.948 -0.2881 -0.2939  0.1187
  551loPI   C1A 8807  15.210  17.866   9.659 -0.2526  0.0010  0.0057
  551loPI   C2A 8808  15.269  17.958   9.243 -0.0390  0.0193 -0.1264
  551loPI   C3A 8809  15.195  18.012   8.752  0.1615  0.0146  0.0055
  551loPI   C4A 8810  15.105  17.941   8.265  0.2284 -0.0888 -0.0481
  551loPI   C5A 8811  15.258  17.844   7.932 -0.0087  0.5468 -0.2466
  551loPI   C6A 8812  15.349  17.716   7.526 -0.2560 -0.0419  0.1642
  551loPI   C1B 8813  15.699  17.786   9.602 -0.2715  0.1660  0.0089
  551loPI   C2B 8814  15.709  17.687   9.263 -0.0850  0.2651 -0.1486
  551loPI   C3B 8815  15.655  17.681   8.871 -0.0483 -0.0149  0.5342
  551loPI   C4B 8816  15.643  17.650   8.386 -0.0186  0.2198  0.0617
  552loPI    C1 8817   4.014   8.827  10.456  0.0428 -0.1053 -0.0509
  552loPI    C2 8818   4.191   9.173  10.548  0.1007 -0.1042 -0.1644
  552loPI    C3 8819   4.082   8.922  10.838  0.1525 -0.0372 -0.0866
  552loPI   PO4 8820   3.850   8.887  10.245 -0.3112  0.0432  0.0611
  552loPI   GL1 8821   3.692   8.890   9.886  0.1460  0.0980  0.0255
  552loPI   GL2 8822   3.412   9.171   9.719 -0.0369 -0.2633  0.0470
  552loPI   C1A 8823   3.791   8.805   9.503  0.1982 -0.1752  0.0633
  552loPI   C2A 8824   3.703   8.789   9.076 -0.1724 -0.1974 -0.1411
  552loPI   C3A 8825   3.587   8.782   8.629  0.0001  0.1332 -0.2133
  552loPI   C4A 8826   3.484   8.812   8.168  0.1240 -0.0540  0.2805
  552loPI   C5A 8827   3.703   8.564   7.902 -0.0768  0.1278 -0.1382
  552loPI   C6A 8828   4.017   8.311   7.856 -0.2891  0.0216  0.4729
  552loPI   C1B 8829   3.225   8.957   9.375  0.1376 -0.1546 -0.1311
  552loPI   C2B 8830   3.234   9.071   8.975 -0.0248  0.0160  0.1397
  552loPI   C3B 8831   3.126   9.073   8.536 -0.1370  0.0673 -0.1514
  552loPI   C4B 8832   3.159   9.190   8.164 -0.2610  0.1107 -0.1876
  553loPI    C1 8833   9.224  17.362  10.853 -0.0065 -0.2131 -0.1704
  553loPI    C2 8834   9.603  17.329  10.978 -0.0859  0.0974  0.1700
  553loPI    C3 8835   9.320  17.092  11.132  0.0111 -0.3388 -0.2972
  553loPI   PO4 8836   9.267  17.386  10.572  0.1848  0.0392  0.0283
  553loPI   GL1 8837   9.355  17.480  10.163  0.1023  0.0324  0.1411
  553loPI   GL2 8838   9.141  17.179   9.972  0.0370 -0.3087  0.0720
  553loPI   C1A 8839   9.699  17.172   9.995 -0.1240 -0.2098 -0.0840
  553loPI   C2A 8840   9.810  16.945   9.579 -0.2636 -0.1510 -0.2595
  553loPI   C3A 8841   9.770  16.973   9.132  0.0916 -0.0421  0.2840
  553loPI   C4A 8842   9.803  16.884   8.720 -0.2130 -0.0434 -0.2918
  553loPI   C5A 8843   9.920  16.946   8.298  0.0545  0.1076 -0.2065
  553loPI   C6A 8844   9.933  16.727   7.850  0.1792 -0.2195 -0.0479
  553loPI   C1B 8845   9.229  17.389   9.586  0.1817  0.0358  0.1790
  553loPI   C2B 8846   9.255  17.306   9.124 -0.1774  0.1991 -0.4137
  553loPI   C3B 8847   9.252  17.251   8.660  0.0381 -0.2815  0.0259
  553loPI   C4B 8848   9.406  17.191   8.153  0.0356 -0.2164 -0.0960
  554loPI    C1 8849   3.366   9.663  10.397  0.1067 -0.0705 -0.0746
  554loPI    C2 8850   3.246   9.311  10.543 -0.0635  0.0884  0.1783
  554loPI    C3 8851   3.325   9.614  10.792 -0.1090  0.2889 -0.0473
  554loPI   PO4 8852   3.117   9.666  10.200 -0.1128  0.0354  0.2325
  554loPI   GL1 8853   3.009   9.807   9.800  0.4176  0.2001 -0.2765
  554loPI   GL2 8854   3.389   9.640   9.810 -0.3814 -0.0735 -0.0786
  554loPI   C1A 8855   2.879   9.863   9.366 -0.0123 -0.0903  0.0599
  554loPI   C2A 8856   2.710   9.905   8.949 -0.1923  0.2100 -0.2618
  554loPI   C3A 8857   2.789   9.884   8.529  0.0836  0.1504  0.0706
  554loPI   C4A 8858   2.753  10.114   8.138 -0.1476 -0.2310 -0.1513
  554loPI   C5A 8859   2.665  10.469   7.883  0.1471 -0.2191  0.4232
  554loPI   C6A 8860   2.724  10.512   7.467  0.0096 -0.1529  0.1107
  554loPI   C1B 8861   3.375   9.587   9.454  0.2894  0.0643  0.1427
  554loPI   C2B 8862   3.308   9.600   9.042 -0.1553  0.0265  0.2140
  554loPI   C3B 8863   3.196   9.579   8.563  0.1808  0.1984 -0.0096
  554loPI   C4B 8864   3.068   9.674   8.131  0.1733  0.1222 -0.0152
  555loPI    C1 8865  11.284  11.261  10.921  0.2347  0.0880 -0.1626
  555loPI    C2 8866  11.304  11.121  11.295 -0.0106  0.0008 -0.1805
  555loPI    C3 8867  11.424  11.494  11.215  0.0302  0.0244 -0.0128
  555loPI   PO4 8868  11.225  11.098  10.806 -0.1378 -0.0324  0.0442
  555loPI   GL1 8869  11.131  10.973  10.416 -0.2712 -0.0108  0.2518
  555loPI   GL2 8870  11.114  10.714  10.233 -0.0467 -0.0807  0.1213
  555loPI   C1A 8871  10.813  11.055  10.093 -0.3305 -0.0168 -0.1835
  555loPI   C2A 8872  10.645  11.172   9.649 -0.1218 -0.2995 -0.1047
  555loPI   C3A 8873  10.654  11.269   9.227 -0.0029  0.0549 -0.0160
  555loPI   C4A 8874  10.662  11.222   8.799 -0.3952  0.0821 -0.1393
  555loPI   C5A 8875  10.579  11.249   8.312  0.3057 -0.0888  0.0696
  555loPI   C6A 8876  10.693  11.263   7.953  0.2139  0.0171 -0.1748
  555loPI   C1B 8877  11.171  10.911   9.782 -0.1834 -0.0418  0.0757
  555loPI   C2B 8878  11.017  10.940   9.285 -0.0025 -0.0268 -0.1850
  555loPI   C3B 8879  11.104  10.933   8.788  0.2586 -0.2268 -0.0293
  555loPI   C4B 8880  11.107  11.018   8.406 -0.2308 -0.3224 -0.0151
  556loPI    C1 8881   9.443   1.068  10.284  0.1689  0.0489 -0.0568
  556loPI    C2 8882   9.640   0.802  10.509  0.1791  0.0827 -0.0257
  556loPI    C3 8883   9.530   1.154  10.665 -0.1585 -0.0498  0.0436
  556loPI   PO4 8884   9.503   1.069  10.052 -0.2853 -0.0478 -0.3494
  556loPI   GL1 8885   9.623   0.817   9.796  0.2018  0.0705  0.0365
  556loPI   GL2 8886   9.294   0.781   9.664 -0.1834 -0.3825 -0.2173
  556loPI   C1A 8887   9.746   0.815   9.417 -0.1538 -0.1950  0.0784
  556loPI   C2A 8888   9.903   0.747   8.945  0.3268  0.0676 -0.0465
  556loPI   C3A 8889   9.859   0.725   8.546  0.1288 -0.2128 -0.0669
  556loPI   C4A 8890   9.720   0.724   8.157  0.0455 -0.0797  0.2368
  556loPI   C5A 8891   9.772   0.716   7.730  0.4648 -0.2944  0.0115
  556loPI   C6A 8892   9.795   0.375   7.624  0.0706 -0.0217 -0.0566
  556loPI   C1B 8893   9.315   0.587   9.214  0.0084  0.0463 -0.0920
  556loPI   C2B 8894   9.273   0.400   8.836 -0.0382  0.0328  0.0716
  556loPI   C3B 8895   9.201   0.307   8.364  0.1656  0.0994  0.0525
  556loPI   C4B 8896   9.338   0.327   7.913  0.0348 -0.1799  0.0417
  557loPI    C1 8897   2.804  13.035  10.423  0.0187  0.1058 -0.0544
  557loPI    C2 8898   2.819  12.991  10.820 -0.2484 -0.1473 -0.0687
  557loPI    C3 8899   2.867  12.673  10.582 -0.2283 -0.0201 -0.2365
  557loPI   PO4 8900   2.597  13.081  10.302 -0.2163  0.2251 -0.0930
  557loPI   GL1 8901   2.416  12.932   9.955  0.1019 -0.1692 -0.0741
  557loPI   GL2 8902   2.228  13.051   9.917 -0.0947  0.1150 -0.0617
  557loPI   C1A 8903   2.399  12.766   9.513  0.2662 -0.1197 -0.0410
  557loPI   C2A 8904   2.304  12.772   9.036 -0.2057 -0.2260  0.1481
  557loPI   C3A 8905   2.367  12.666   8.621  0.1748  0.0228 -0.0827
  557loPI   C4A 8906   2.430  12.423   8.236 -0.0537 -0.4095  0.0820
  557loPI   C5A 8907   2.548  12.521   7.837  0.0617 -0.1562  0.1011
  557loPI   C6A 8908   2.871  12.870   7.737 -0.1056  0.2185 -0.0022
  557loPI   C1B 8909   1.965  12.994   9.610  0.1098 -0.0127 -0.1464
  557loPI   C2B 8910   1.823  13.003   9.158  0.1351 -0.2968  0.0222
  557loPI   C3B 8911   1.868  12.974   8.756  0.0209 -0.1076  0.0478
  557loPI   C4B 8912   2.037  12.923   8.352 -0.1337 -0.3799 -0.3825
  558loPI    C1 8913   4.816  11.759  10.857  0.0317  0.1550 -0.0925
  558loPI    C2 8914   4.578  12.010  11.057  0.0111 -0.1757  0.3121
  558loPI    C3 8915   4.714  11.679  11.235  0.1563 -0.3810 -0.1641
  558loPI   PO4 8916   4.578  11.778  10.592 -0.4412  0.0252 -0.5030
  558loPI   GL1 8917   4.623  11.599  10.211  0.1439  0.0047 -0.0707
  558loPI   GL2 8918   4.410  11.849  10.021 -0.2514 -0.1080  0.0229
  558loPI   C1A 8919   4.838  11.436   9.879  0.2023 -0.2591 -0.1283
  558loPI   C2A 8920   4.871  11.353   9.511  0.4582 -0.3810 -0.1467
  558loPI   C3A 8921   4.744  11.394   9.155  0.1535  0.0877 -0.1457
  558loPI   C4A 8922   4.706  11.465   8.629  0.1829  0.2498 -0.2165
  558loPI   C5A 8923   4.619  11.532   8.211  0.1332 -0.1535 -0.2308
  558loPI   C6A 8924   4.438  11.826   7.961 -0.0247 -0.0489 -0.0152
  558loPI   C1B 8925   4.404  11.703   9.625 -0.0413  0.0595  0.1551
  558loPI   C2B 8926   4.269  11.707   9.289  0.0415 -0.1614  0.0655
  558loPI   C3B 8927   4.119  11.666   8.796  0.0218 -0.2937 -0.0584
  558loPI   C4B 8928   4.024  11.838   8.300 -0.3124 -0.4315  0.2881
  559loPI    C1 8929   6.480   2.773  10.635  0.0526 -0.1709  0.0952
  559loPI    C2 8930   6.473   3.110  10.851 -0.1104 -0.1363  0.0379
  559loPI    C3 8931   6.265   2.790  10.972 -0.1341 -0.1442 -0.0234
  559loPI   PO4 8932   6.460   2.837  10.328  0.1639  0.1492  0.0399
  559loPI   GL1 8933   6.126   2.951  10.076  0.0829 -0.2452  0.1034
  559loPI   GL2 8934   6.457   3.039   9.825 -0.1043 -0.0103 -0.0324
  559loPI   C1A 8935   5.742   3.109   9.781 -0.0418  0.0654 -0.4636
  559loPI   C2A 8936   5.639   3.063   9.380  0.0957  0.1160 -0.0923
  559loPI   C3A 8937   5.614   3.113   8.840  0.1074  0.2429 -0.0730
  559loPI   C4A 8938   5.524   3.000   8.462  0.1720 -0.0352  0.4929
  559loPI   C5A 8939   5.447   2.860   8.122  0.2609  0.2080  0.1186
  559loPI   C6A 8940   5.428   2.729   7.682  0.2029 -0.2132 -0.1627
  559loPI   C1B 8941   6.235   2.891   9.533 -0.0601  0.2942 -0.1878
  559loPI   C2B 8942   5.945   2.821   9.110  0.0899  0.0390  0.2541
  559loPI   C3B 8943   5.936   2.739   8.629 -0.0813  0.3708  0.0108
  559loPI   C4B 8944   5.875   2.669   8.203  0.0055  0.1740 -0.0000
  560loPI    C1 8945   6.343   7.559  10.716  0.2367 -0.2222 -0.0304
  560loPI    C2 8946   6.471   7.934  10.666 -0.1014 -0.0879  0.0774
  560loPI    C3 8947   6.618   7.711  10.964 -0.1971  0.1019  0.2701
  560loPI   PO4 8948   6.374   7.459  10.508 -0.1979 -0.0416  0.0596
  560loPI   GL1 8949   6.341   7.321  10.037 -0.0549 -0.0822 -0.3261
  560loPI   GL2 8950   6.614   7.077   9.820 -0.0411 -0.1650  0.2904
  560loPI   C1A 8951   6.129   7.447   9.758  0.0994 -0.1058 -0.1025
  560loPI   C2A 8952   6.124   7.403   9.295 -0.0140 -0.0331  0.2957
  560loPI   C3A 8953   6.005   7.446   8.851 -0.0922  0.2316 -0.0711
  560loPI   C4A 8954   5.997   7.604   8.515 -0.1326  0.0424 -0.1060
  560loPI   C5A 8955   6.109   7.599   8.111  0.2010 -0.0195  0.1841
  560loPI   C6A 8956   6.176   7.401   7.807  0.1884  0.0804 -0.0358
  560loPI   C1B 8957   6.552   7.156   9.369  0.0537 -0.0256 -0.0283
  560loPI   C2B 8958   6.433   7.164   8.929  0.2490 -0.4816  0.2278
  560loPI   C3B 8959   6.331   7.206   8.554 -0.3012  0.2853  0.1250
  560loPI   C4B 8960   6.078   7.077   8.183  0.1343  0.0610 -0.3535
  561loPI    C1 8961   5.772   6.985  10.882 -0.1025 -0.3723  0.0025
  561loPI    C2 8962   5.984   6.815  10.588  0.1554 -0.2574  0.1185
  561loPI    C3 8963   6.146   7.108  10.808 -0.2738  0.1315 -0.0656
  561loPI   PO4 8964   5.612   7.070  10.759 -0.3754 -0.1285  0.0011
  561loPI   GL1 8965   5.554   6.986  10.340 -0.1792 -0.0237 -0.1746
  561loPI   GL2 8966   5.380   6.813  10.098 -0.1956  0.1476 -0.2061
  561loPI   C1A 8967   5.688   7.146   9.966  0.4007  0.1195 -0.1164
  561loPI   C2A 8968   5.635   7.176   9.510 -0.2927 -0.0465  0.2463
  561loPI   C3A 8969   5.625   7.141   9.117  0.1209 -0.0826 -0.3698
  561loPI   C4A 8970   5.549   7.141   8.783  0.2389  0.1129 -0.1199
  561loPI   C5A 8971   5.614   7.229   8.420  0.0105 -0.1792 -0.1166
  561loPI   C6A 8972   5.500   6.986   8.095 -0.2156  0.1519 -0.0443
  561loPI   C1B 8973   5.236   6.936   9.657 -0.0564 -0.2574 -0.0088
  561loPI   C2B 8974   5.152   6.907   9.179  0.0252  0.3608 -0.0676
  561loPI   C3B 8975   5.125   6.979   8.799  0.1921  0.2674 -0.0416
  561loPI   C4B 8976   5.074   7.025   8.415 -0.3154 -0.1384  0.0685
  562loPI    C1 8977   6.626   9.717  10.667 -0.0598 -0.2961  0.0497
  562loPI    C2 8978   6.884   9.750  10.971 -0.0017 -0.0544 -0.0235
  562loPI    C3 8979   6.910   9.440  10.719  0.2142 -0.0355 -0.0271
  562loPI   PO4 8980   6.629   9.962  10.578  0.1083 -0.1761  0.1727
  562loPI   GL1 8981   6.757  10.024  10.102 -0.2413  0.0439 -0.1857
  562loPI   GL2 8982   6.994  10.314  10.117  0.0331  0.2929 -0.2612
  562loPI   C1A 8983   6.688  10.239   9.704 -0.1247  0.2415 -0.0975
  562loPI   C2A 8984   6.718  10.397   9.362 -0.1426 -0.0091  0.0847
  562loPI   C3A 8985   6.603  10.272   8.979  0.0414 -0.0952 -0.2035
  562loPI   C4A 8986   6.429  10.212   8.672  0.2248  0.1768  0.1013
  562loPI   C5A 8987   6.395  10.306   8.181 -0.4600 -0.0085 -0.1439
  562loPI   C6A 8988   6.233  10.427   7.758  0.0993 -0.1422  0.0300
  562loPI   C1B 8989   7.108  10.558   9.719  0.2293 -0.2621 -0.1147
  562loPI   C2B 8990   7.172  10.627   9.291 -0.0166  0.0176  0.1300
  562loPI   C3B 8991   7.011  10.553   8.967  0.0572 -0.0110  0.0118
  562loPI   C4B 8992   6.848  10.469   8.567 -0.0459  0.2493 -0.1665
  563loPI    C1 8993   4.343  13.777  10.737 -0.0832 -0.3536 -0.0570
  563loPI    C2 8994   4.625  13.762  11.020  0.0080 -0.2094 -0.1394
  563loPI    C3 8995   4.242  13.703  11.117  0.0505 -0.2669 -0.0042
  563loPI   PO4 8996   4.396  13.660  10.620 -0.0228 -0.1298  0.0359
  563loPI   GL1 8997   4.590  13.640  10.190  0.3078 -0.1483  0.0667
  563loPI   GL2 8998   4.311  13.618  10.046 -0.1768 -0.1537  0.0486
  563loPI   C1A 8999   4.740  13.522   9.744  0.0499 -0.0445 -0.2308
  563loPI   C2A 9000   4.761  13.517   9.259  0.2149  0.1189 -0.0902
  563loPI   C3A 9001   4.682  13.599   8.814 -0.5314  0.2196  0.1136
  563loPI   C4A 9002   4.890  13.720   8.379 -0.0751 -0.2204 -0.1198
  563loPI   C5A 9003   5.067  13.824   8.116  0.0520 -0.0255  0.1764
  563loPI   C6A 9004   4.986  13.633   7.815 -0.2230 -0.1033 -0.1418
  563loPI   C1B 9005   4.188  13.638   9.740 -0.1751  0.0141  0.3781
  563loPI   C2B 9006   4.209  13.589   9.293  0.1818  0.1419  0.2767
  563loPI   C3B 9007   4.240  13.762   8.980 -0.0194  0.0039 -0.2402
  563loPI   C4B 9008   4.161  13.783   8.572  0.1261 -0.2338 -0.0977
  564loPI    C1 9009  10.191  11.210  10.858  0.0103 -0.0322  0.2118
  564loPI    C2 9010  10.352  10.929  11.093 -0.1982 -0.1392  0.2288
  564loPI    C3 9011  10.078  11.180  11.240  0.0924  0.1699  0.2531
  564loPI   PO4 9012  10.306  11.208  10.649  0.2101 -0.0724 -0.1811
  564loPI   GL1 9013  10.294  11.369  10.267 -0.1535 -0.0942 -0.1348
  564loPI   GL2 9014   9.957  11.164  10.223  0.1560  0.0018 -0.1645
  564loPI   C1A 9015  10.202  11.430   9.806  0.1286 -0.0601  0.2352
  564loPI   C2A 9016  10.228  11.392   9.422 -0.2150  0.1314  0.1325
  564loPI   C3A 9017  10.250  11.487   9.104  0.3647  0.0693 -0.1507
  564loPI   C4A 9018  10.228  11.480   8.694 -0.0174 -0.3488  0.1728
  564loPI   C5A 9019  10.045  11.353   8.292  0.0337  0.1974 -0.2084
  564loPI   C6A 9020  10.162  11.197   7.883  0.0835 -0.3798 -0.1367
  564loPI   C1B 9021   9.817  11.142   9.785  0.5936 -0.1016  0.1106
  564loPI   C2B 9022   9.885  11.078   9.418  0.3506  0.0085 -0.2136
  564loPI   C3B 9023   9.756  11.197   9.054 -0.0452 -0.2602  0.0961
  564loPI   C4B 9024   9.731  11.144   8.611 -0.0870 -0.2195 -0.0926
  565loPI    C1 9025  14.364   5.045  10.814  0.1936 -0.0911  0.0053
  565loPI    C2 9026  14.378   4.697  11.012 -0.1675 -0.0828  0.0514
  565loPI    C3 9027  14.336   5.040  11.213  0.0696 -0.0205 -0.0022
  565loPI   PO4 9028  14.259   4.905  10.524  0.0676 -0.0024 -0.1062
  565loPI   GL1 9029  14.530   4.650  10.207 -0.4173 -0.0033 -0.2650
  565loPI   GL2 9030  14.226   4.495  10.082 -0.1738  0.0923 -0.2337
  565loPI   C1A 9031  14.600   4.667   9.760 -0.2052 -0.4394  0.0197
  565loPI   C2A 9032  14.654   4.602   9.350  0.1018  0.0783 -0.4217
  565loPI   C3A 9033  14.763   4.657   8.955  0.2498  0.3392  0.2072
  565loPI   C4A 9034  14.824   4.645   8.509 -0.0995  0.1097  0.0503
  565loPI   C5A 9035  14.731   4.649   8.098 -0.3662  0.0867 -0.0479
  565loPI   C6A 9036  14.437   4.539   7.832 -0.1078  0.0850  0.1706
  565loPI   C1B 9037  14.238   4.323   9.625  0.1752 -0.0571  0.3302
  565loPI   C2B 9038  14.303   4.311   9.158  0.2353  0.1021  0.1964
  565loPI   C3B 9039  14.370   4.385   8.768  0.1519  0.0377 -0.0847
  565loPI   C4B 9040  14.348   4.442   8.382 -0.1168  0.3514  0.1781
  566loPI    C1 9041   7.687  10.915  10.926 -0.1016  0.1578  0.0713
  566loPI    C2 9042   7.531  11.074  11.258 -0.0765  0.0491  0.1359
  566loPI    C3 9043   7.785  10.766  11.285 -0.0434  0.0658  0.0178
  566loPI   PO4 9044   7.798  11.111  10.751 -0.0871 -0.0426  0.2145
  566loPI   GL1 9045   7.805  11.093  10.284 -0.0067 -0.3228 -0.1504
  566loPI   GL2 9046   7.880  11.418  10.293 -0.1751 -0.0449  0.1315
  566loPI   C1A 9047   7.530  11.218   9.996  0.2546 -0.0517  0.1333
  566loPI   C2A 9048   7.538  11.358   9.559 -0.2176 -0.0425  0.0405
  566loPI   C3A 9049   7.585  11.348   9.257 -0.0373 -0.0112 -0.2478
  566loPI   C4A 9050   7.362  11.374   8.775  0.0350 -0.2137 -0.1027
  566loPI   C5A 9051   7.541  11.298   8.355 -0.1411 -0.1280  0.2019
  566loPI   C6A 9052   7.615  11.006   7.960  0.2805 -0.2416 -0.2197
  566loPI   C1B 9053   7.872  11.522   9.850 -0.2170 -0.0662  0.0126
  566loPI   C2B 9054   7.993  11.602   9.436 -0.0540 -0.1155  0.1705
  566loPI   C3B 9055   8.024  11.522   9.013 -0.2140 -0.0540  0.0934
  566loPI   C4B 9056   7.824  11.590   8.646 -0.1320 -0.2993  0.1868
  567loPI    C1 9057   8.241   4.431  10.104 -0.2272  0.0374 -0.1026
  567loPI    C2 9058   8.604   4.281  10.179 -0.2395  0.1193  0.1294
  567loPI    C3 9059   8.327   4.289  10.468 -0.3725  0.2098  0.0009
  567loPI   PO4 9060   8.227   4.550   9.875 -0.1506  0.1074  0.1208
  567loPI   GL1 9061   8.238   4.791   9.612  0.0717  0.1221  0.2104
  567loPI   GL2 9062   7.972   4.719   9.501  0.3331  0.2980  0.3801
  567loPI   C1A 9063   8.282   4.900   9.220  0.2791  0.0542  0.1317
  567loPI   C2A 9064   8.379   4.780   8.815  0.0089  0.0848  0.7356
  567loPI   C3A 9065   8.153   4.604   8.530 -0.0010  0.1077  0.1610
  567loPI   C4A 9066   7.783   4.440   8.434  0.2045  0.0137  0.1902
  567loPI   C5A 9067   7.467   4.098   8.412  0.1694  0.0518 -0.0890
  567loPI   C6A 9068   7.042   4.093   8.623  0.0245  0.1088  0.0632
  567loPI   C1B 9069   7.896   4.498   9.035  0.1291  0.0198 -0.1629
  567loPI   C2B 9070   7.641   4.820   8.733 -0.1040  0.4208  0.0789
  567loPI   C3B 9071   7.443   5.041   8.455  0.3247  0.0297  0.0746
  567loPI   C4B 9072   7.500   5.300   8.117 -0.0240  0.3256  0.0849
  568loPI    C1 9073   9.979   1.819  10.307 -0.0127  0.2823  0.2465
  568loPI    C2 9074   9.805   1.504  10.480  0.0031  0.1864  0.0895
  568loPI    C3 9075  10.090   1.706  10.674  0.0584  0.0472  0.1549
  568loPI   PO4 9076  10.194   1.814  10.098  0.0925  0.0195  0.3679
  568loPI   GL1 9077  10.410   1.712   9.554 -0.4192 -0.2591  0.2264
  568loPI   GL2 9078  10.035   1.715   9.596 -0.0843 -0.1558  0.0285
  568loPI   C1A 9079  10.352   1.496   9.111  0.1568 -0.0749 -0.2790
  568loPI   C2A 9080  10.294   1.589   8.623 -0.0726 -0.2643 -0.1349
  568loPI   C3A 9081  10.193   1.528   8.289 -0.1784  0.1766 -0.1016
  568loPI   C4A 9082  10.215   1.411   7.972  0.0892 -0.0868 -0.0813
  568loPI   C5A 9083  10.120   1.343   7.576 -0.0490  0.3946 -0.1635
  568loPI   C6A 9084   9.815   1.278   7.378  0.0531  0.1110  0.2624
  568loPI   C1B 9085   9.728   1.795   9.329  0.1718 -0.1606 -0.1205
  568loPI   C2B 9086   9.363   1.778   9.189  0.0555  0.2947 -0.2148
  568loPI   C3B 9087   9.380   1.872   8.764  0.0587 -0.0438 -0.0853
  568loPI   C4B 9088   9.359   2.218   8.574 -0.3355  0.0371  0.0850
  569loPI    C1 9089   8.843  15.181  10.472 -0.0250 -0.2099 -0.1931
  569loPI    C2 9090   8.826  15.423  10.790 -0.2157 -0.3386 -0.1036
  569loPI    C3 9091   9.178  15.346  10.616 -0.1457 -0.0441 -0.0981
  569loPI   PO4 9092   8.618  15.357  10.311 -0.0877  0.2681  0.0535
  569loPI   GL1 9093   8.437  15.344   9.916 -0.0202  0.2425 -0.0754
  569loPI   GL2 9094   8.739  15.518   9.870  0.2578  0.2358  0.0849
  569loPI   C1A 9095   8.424  15.181   9.513  0.5521  0.3326 -0.2158
  569loPI   C2A 9096   8.384  15.089   9.169  0.0250 -0.0781 -0.0779
  569loPI   C3A 9097   8.441  15.172   8.805  0.0169 -0.2095  0.1436
  569loPI   C4A 9098   8.373  15.002   8.363 -0.0683  0.0408  0.0741
  569loPI   C5A 9099   8.458  15.006   7.925  0.1848 -0.2111  0.2907
  569loPI   C6A 9100   8.450  15.283   7.562  0.5346 -0.0272 -0.1712
  569loPI   C1B 9101   8.799  15.552   9.429  0.0253 -0.1038  0.0559
  569loPI   C2B 9102   8.870  15.319   9.013  0.1311 -0.0982  0.2288
  569loPI   C3B 9103   8.866  15.379   8.616  0.0703  0.1778  0.1917
  569loPI   C4B 9104   8.820  15.271   8.224  0.2133 -0.1532 -0.0601
  570loPI    C1 9105   9.456   4.537   9.960 -0.0422 -0.0869  0.0129
  570loPI    C2 9106   9.776   4.721   9.807  0.0929 -0.4749 -0.1856
  570loPI    C3 9107   9.809   4.513  10.147 -0.0867 -0.0465  0.1030
  570loPI   PO4 9108   9.338   4.436   9.742 -0.1633  0.0958  0.0791
  570loPI   GL1 9109   9.475   4.217   9.344 -0.1547  0.0298  0.3623
  570loPI   GL2 9110   9.649   4.154   9.161 -0.2559  0.2591 -0.0281
  570loPI   C1A 9111   9.268   4.306   8.900  0.5206 -0.2824 -0.2079
  570loPI   C2A 9112   9.008   4.414   8.526  0.1755 -0.0558  0.2764
  570loPI   C3A 9113   8.940   4.604   8.208 -0.0530  0.3115  0.0553
  570loPI   C4A 9114   8.726   4.955   7.878  0.1503 -0.1532 -0.0946
  570loPI   C5A 9115   8.229   4.734   7.852  0.0475 -0.0429 -0.3592
  570loPI   C6A 9116   7.927   4.483   7.939 -0.2126 -0.2356 -0.1979
  570loPI   C1B 9117   9.579   3.937   8.816 -0.1937  0.0951 -0.1719
  570loPI   C2B 9118   9.731   3.837   8.464 -0.1607  0.0204  0.1482
  570loPI   C3B 9119   9.623   3.865   8.168 -0.1326  0.0044 -0.0823
  570loPI   C4B 9120   9.665   4.155   7.846 -0.1405  0.2522  0.0918
  571loPI    C1 9121  16.221  10.886  10.919 -0.2024  0.0057  0.0581
  571loPI    C2 9122  16.113  10.533  10.767  0.0883 -0.1900  0.2941
  571loPI    C3 9123  16.067  10.605  11.158 -0.1918  0.1256  0.2082
  571loPI   PO4 9124  16.311  10.976  10.698  0.0568 -0.1450  0.1219
  571loPI   GL1 9125  16.146  10.909  10.366  0.1349  0.0088 -0.0775
  571loPI   GL2 9126  15.843  10.997  10.365 -0.0106  0.1403  0.0751
  571loPI   C1A 9127  16.336  10.760   9.979 -0.0085  0.0807  0.1822
  571loPI   C2A 9128  16.169  10.682   9.584  0.1727  0.0392  0.4887
  571loPI   C3A 9129  16.128  10.719   9.150  0.0603  0.4862 -0.0263
  571loPI   C4A 9130  16.075  10.610   8.696 -0.2325 -0.0537  0.3020
  571loPI   C5A 9131  15.978  10.627   8.286  0.2087  0.1903 -0.1151
  571loPI   C6A 9132  16.135  10.660   7.827 -0.0273 -0.0445  0.4480
  571loPI   C1B 9133  15.819  11.047   9.959 -0.0290  0.4221  0.0649
  571loPI   C2B 9134  15.708  10.910   9.539  0.3557  0.1787 -0.3374
  571loPI   C3B 9135  15.700  10.960   9.035 -0.1132 -0.2024 -0.3890
  571loPI   C4B 9136  15.655  10.851   8.652  0.2713 -0.2170  0.1373
  572loPI    C1 9137  11.245   6.285  10.094 -0.0765 -0.1003 -0.1101
  572loPI    C2 9138  11.190   6.262  10.489  0.1561  0.2116 -0.0557
  572loPI    C3 9139  11.250   5.929  10.276  0.1557  0.0518  0.1894
  572loPI   PO4 9140  11.092   6.444   9.924 -0.2589  0.2912 -0.1946
  572loPI   GL1 9141  11.317   6.421   9.475 -0.1180 -0.0479 -0.3869
  572loPI   GL2 9142  11.579   6.467   9.639 -0.2495 -0.0337  0.0618
  572loPI   C1A 9143  11.151   6.446   9.204 -0.1958  0.2507  0.0203
  572loPI   C2A 9144  10.979   6.606   8.850 -0.3573 -0.0972  0.1438
  572loPI   C3A 9145  11.097   6.815   8.365  0.1381 -0.1848  0.2031
  572loPI   C4A 9146  11.461   6.758   8.039 -0.0570 -0.2120  0.1978
  572loPI   C5A 9147  11.751   6.889   7.766 -0.2866 -0.5012 -0.2738
  572loPI   C6A 9148  12.120   6.601   7.675 -0.0437  0.1454  0.1605
  572loPI   C1B 9149  11.795   6.678   9.369  0.2295 -0.1450 -0.2989
  572loPI   C2B 9150  11.953   6.635   8.943  0.0960  0.3223  0.0297
  572loPI   C3B 9151  11.974   6.768   8.576 -0.1579 -0.1429  0.1531
  572loPI   C4B 9152  12.106   6.710   8.159  0.0547  0.5440 -0.0657
  573loPI    C1 9153   6.858   0.825  10.522  0.1393 -0.1694 -0.0617
  573loPI    C2 9154   6.720   0.607  10.827  0.1021 -0.2047 -0.1035
  573loPI    C3 9155   6.947   0.929  10.898  0.0048 -0.1507 -0.0348
  573loPI   PO4 9156   7.001   0.627  10.387  0.3100 -0.0236  0.3293
  573loPI   GL1 9157   7.036   0.413  10.060  0.1079 -0.0502 -0.1145
  573loPI   GL2 9158   6.732   0.603   9.933  0.1585 -0.0243 -0.1210
  573loPI   C1A 9159   7.012   0.281   9.624  0.2027  0.0163 -0.0255
  573loPI   C2A 9160   6.954   0.159   9.248 -0.3250 -0.0144  0.1876
  573loPI   C3A 9161   7.026   0.096   8.795  0.0313 -0.1177 -0.1802
  573loPI   C4A 9162   7.014   0.104   8.468 -0.0353 -0.0410 -0.0996
  573loPI   C5A 9163   6.911   0.106   8.025 -0.3647  0.1181  0.0784
  573loPI   C6A 9164   6.925  -0.067   7.634 -0.2101 -0.3418  0.0613
  573loPI   C1B 9165   6.596   0.361   9.465 -0.3842  0.3825  0.0606
  573loPI   C2B 9166   6.409   0.528   9.053  0.0084  0.0578  0.3637
  573loPI   C3B 9167   6.516   0.296   8.702  0.0237  0.0260 -0.3748
  573loPI   C4B 9168   6.458   0.263   8.289 -0.0289  0.0263 -0.2694
  574loPI    C1 9169  10.965  11.862  11.063  0.0655  0.0727 -0.1351
  574loPI    C2 9170  10.920  11.584  11.347 -0.1525 -0.1385 -0.3708
  574loPI    C3 9171  10.649  11.876  11.309 -0.0549 -0.0353 -0.2814
  574loPI   PO4 9172  10.953  11.684  10.838 -0.0471  0.1329 -0.0687
  574loPI   GL1 9173  10.932  11.492  10.455 -0.3572  0.3783  0.4948
  574loPI   GL2 9174  10.763  11.495  10.284  0.2794 -0.1530 -0.3660
  574loPI   C1A 9175  11.148  11.466  10.019  0.2307  0.2250 -0.1649
  574loPI   C2A 9176  11.081  11.502   9.537  0.2451 -0.0377 -0.2670
  574loPI   C3A 9177  11.086  11.431   9.208 -0.0956  0.0396 -0.1052
  574loPI   C4A 9178  11.146  11.427   8.818  0.2199  0.0279  0.2172
  574loPI   C5A 9179  11.115  11.544   8.356  0.0856  0.1083 -0.1112
  574loPI   C6A 9180  10.804  11.698   8.072 -0.0889 -0.1891 -0.0282
  574loPI   C1B 9181  10.688  11.663   9.897 -0.0127 -0.0972 -0.0072
  574loPI   C2B 9182  10.655  11.725   9.403 -0.1515 -0.0790  0.1206
  574loPI   C3B 9183  10.716  11.731   8.971  0.0967 -0.0608 -0.4203
  574loPI   C4B 9184  10.629  11.732   8.616  0.2889  0.2363 -0.2836
  575loPI    C1 9185  10.058   9.243  10.671 -0.1848 -0.1351 -0.0887
  575loPI    C2 9186   9.975   9.225  10.280 -0.0005 -0.0370 -0.1335
  575loPI    C3 9187  10.165   8.922  10.458 -0.1536 -0.1156 -0.1026
  575loPI   PO4 9188  10.227   9.505  10.650  0.0910  0.0374 -0.3012
  575loPI   GL1 9189  10.173   9.674  10.345 -0.0033 -0.0137 -0.0729
  575loPI   GL2 9190   9.816   9.760  10.246  0.0152 -0.0510 -0.0086
  575loPI   C1A 9191  10.250   9.834  10.005 -0.2480 -0.0041 -0.0667
  575loPI   C2A 9192  10.315   9.839   9.540  0.0005 -0.2865  0.1956
  575loPI   C3A 9193  10.232   9.838   9.159 -0.1864 -0.0251  0.0460
  575loPI   C4A 9194  10.243   9.911   8.752  0.3093 -0.0901 -0.0480
  575loPI   C5A 9195  10.157   9.818   8.312 -0.0657  0.0149  0.4253
  575loPI   C6A 9196  10.241   9.583   7.973  0.2519 -0.1541 -0.0339
  575loPI   C1B 9197   9.871  10.082   9.797 -0.1173  0.0745 -0.1341
  575loPI   C2B 9198   9.800  10.017   9.384 -0.3620 -0.0841 -0.0401
  575loPI   C3B 9199   9.787  10.126   8.960 -0.0375 -0.0068  0.0004
  575loPI   C4B 9200   9.761  10.069   8.448 -0.0233 -0.2585  0.0513
  576loPI    C1 9201  15.104   1.943  11.101 -0.0122  0.0797 -0.0556
  576loPI    C2 9202  15.208   1.719  11.416 -0.1455  0.0256 -0.0491
  576loPI    C3 9203  15.405   2.058  11.337  0.0868 -0.1152 -0.0844
  576loPI   PO4 9204  15.146   1.863  10.915  0.4802  0.0409  0.1064
  576loPI   GL1 9205  15.066   1.834  10.571 -0.1261  0.0556 -0.3001
  576loPI   GL2 9206  15.418   1.700  10.491 -0.2379  0.1129  0.2210
  576loPI   C1A 9207  15.078   1.923  10.143  0.2167 -0.0191  0.1519
  576loPI   C2A 9208  15.215   1.849   9.673  0.3764 -0.2570  0.0538
  576loPI   C3A 9209  15.191   1.775   9.180 -0.0148  0.0950  0.1643
  576loPI   C4A 9210  15.359   1.693   8.750 -0.1943 -0.1054 -0.4454
  576loPI   C5A 9211  15.343   1.634   8.306 -0.0084  0.1104  0.0588
  576loPI   C6A 9212  15.218   1.642   7.843  0.0447  0.1909 -0.2052
  576loPI   C1B 9213  15.598   1.561  10.037 -0.0851 -0.0868 -0.1565
  576loPI   C2B 9214  15.652   1.520   9.495 -0.0715  0.0041  0.4376
  576loPI   C3B 9215  15.741   1.426   9.042  0.0906  0.2174 -0.1065
  576loPI   C4B 9216  15.850   1.545   8.614 -0.3084  0.4241 -0.3973
  577loPI    C1 9217  12.773   1.893  10.763  0.1231  0.2674  0.0682
  577loPI    C2 9218  12.602   1.588  10.958  0.1537  0.0467 -0.2423
  577loPI    C3 9219  12.686   1.928  11.151 -0.0398 -0.0776  0.0666
  577loPI   PO4 9220  12.777   1.856  10.585  0.0884 -0.0697  0.1118
  577loPI   GL1 9221  12.742   1.919  10.117  0.1480  0.1259 -0.2877
  577loPI   GL2 9222  12.738   2.103   9.830  0.1188  0.0861  0.0174
  577loPI   C1A 9223  12.856   1.566   9.738  0.1568  0.1404  0.1743
  577loPI   C2A 9224  12.965   1.499   9.318  0.1960 -0.1948  0.2817
  577loPI   C3A 9225  12.956   1.511   8.912  0.1279 -0.1948  0.0076
  577loPI   C4A 9226  12.945   1.438   8.457  0.2381 -0.2274 -0.1659
  577loPI   C5A 9227  13.045   1.287   8.095  0.0915  0.4760  0.0541
  577loPI   C6A 9228  12.977   1.161   7.655  0.2817 -0.0683 -0.0609
  577loPI   C1B 9229  12.900   1.957   9.459  0.0306  0.0321 -0.0406
  577loPI   C2B 9230  12.953   1.957   9.039 -0.3389  0.1519 -0.1621
  577loPI   C3B 9231  12.971   2.003   8.588  0.1126  0.1377 -0.0980
  577loPI   C4B 9232  12.970   2.003   8.117  0.0864 -0.0875  0.0902
  578loPI    C1 9233  11.486   9.571  10.922 -0.0507  0.1180  0.1196
  578loPI    C2 9234  11.369   9.438  11.281 -0.2190  0.2385  0.1102
  578loPI    C3 9235  11.575   9.780  11.252  0.2794 -0.0496  0.1414
  578loPI   PO4 9236  11.220   9.469  10.729 -0.0564  0.2018 -0.0761
  578loPI   GL1 9237  11.111   9.721  10.274  0.2320 -0.3406 -0.1337
  578loPI   GL2 9238  10.830   9.590  10.293  0.1112 -0.0313 -0.1648
  578loPI   C1A 9239  11.180   9.874   9.830 -0.0070  0.2458 -0.1080
  578loPI   C2A 9240  11.360   9.927   9.511  0.2590  0.2111 -0.1781
  578loPI   C3A 9241  11.108   9.909   9.194  0.1211  0.4866 -0.1655
  578loPI   C4A 9242  11.050  10.033   8.786  0.0174 -0.4099  0.3414
  578loPI   C5A 9243  11.065   9.780   8.435 -0.1251 -0.1893 -0.1973
  578loPI   C6A 9244  11.145   9.616   8.048  0.1531 -0.1282  0.1799
  578loPI   C1B 9245  10.687   9.602   9.825  0.2535 -0.0323  0.0382
  578loPI   C2B 9246  10.678   9.617   9.297  0.3301 -0.1845 -0.2830
  578loPI   C3B 9247  10.635   9.661   8.850 -0.0002 -0.0016 -0.0412
  578loPI   C4B 9248  10.614   9.809   8.424 -0.0151 -0.1554 -0.0635
  579loPI    C1 9249   0.026   5.507  11.130  0.1393  0.0459 -0.2678
  579loPI    C2 9250   0.374   5.315  11.085 -0.0546 -0.3920  0.0402
  579loPI    C3 9251   0.289   5.497  11.431 -0.0176 -0.0408 -0.1319
  579loPI   PO4 9252  -0.068   5.675  10.879 -0.0014  0.2727 -0.1600
  579loPI   GL1 9253  -0.275   5.575  10.446  0.0056 -0.1014  0.2458
  579loPI   GL2 9254   0.034   5.856  10.322 -0.1397 -0.1523 -0.2899
  579loPI   C1A 9255  -0.433   5.482  10.029 -0.2016 -0.2760 -0.1864
  579loPI   C2A 9256  -0.323   5.370   9.591 -0.1947  0.2137 -0.1583
  579loPI   C3A 9257  -0.371   5.466   9.043  0.0916 -0.0721 -0.3820
  579loPI   C4A 9258  -0.450   5.395   8.547  0.0050 -0.1639 -0.0187
  579loPI   C5A 9259  -0.310   5.218   8.099 -0.0191  0.2254  0.0147
  579loPI   C6A 9260  -0.597   5.146   7.744 -0.0354  0.1210 -0.0639
  579loPI   C1B 9261   0.195   5.703   9.968 -0.0030 -0.0211 -0.0351
  579loPI   C2B 9262   0.054   5.656   9.584  0.2718 -0.1311  0.0905
  579loPI   C3B 9263   0.107   5.674   9.166 -0.0453 -0.1715 -0.1221
  579loPI   C4B 9264   0.016   5.599   8.689  0.1297  0.0408 -0.2441
  580loPI    C1 9265   2.511   9.873  10.810 -0.0458 -0.1709  0.0289
  580loPI    C2 9266   2.791   9.969  11.079  0.0547 -0.0733 -0.1086
  580loPI    C3 9267   2.434   9.833  11.200  0.0778  0.0261  0.0748
  580loPI   PO4 9268   2.703   9.895  10.621 -0.4711  0.1491  0.4463
  580loPI   GL1 9269   2.628   9.973  10.147  0.0243  0.1733  0.0464
  580loPI   GL2 9270   2.513   9.655  10.247  0.0977  0.2943  0.1453
  580loPI   C1A 9271   2.557  10.110   9.702 -0.0695 -0.1331  0.1866
  580loPI   C2A 9272   2.391  10.201   9.297 -0.1286  0.2082  0.3980
  580loPI   C3A 9273   2.259  10.195   8.939  0.0966 -0.0476  0.3180
  580loPI   C4A 9274   2.350  10.112   8.450  0.1205  0.0249 -0.3108
  580loPI   C5A 9275   2.146  10.084   7.987 -0.1343  0.0311  0.2640
  580loPI   C6A 9276   1.846  10.164   7.577  0.1615 -0.2217 -0.0957
  580loPI   C1B 9277   2.584   9.547   9.747 -0.4162 -0.0725 -0.1379
  580loPI   C2B 9278   2.409   9.592   9.275  0.2086  0.0229 -0.0722
  580loPI   C3B 9279   2.232   9.602   8.925  0.0113 -0.1745  0.0090
  580loPI   C4B 9280   2.311   9.564   8.584  0.1495 -0.0407 -0.0442
  581loPI    C1 9281   9.393   2.891  10.216 -0.0625 -0.1583 -0.1458
  581loPI    C2 9282   9.563   2.558  10.359  0.0757 -0.0029  0.0583
  581loPI    C3 9283   9.227   2.698  10.525  0.0312 -0.0257 -0.0117
  581loPI   PO4 9284   9.334   2.869   9.845 -0.0273  0.2627 -0.1027
  581loPI   GL1 9285   9.229   2.815   9.477 -0.2178  0.0297 -0.0302
  581loPI   GL2 9286   9.420   2.598   9.347 -0.0570 -0.3543  0.1387
  581loPI   C1A 9287   9.364   2.998   9.057  0.3284  0.0091  0.0674
  581loPI   C2A 9288   9.460   2.805   8.624  0.2584 -0.1882  0.0578
  581loPI   C3A 9289   9.818   2.869   8.303 -0.1129 -0.2447  0.0957
  581loPI   C4A 9290   9.799   2.958   7.896  0.0686 -0.1181 -0.1425
  581loPI   C5A 9291   9.707   2.692   7.493 -0.1322 -0.2397 -0.2645
  581loPI   C6A 9292   9.856   2.536   7.113 -0.2822 -0.0284 -0.2705
  581loPI   C1B 9293   9.619   2.339   8.985 -0.2479 -0.1657  0.0870
  581loPI   C2B 9294   9.865   2.481   8.679 -0.2940  0.1443  0.0861
  581loPI   C3B 9295   9.878   2.365   8.208 -0.0017  0.1233  0.0523
  581loPI   C4B 9296   9.758   2.221   7.796 -0.3307 -0.2524  0.0323
  582loPI    C1 9297   7.982   6.926  10.085  0.5121 -0.0294  0.0171
  582loPI    C2 9298   7.913   6.807  10.460 -0.0989 -0.2110 -0.1425
  582loPI    C3 9299   8.283   6.791  10.311  0.1556 -0.1210  0.4513
  582loPI   PO4 9300   7.870   7.131  10.019 -0.1326 -0.2261  0.0689
  582loPI   GL1 9301   7.900   7.387   9.821 -0.1650  0.2410 -0.3615
  582loPI   GL2 9302   8.133   7.605   9.848  0.0761 -0.1904 -0.0529
  582loPI   C1A 9303   7.987   7.403   9.379 -0.1002 -0.2184 -0.1315
  582loPI   C2A 9304   7.991   7.435   8.998 -0.2520 -0.5009  0.0857
  582loPI   C3A 9305   7.861   7.500   8.557  0.0177 -0.1851 -0.1622
  582loPI   C4A 9306   7.602   7.292   8.184 -0.0508  0.1479  0.0279
  582loPI   C5A 9307   7.610   6.974   7.971  0.2279  0.0857  0.3869
  582loPI   C6A 9308   7.387   6.736   7.762 -0.1694  0.0232  0.0108
  582loPI   C1B 9309   8.429   7.646   9.452 -0.1670 -0.1289  0.0467
  582loPI   C2B 9310   8.333   7.740   9.163 -0.4460 -0.0690  0.0635
  582loPI   C3B 9311   8.340   7.641   8.641 -0.4200  0.1508 -0.2478
  582loPI   C4B 9312   8.348   7.620   8.115  0.1775  0.0917 -0.1368
  583loPI    C1 9313   7.000   1.692  10.298  0.2285 -0.3429  0.0447
  583loPI    C2 9314   7.207   2.026  10.373 -0.0666 -0.1826  0.1614
  583loPI    C3 9315   7.090   1.791  10.675 -0.3002 -0.1208  0.1209
  583loPI   PO4 9316   7.102   1.510  10.153 -0.1448  0.0644  0.3918
  583loPI   GL1 9317   7.210   1.454   9.747  0.0398  0.3510  0.0709
  583loPI   GL2 9318   6.990   1.274   9.630  0.4289 -0.0389  0.0535
  583loPI   C1A 9319   7.398   1.626   9.413  0.1939  0.0516 -0.1037
  583loPI   C2A 9320   7.453   1.509   8.999 -0.0356  0.1664  0.1692
  583loPI   C3A 9321   7.448   1.331   8.611  0.2638  0.0577  0.2588
  583loPI   C4A 9322   7.457   1.419   8.168 -0.1731 -0.0097 -0.1155
  583loPI   C5A 9323   7.350   1.619   7.810  0.2957 -0.0999 -0.0911
  583loPI   C6A 9324   7.189   1.934   7.565 -0.0876 -0.0729 -0.1927
  583loPI   C1B 9325   6.915   1.343   9.289 -0.0403  0.1162 -0.2857
  583loPI   C2B 9326   6.975   1.213   8.821  0.1006  0.0123 -0.0733
  583loPI   C3B 9327   6.994   1.124   8.424  0.1803 -0.1621 -0.0795
  583loPI   C4B 9328   6.868   1.388   8.160  0.1740  0.0489 -0.3089
  584loPI    C1 9329  13.408   8.121  10.816  0.0409  0.1334 -0.1070
  584loPI    C2 9330  13.520   7.810  10.592 -0.2599  0.0470 -0.1422
  584loPI    C3 9331  13.768   7.956  10.870 -0.1851 -0.3403  0.0008
  584loPI   PO4 9332  13.211   8.244  10.592 -0.1341 -0.1154  0.1040
  584loPI   GL1 9333  13.266   8.210  10.234  0.0294 -0.1429 -0.0309
  584loPI   GL2 9334  13.501   8.057  10.179 -0.3025  0.1317  0.1696
  584loPI   C1A 9335  13.392   8.358   9.850  0.0282 -0.0079  0.1183
  584loPI   C2A 9336  13.451   8.535   9.477 -0.2932  0.2420 -0.3349
  584loPI   C3A 9337  13.467   8.581   9.069 -0.2280 -0.3065 -0.0108
  584loPI   C4A 9338  13.425   8.510   8.684 -0.1274 -0.1878  0.0763
  584loPI   C5A 9339  13.427   8.643   8.257  0.1575  0.1069 -0.0990
  584loPI   C6A 9340  13.211   8.510   7.854  0.4709 -0.2048  0.2047
  584loPI   C1B 9341  13.424   7.877   9.750  0.1855 -0.2560 -0.0071
  584loPI   C2B 9342  13.423   8.029   9.337 -0.2994  0.0471  0.0519
  584loPI   C3B 9343  13.467   8.091   8.978 -0.1219  0.0166 -0.0231
  584loPI   C4B 9344  13.380   7.998   8.531  0.0150 -0.1427  0.1741
  585loPI    C1 9345  13.703   4.643  10.703 -0.1346 -0.2363  0.0072
  585loPI    C2 9346  13.890   4.944  10.888 -0.2723 -0.0308 -0.1828
  585loPI    C3 9347  13.859   4.588  11.067 -0.1128  0.0682  0.0464
  585loPI   PO4 9348  13.765   4.615  10.471  0.0304  0.4941 -0.3224
  585loPI   GL1 9349  13.694   4.818  10.094 -0.1018  0.1762  0.0251
  585loPI   GL2 9350  13.709   4.615   9.926  0.0386  0.3683  0.2419
  585loPI   C1A 9351  13.460   4.929   9.618 -0.2174  0.3855 -0.1619
  585loPI   C2A 9352  13.570   5.020   9.172 -0.1322  0.2424  0.3049
  585loPI   C3A 9353  13.896   5.068   8.818 -0.0846  0.3152  0.1810
  585loPI   C4A 9354  14.023   5.101   8.286  0.4803 -0.0993  0.0994
  585loPI   C5A 9355  13.962   4.942   7.772 -0.0383 -0.0157  0.1927
  585loPI   C6A 9356  13.884   4.523   7.658  0.0507  0.0002  0.0485
  585loPI   C1B 9357  13.748   4.586   9.455  0.1865 -0.1232 -0.0736
  585loPI   C2B 9358  13.887   4.569   8.976  0.1450 -0.1808  0.0927
  585loPI   C3B 9359  13.832   4.567   8.593  0.0571 -0.0235  0.1745
  585loPI   C4B 9360  13.996   4.625   8.162  0.1590  0.1210  0.2970
  586loPI    C1 9361   2.156   9.558  10.588  0.1404 -0.0837 -0.2183
  586loPI    C2 9362   2.048   9.507  10.970  0.1544  0.0676 -0.1933
  586loPI    C3 9363   2.002   9.209  10.707 -0.0837  0.0442 -0.1270
  586loPI   PO4 9364   2.040   9.708  10.482  0.1241  0.0175 -0.1663
  586loPI   GL1 9365   1.997   9.824  10.106 -0.0187 -0.0781  0.0366
  586loPI   GL2 9366   1.803  10.090   9.984 -0.0922  0.1376  0.0224
  586loPI   C1A 9367   2.098   9.865   9.637  0.1520  0.0748  0.3307
  586loPI   C2A 9368   1.942   9.912   9.260  0.1138 -0.2927  0.0538
  586loPI   C3A 9369   1.823   9.886   8.824 -0.1796  0.1361  0.1335
  586loPI   C4A 9370   1.920   9.799   8.394 -0.0585 -0.1267 -0.0830
  586loPI   C5A 9371   2.138   9.561   8.079 -0.0447  0.3137  0.1791
  586loPI   C6A 9372   2.514   9.724   7.978  0.0362  0.1289  0.3147
  586loPI   C1B 9373   1.491  10.100   9.558 -0.4904 -0.1156 -0.2081
  586loPI   C2B 9374   1.459  10.159   9.096 -0.1027 -0.0754 -0.2884
  586loPI   C3B 9375   1.438  10.125   8.660 -0.0003 -0.0166 -0.1215
  586loPI   C4B 9376   1.485  10.045   8.149 -0.1280 -0.2510 -0.1890
  587loPI    C1 9377  15.612   8.389  10.938 -0.0838  0.1908 -0.0517
  587loPI    C2 9378  15.243   8.360  11.088 -0.0256  0.1160  0.0782
  587loPI    C3 9379  15.556   8.404  11.333  0.0913 -0.2087 -0.0068
  587loPI   PO4 9380  15.587   8.333  10.673 -0.2027  0.3090 -0.3898
  587loPI   GL1 9381  15.569   8.173  10.270 -0.3013 -0.3181 -0.0057
  587loPI   GL2 9382  15.283   8.264  10.154 -0.0782  0.0372  0.1289
  587loPI   C1A 9383  15.709   8.352   9.863  0.2698 -0.2458  0.0548
  587loPI   C2A 9384  15.722   8.272   9.454  0.2724 -0.1051 -0.0006
  587loPI   C3A 9385  15.668   8.340   8.885  0.1845 -0.2722 -0.0274
  587loPI   C4A 9386  15.650   8.269   8.445 -0.1465  0.0572  0.0984
  587loPI   C5A 9387  15.741   8.414   8.012  0.0924 -0.0592 -0.2653
  587loPI   C6A 9388  15.639   8.240   7.654 -0.1070 -0.2937 -0.1363
  587loPI   C1B 9389  15.297   8.562   9.718  0.1483 -0.2520  0.0343
  587loPI   C2B 9390  15.261   8.596   9.182 -0.1263  0.1034  0.1964
  587loPI   C3B 9391  15.186   8.597   8.725 -0.0708  0.0032  0.0641
  587loPI   C4B 9392  15.092   8.737   8.385 -0.0282  0.1579 -0.2252
  588loPI    C1 9393  18.142   3.454  11.050  0.1885  0.1280  0.0136
  588loPI    C2 9394  18.043   3.826  11.158 -0.1576  0.0286  0.0498
  588loPI    C3 9395  18.040   3.532  11.429  0.0398 -0.0168  0.0041
  588loPI   PO4 9396  18.148   3.462  10.855  0.2269  0.1100  0.2621
  588loPI   GL1 9397  17.866   3.449  10.515 -0.1332 -0.1910 -0.2262
  588loPI   GL2 9398  18.135   3.208  10.436 -0.3246  0.1256  0.3836
  588loPI   C1A 9399  17.831   3.492  10.151  0.1806 -0.1072  0.3584
  588loPI   C2A 9400  17.956   3.441   9.788  0.1221  0.1304 -0.2182
  588loPI   C3A 9401  17.851   3.369   9.327 -0.1366  0.0206 -0.1857
  588loPI   C4A 9402  17.907   3.346   8.955  0.3121 -0.2774  0.3610
  588loPI   C5A 9403  18.034   3.321   8.496 -0.1188 -0.2420  0.2096
  588loPI   C6A 9404  17.877   3.012   8.118 -0.2807  0.3063 -0.0709
  588loPI   C1B 9405  18.298   3.173  10.080  0.0673 -0.0207  0.1179
  588loPI   C2B 9406  18.308   3.079   9.658  0.0422  0.0008 -0.2915
  588loPI   C3B 9407  18.387   3.019   9.293 -0.0252  0.0101  0.1042
  588loPI   C4B 9408  18.347   3.123   8.836 -0.2172 -0.1556  0.1566
  589loPI    C1 9409   9.766  15.294  10.792  0.0483 -0.1004  0.0873
  589loPI    C2 9410   9.568  14.973  10.925 -0.0552 -0.0749 -0.0041
  589loPI    C3 9411   9.460  15.339  11.045  0.0318 -0.0709  0.0621
  589loPI   PO4 9412   9.711  15.233  10.523 -0.2907  0.0652 -0.1650
  589loPI   GL1 9413   9.410  15.288  10.181 -0.2528 -0.2248  0.2813
  589loPI   GL2 9414   9.064  15.162   9.967  0.0596 -0.1445 -0.0486
  589loPI   C1A 9415   9.659  15.385   9.837  0.3943 -0.1404  0.0780
  589loPI   C2A 9416   9.692  15.308   9.408 -0.0090 -0.2110  0.2720
  589loPI   C3A 9417   9.713  15.349   9.039  0.3571  0.2240  0.0258
  589loPI   C4A 9418   9.836  15.290   8.573  0.1247 -0.1527 -0.0852
  589loPI   C5A 9419   9.791  15.227   8.084  0.1883 -0.1331  0.2102
  589loPI   C6A 9420   9.971  15.186   7.643 -0.0929  0.1507 -0.0707
  589loPI   C1B 9421   9.198  15.087   9.523 -0.0095 -0.0595  0.1325
  589loPI   C2B 9422   9.289  15.136   9.092  0.2604  0.0670  0.0653
  589loPI   C3B 9423   9.347  15.044   8.728 -0.0521 -0.1135  0.2444
  589loPI   C4B 9424   9.296  15.048   8.283 -0.0462  0.0432 -0.2699
  590loPI    C1 9425   7.246  11.812  10.638 -0.1531 -0.2397 -0.2883
  590loPI    C2 9426   6.923  11.581  10.684 -0.1238 -0.2281 -0.0096
  590loPI    C3 9427   7.041  11.821  10.981  0.0188 -0.0739 -0.1884
  590loPI   PO4 9428   7.353  11.659  10.490 -0.0661  0.0033  0.2249
  590loPI   GL1 9429   7.150  11.586  10.093 -0.0819  0.1244  0.0118
  590loPI   GL2 9430   6.850  11.497  10.225 -0.2055 -0.3078  0.0064
  590loPI   C1A 9431   7.126  11.602   9.634  0.4872  0.3137  0.1310
  590loPI   C2A 9432   7.087  11.710   9.182 -0.2442 -0.1981 -0.2805
  590loPI   C3A 9433   6.920  11.675   8.796  0.0108  0.2076 -0.0839
  590loPI   C4A 9434   6.953  11.486   8.409  0.0459 -0.0625  0.0350
  590loPI   C5A 9435   7.157  11.250   8.027  0.1548 -0.1696 -0.0588
  590loPI   C6A 9436   6.897  11.048   7.658  0.0025  0.0187 -0.2082
  590loPI   C1B 9437   6.741  11.320   9.895  0.1538 -0.0964 -0.3626
  590loPI   C2B 9438   6.753  11.338   9.471 -0.2613  0.0487  0.0445
  590loPI   C3B 9439   6.585  11.337   9.013 -0.1783 -0.0244  0.1105
  590loPI   C4B 9440   6.501  11.196   8.641 -0.0545  0.1009  0.0370
  591loPI    C1 9441  10.812   2.597   9.794  0.1311  0.1976 -0.0338
  591loPI    C2 9442  10.881   2.789  10.138 -0.1153  0.2011  0.0153
  591loPI    C3 9443  10.522   2.627  10.068  0.0340 -0.0857 -0.1023
  591loPI   PO4 9444  11.109   2.608   9.679 -0.2737  0.1997  0.1342
  591loPI   GL1 9445  11.620   2.614   9.653  0.0141 -0.4644  0.1463
  591loPI   GL2 9446  11.636   2.334   9.498 -0.2000  0.1110 -0.1170
  591loPI   C1A 9447  11.787   2.806   9.252 -0.3054 -0.3300 -0.2575
  591loPI   C2A 9448  11.691   2.861   8.816  0.0127  0.0926  0.1056
  591loPI   C3A 9449  11.582   2.803   8.473  0.1252  0.1664  0.2526
  591loPI   C4A 9450  11.413   2.922   8.123  0.1529  0.1660  0.0240
  591loPI   C5A 9451  11.162   3.190   8.040  0.0704  0.3033  0.0779
  591loPI   C6A 9452  10.849   3.348   7.769  0.2002 -0.2792  0.2215
  591loPI   C1B 9453  11.628   2.213   9.009  0.4482 -0.0747 -0.0376
  591loPI   C2B 9454  11.682   2.285   8.588 -0.2674 -0.0646 -0.2990
  591loPI   C3B 9455  11.571   2.181   8.164 -0.1518  0.1219  0.0928
  591loPI   C4B 9456  11.688   2.237   7.721 -0.0800  0.0560  0.2849
  592loPI    C1 9457   4.921   9.876  10.474  0.1487 -0.1622 -0.2766
  592loPI    C2 9458   5.146   9.778  10.790 -0.2091 -0.1479 -0.0104
  592loPI    C3 9459   5.136  10.156  10.661 -0.1071 -0.1426 -0.0036
  592loPI   PO4 9460   4.998   9.693  10.325 -0.1567  0.1971 -0.1301
  592loPI   GL1 9461   4.804   9.599   9.886  0.2366  0.2146  0.2687
  592loPI   GL2 9462   4.744   9.331   9.911 -0.0344 -0.0999  0.0755
  592loPI   C1A 9463   4.896   9.768   9.589 -0.2435  0.0071 -0.1833
  592loPI   C2A 9464   4.747   9.916   9.188  0.0104  0.3836  0.0065
  592loPI   C3A 9465   4.619   9.859   8.830  0.1302 -0.1344  0.1601
  592loPI   C4A 9466   4.643   9.932   8.318 -0.2649 -0.1968  0.1875
  592loPI   C5A 9467   4.331  10.037   8.075  0.4435 -0.2439 -0.2508
  592loPI   C6A 9468   4.330  10.155   7.589  0.0458  0.2268 -0.3430
  592loPI   C1B 9469   4.713   9.352   9.378  0.0837  0.3252 -0.0318
  592loPI   C2B 9470   4.643   9.344   8.886  0.0458 -0.0644  0.1495
  592loPI   C3B 9471   4.444   9.412   8.417  0.0559  0.1681 -0.4464
  592loPI   C4B 9472   4.554   9.211   7.986  0.2940 -0.0306 -0.1737
  593loPI    C1 9473  15.820  15.115  10.762 -0.0342  0.1495  0.0711
  593loPI    C2 9474  15.536  14.839  10.699  0.2235 -0.1238  0.0849
  593loPI    C3 9475  15.723  14.856  11.052  0.0918  0.1827  0.1432
  593loPI   PO4 9476  15.839  15.186  10.583 -0.1845 -0.1667  0.1711
  593loPI   GL1 9477  15.949  15.494  10.262 -0.0045  0.0317  0.0540
  593loPI   GL2 9478  16.262  15.381  10.205 -0.1984  0.1474 -0.0172
  593loPI   C1A 9479  15.840  15.669   9.789  0.3031  0.1036 -0.1993
  593loPI   C2A 9480  15.856  15.606   9.379 -0.1145 -0.2693 -0.1924
  593loPI   C3A 9481  15.659  15.722   8.927  0.0037  0.6463 -0.1793
  593loPI   C4A 9482  15.767  15.646   8.494  0.4751 -0.0460  0.3064
  593loPI   C5A 9483  15.581  15.318   8.286 -0.1064 -0.1387  0.5468
  593loPI   C6A 9484  15.762  14.923   8.253  0.2614  0.1409  0.0957
  593loPI   C1B 9485  16.249  15.343   9.756  0.0985 -0.2952  0.2850
  593loPI   C2B 9486  16.270  15.360   9.287 -0.0638  0.2817 -0.0651
  593loPI   C3B 9487  16.002  15.387   8.933  0.1241  0.2783  0.0485
  593loPI   C4B 9488  16.103  15.227   8.421 -0.0756 -0.3286 -0.1657
  594loPI    C1 9489  16.653  15.593  11.019 -0.0933  0.1611 -0.1407
  594loPI    C2 9490  16.889  15.686  11.329  0.0881  0.1224 -0.2660
  594loPI    C3 9491  16.554  15.895  11.263  0.1425  0.2477 -0.1497
  594loPI   PO4 9492  16.729  15.313  10.958  0.0418  0.1321 -0.2151
  594loPI   GL1 9493  16.788  15.315  10.460 -0.1016 -0.2983  0.0417
  594loPI   GL2 9494  16.641  15.617  10.512  0.0541  0.0800 -0.0645
  594loPI   C1A 9495  16.711  15.096  10.002 -0.1718  0.1392  0.1240
  594loPI   C2A 9496  16.784  15.073   9.499  0.0880  0.3478 -0.0836
  594loPI   C3A 9497  16.719  15.050   8.983  0.1038 -0.0617  0.0100
  594loPI   C4A 9498  16.500  15.085   8.638 -0.1423  0.4249  0.1544
  594loPI   C5A 9499  16.398  14.889   8.275  0.1372 -0.0063 -0.4738
  594loPI   C6A 9500  16.185  14.670   7.851 -0.0100 -0.0249  0.2474
  594loPI   C1B 9501  16.717  15.663  10.094 -0.1905 -0.0637 -0.0352
  594loPI   C2B 9502  16.679  15.633   9.660  0.0139  0.3558 -0.1819
  594loPI   C3B 9503  16.722  15.651   9.339 -0.0635  0.1653  0.1400
  594loPI   C4B 9504  16.569  15.597   8.819 -0.1561 -0.1711  0.0437
  595loPI    C1 9505  15.332   8.810  10.705 -0.3602  0.1163  0.1118
  595loPI    C2 9506  15.708   8.826  10.838 -0.2387  0.1873 -0.2308
  595loPI    C3 9507  15.404   8.843  11.097 -0.0073 -0.0787  0.0672
  595loPI   PO4 9508  15.305   9.006  10.524  0.1328  0.2121 -0.0888
  595loPI   GL1 9509  15.406   9.154  10.110  0.3357 -0.0489  0.1063
  595loPI   GL2 9510  15.129   9.080   9.866  0.0519 -0.1532 -0.0025
  595loPI   C1A 9511  15.631   8.908   9.826 -0.2024 -0.0112 -0.1601
  595loPI   C2A 9512  15.709   8.771   9.425 -0.2009 -0.1147  0.2741
  595loPI   C3A 9513  15.732   8.864   9.018  0.3071  0.1184 -0.0964
  595loPI   C4A 9514  15.683   8.789   8.687  0.1150  0.0414  0.0765
  595loPI   C5A 9515  15.535   8.839   8.244  0.0947  0.1008  0.1668
  595loPI   C6A 9516  15.296   8.782   7.873  0.1564  0.3843 -0.2072
  595loPI   C1B 9517  15.271   9.049   9.435  0.1962  0.1002  0.1797
  595loPI   C2B 9518  15.202   9.191   8.959  0.0054  0.1968 -0.2012
  595loPI   C3B 9519  15.208   9.170   8.506 -0.2096  0.0340  0.1685
  595loPI   C4B 9520  14.995   9.228   8.038 -0.1246 -0.1019 -0.0877
  596loPI    C1 9521   2.801  11.654  10.778 -0.0422 -0.0472 -0.2402
  596loPI    C2 9522   2.929  11.291  10.887  0.1214  0.0591 -0.0725
  596loPI    C3 9523   2.980  11.604  11.132 -0.1655  0.1663 -0.1453
  596loPI   PO4 9524   2.555  11.612  10.730  0.2093 -0.1980  0.0171
  596loPI   GL1 9525   2.304  11.674  10.337  0.1339 -0.0756 -0.1443
  596loPI   GL2 9526   1.974  11.558  10.150  0.0556  0.1325  0.2400
  596loPI   C1A 9527   2.339  11.257   9.973  0.1513 -0.1717 -0.4403
  596loPI   C2A 9528   2.385  11.201   9.484  0.0633  0.1028  0.3555
  596loPI   C3A 9529   2.372  11.169   9.055 -0.2422 -0.1867 -0.1433
  596loPI   C4A 9530   2.206  11.108   8.589 -0.4069  0.0133  0.3128
  596loPI   C5A 9531   2.255  11.182   8.145  0.1613 -0.2745  0.0430
  596loPI   C6A 9532   2.518  11.429   7.804  0.0960 -0.0569  0.0275
  596loPI   C1B 9533   1.883  11.452   9.628 -0.2875 -0.1992  0.0603
  596loPI   C2B 9534   1.838  11.509   9.195 -0.1569 -0.2404  0.1262
  596loPI   C3B 9535   1.873  11.381   8.775 -0.0116  0.1361 -0.1626
  596loPI   C4B 9536   1.764  11.371   8.321  0.2662 -0.1344  0.0863
  597loPI    C1 9537  10.600   8.992  10.980  0.1184  0.0746 -0.0874
  597loPI    C2 9538  10.219   8.965  11.098  0.1013 -0.0494 -0.1705
  597loPI    C3 9539  10.400   9.321  11.091  0.0124 -0.0012 -0.0521
  597loPI   PO4 9540  10.611   8.942  10.709 -0.2244 -0.1525 -0.2128
  597loPI   GL1 9541  10.689   9.007  10.307  0.1639  0.1426 -0.0949
  597loPI   GL2 9542  10.478   9.278  10.258 -0.0197  0.1663  0.1861
  597loPI   C1A 9543  10.687   9.040   9.866  0.2787  0.1174  0.1595
  597loPI   C2A 9544  10.627   9.101   9.453  0.2108 -0.0314 -0.2295
  597loPI   C3A 9545  10.610   9.071   9.051  0.2407 -0.3273 -0.2379
  597loPI   C4A 9546  10.773   9.221   8.655 -0.0357 -0.1974 -0.2495
  597loPI   C5A 9547  11.153   9.170   8.463  0.1845 -0.1156 -0.0290
  597loPI   C6A 9548  11.522   9.325   8.180  0.0655 -0.0504  0.1382
  597loPI   C1B 9549  10.228   9.270   9.848 -0.1062  0.2917  0.1684
  597loPI   C2B 9550  10.180   9.338   9.422  0.0189 -0.0341  0.4784
  597loPI   C3B 9551  10.169   9.378   8.922  0.0323 -0.0392  0.1657
  597loPI   C4B 9552  10.260   9.394   8.470 -0.2490 -0.1115  0.0467
  598loPI    C1 9553   7.360  18.097  10.839  0.0437 -0.1691  0.1785
  598loPI    C2 9554   7.541  18.341  11.099 -0.3759  0.3220  0.0260
  598loPI    C3 9555   7.526  17.948  11.171  0.2508  0.3382  0.3126
  598loPI   PO4 9556   7.469  18.182  10.557  0.3028  0.1920 -0.0705
  598loPI   GL1 9557   7.391  18.144  10.164 -0.2386  0.2136 -0.0882
  598loPI   GL2 9558   7.105  18.048  10.008 -0.0933  0.0881 -0.3159
  598loPI   C1A 9559   7.519  17.836   9.792  0.2362 -0.1874 -0.2517
  598loPI   C2A 9560   7.533  17.819   9.420  0.0621  0.3169 -0.1510
  598loPI   C3A 9561   7.456  17.765   8.966  0.1634 -0.0473  0.3350
  598loPI   C4A 9562   7.482  17.694   8.536  0.3771 -0.2328 -0.0047
  598loPI   C5A 9563   7.611  17.622   8.117  0.1067 -0.1178 -0.1315
  598loPI   C6A 9564   7.742  17.678   7.697 -0.1730 -0.0653 -0.0136
  598loPI   C1B 9565   7.101  18.128   9.585  0.4355  0.1768  0.2892
  598loPI   C2B 9566   7.042  18.004   9.145 -0.0207 -0.3293  0.4097
  598loPI   C3B 9567   7.021  17.940   8.730 -0.1460  0.1771 -0.1737
  598loPI   C4B 9568   6.921  17.900   8.302  0.3299  0.1056 -0.0792
  599loPI    C1 9569   8.301   6.206  10.212  0.2057 -0.0451  0.0647
  599loPI    C2 9570   8.386   6.030  10.561  0.0426 -0.2205  0.0177
  599loPI    C3 9571   8.164   5.838  10.289 -0.0375  0.0122 -0.0837
  599loPI   PO4 9572   8.588   6.334  10.181  0.1225 -0.3050 -0.1864
  599loPI   GL1 9573   8.816   6.434   9.760 -0.1323 -0.2360 -0.0530
  599loPI   GL2 9574   8.616   6.634   9.450  0.1160  0.1070 -0.0316
  599loPI   C1A 9575   8.775   6.198   9.324 -0.0074  0.0477  0.1780
  599loPI   C2A 9576   8.823   6.365   8.935 -0.0584 -0.0020  0.1746
  599loPI   C3A 9577   8.660   6.292   8.517  0.0159  0.0061  0.2561
  599loPI   C4A 9578   8.831   6.429   8.336 -0.2650 -0.2648 -0.1087
  599loPI   C5A 9579   9.047   6.764   8.011 -0.1177  0.1806  0.2125
  599loPI   C6A 9580   9.042   6.900   7.682 -0.1833 -0.0635  0.0847
  599loPI   C1B 9581   8.520   6.727   9.015 -0.5056  0.0102 -0.3296
  599loPI   C2B 9582   8.301   6.693   8.680 -0.0731  0.2788  0.1113
  599loPI   C3B 9583   8.191   6.441   8.325 -0.1943  0.1720 -0.2857
  599loPI   C4B 9584   8.500   6.256   8.025  0.0978 -0.2504  0.1576
  600loPI    C1 9585   5.443   1.744  11.059  0.0392 -0.1071  0.1244
  600loPI    C2 9586   5.808   1.864  11.171  0.0569 -0.1719  0.1364
  600loPI    C3 9587   5.675   1.502  11.277  0.0769 -0.2369 -0.0578
  600loPI   PO4 9588   5.450   1.782  10.713 -0.1361  0.1712  0.3302
  600loPI   GL1 9589   5.228   1.902  10.462 -0.0434 -0.2600 -0.2322
  600loPI   GL2 9590   5.311   2.093  10.245  0.0764  0.0994 -0.1058
  600loPI   C1A 9591   4.957   1.657  10.105 -0.0987  0.2293 -0.0372
  600loPI   C2A 9592   4.887   1.597   9.733  0.1724 -0.1212 -0.1714
  600loPI   C3A 9593   4.750   1.624   9.418  0.0713 -0.0659  0.2186
  600loPI   C4A 9594   4.666   1.474   8.983 -0.0157  0.0484 -0.0701
  600loPI   C5A 9595   4.547   1.310   8.603 -0.1547  0.1629 -0.2936
  600loPI   C6A 9596   4.479   1.299   8.137  0.0962  0.1890  0.0170
  600loPI   C1B 9597   5.338   1.817   9.842 -0.2276  0.0965 -0.1380
  600loPI   C2B 9598   5.248   1.843   9.442 -0.1009 -0.1378  0.2740
  600loPI   C3B 9599   5.076   1.792   8.983  0.1377  0.5257 -0.0998
  600loPI   C4B 9600   5.133   1.707   8.539 -0.1858  0.3986  0.1034
  601loPI    C1 9601   0.422  14.640  10.828  0.0374 -0.0606 -0.0116
  601loPI    C2 9602   0.423  14.918  11.116 -0.0598 -0.0323 -0.0382
  601loPI    C3 9603   0.666  14.602  11.143  0.0666  0.0656 -0.0183
  601loPI   PO4 9604   0.392  14.746  10.590  0.1228  0.0033 -0.1780
  601loPI   GL1 9605   0.363  14.568  10.216  0.1962  0.1702 -0.1113
  601loPI   GL2 9606   0.593  14.891  10.006 -0.2209 -0.2090 -0.3118
  601loPI   C1A 9607   0.136  14.537   9.956  0.0383  0.0657  0.0142
  601loPI   C2A 9608   0.054  14.514   9.505  0.1732 -0.1706 -0.2022
  601loPI   C3A 9609   0.133  14.534   9.062  0.3812  0.0390 -0.1772
  601loPI   C4A 9610   0.154  14.597   8.620 -0.1422  0.1558  0.1215
  601loPI   C5A 9611   0.122  14.644   8.129 -0.2611  0.3157 -0.1337
  601loPI   C6A 9612  -0.084  14.641   7.775 -0.0256  0.0918  0.0360
  601loPI   C1B 9613   0.587  14.694   9.706 -0.0925  0.1953 -0.2089
  601loPI   C2B 9614   0.551  14.695   9.348  0.2214 -0.2435 -0.2754
  601loPI   C3B 9615   0.579  14.772   8.889  0.0155  0.1444 -0.1146
  601loPI   C4B 9616   0.596  14.809   8.454 -0.1118  0.1634  0.0552
  602loPI    C1 9617   2.599  10.351  10.720 -0.1576  0.2263 -0.1395
  602loPI    C2 9618   2.565  10.644  10.991 -0.0368  0.0967  0.0172
  602loPI    C3 9619   2.322  10.326  11.008  0.1136 -0.0151  0.1072
  602loPI   PO4 9620   2.736  10.375  10.424  0.0784  0.0889 -0.0626
  602loPI   GL1 9621   3.084  10.446  10.188  0.0194  0.2484  0.0405
  602loPI   GL2 9622   3.232  10.136  10.160 -0.3438  0.1251  0.1205
  602loPI   C1A 9623   2.891  10.446   9.822 -0.2655  0.3489  0.1496
  602loPI   C2A 9624   2.867  10.411   9.357  0.2077  0.2534  0.0385
  602loPI   C3A 9625   2.773  10.383   8.924  0.0087 -0.0100 -0.2080
  602loPI   C4A 9626   2.731  10.478   8.462 -0.0329  0.2059 -0.0413
  602loPI   C5A 9627   3.097  10.444   8.134  0.1807 -0.2870 -0.0545
  602loPI   C6A 9628   3.323  10.159   8.134  0.0725 -0.0121  0.1396
  602loPI   C1B 9629   3.348  10.149   9.763  0.0544 -0.0525 -0.1380
  602loPI   C2B 9630   3.370  10.121   9.389 -0.0245  0.3376  0.0304
  602loPI   C3B 9631   3.154  10.099   9.073 -0.1945 -0.1054 -0.1131
  602loPI   C4B 9632   3.167  10.264   8.604  0.0273  0.0107 -0.0105
  603loPI    C1 9633   5.449  14.806  10.678 -0.0097 -0.0816 -0.2008
  603loPI    C2 9634   5.100  14.849  10.868 -0.0409 -0.1193 -0.2493
  603loPI    C3 9635   5.440  14.828  11.077 -0.0875 -0.3014 -0.1891
  603loPI   PO4 9636   5.446  15.014  10.509 -0.2756 -0.1091  0.0808
  603loPI   GL1 9637   5.253  14.956  10.144 -0.0833  0.1345  0.1081
  603loPI   GL2 9638   4.894  14.819  10.026  0.0364 -0.2220 -0.0397
  603loPI   C1A 9639   5.345  14.814   9.736  0.2822  0.1119  0.0589
  603loPI   C2A 9640   5.235  14.772   9.405  0.0861  0.0610  0.0762
  603loPI   C3A 9641   5.191  14.840   8.989  0.1271 -0.0944  0.1454
  603loPI   C4A 9642   5.046  14.853   8.531 -0.2892  0.1672  0.2366
  603loPI   C5A 9643   4.976  14.760   8.128 -0.0282 -0.0025 -0.0375
  603loPI   C6A 9644   4.591  14.579   7.933  0.2120  0.2436  0.0429
  603loPI   C1B 9645   4.871  14.990   9.687 -0.1086 -0.0483 -0.1189
  603loPI   C2B 9646   4.778  15.044   9.226 -0.3490  0.0829 -0.2114
  603loPI   C3B 9647   4.708  15.142   8.862 -0.0995  0.0131 -0.1966
  603loPI   C4B 9648   4.559  15.055   8.437  0.0885 -0.0914  0.4377
  604loPI    C1 9649  15.507  14.225  10.778  0.1413 -0.3495  0.0836
  604loPI    C2 9650  15.420  14.447  11.100  0.2406  0.0896 -0.1838
  604loPI    C3 9651  15.153  14.184  10.959  0.2374 -0.1849  0.3139
  604loPI   PO4 9652  15.504  14.349  10.563  0.0855  0.0409  0.0621
  604loPI   GL1 9653  15.677  14.446  10.276  0.0158  0.0330 -0.0141
  604loPI   GL2 9654  15.790  14.827  10.242  0.1440  0.1105 -0.0434
  604loPI   C1A 9655  15.811  14.519   9.830 -0.1884 -0.2324  0.2769
  604loPI   C2A 9656  15.798  14.481   9.401  0.0427  0.3004 -0.1954
  604loPI   C3A 9657  15.762  14.469   8.995 -0.0486 -0.2828 -0.0335
  604loPI   C4A 9658  15.496  14.630   8.648  0.1452 -0.0585  0.0057
  604loPI   C5A 9659  15.274  14.906   8.416  0.0872 -0.3445 -0.0116
  604loPI   C6A 9660  15.094  15.381   8.228  0.0249 -0.0568 -0.1264
  604loPI   C1B 9661  15.788  15.049   9.859  0.0741  0.0799  0.0036
  604loPI   C2B 9662  15.822  15.167   9.433 -0.2266  0.2694 -0.1298
  604loPI   C3B 9663  15.663  14.934   9.073  0.1109 -0.0918  0.0467
  604loPI   C4B 9664  15.675  15.115   8.756 -0.1099 -0.0200  0.0278
  605loPI    C1 9665  11.763  17.113  10.709 -0.1877  0.0315 -0.2750
  605loPI    C2 9666  11.370  17.127  10.783 -0.2202 -0.2017 -0.3962
  605loPI    C3 9667  11.614  16.934  11.035 -0.1713  0.0094 -0.2796
  605loPI   PO4 9668  11.746  17.054  10.447  0.1324 -0.1342  0.0648
  605loPI   GL1 9669  11.792  17.194   9.992  0.0282 -0.0655 -0.1940
  605loPI   GL2 9670  12.008  17.076   9.750  0.1951 -0.0173 -0.1136
  605loPI   C1A 9671  12.029  17.617   9.725  0.0072 -0.0184 -0.2215
  605loPI   C2A 9672  12.011  17.762   9.363  0.2609  0.1855 -0.2827
  605loPI   C3A 9673  12.019  17.692   8.842 -0.2714 -0.2276  0.0581
  605loPI   C4A 9674  12.114  17.675   8.405 -0.0890  0.0889 -0.5766
  605loPI   C5A 9675  12.100  17.555   7.973  0.1492  0.2856  0.1041
  605loPI   C6A 9676  12.461  17.370   7.855 -0.0418 -0.1111 -0.1681
  605loPI   C1B 9677  12.108  17.206   9.356 -0.0521 -0.2530 -0.1070
  605loPI   C2B 9678  12.007  17.142   8.934 -0.1179  0.1266 -0.1889
  605loPI   C3B 9679  11.967  17.196   8.468  0.2549  0.0577 -0.3589
  605loPI   C4B 9680  11.988  17.091   8.082  0.3179 -0.1942  0.0551
  606loPI    C1 9681  14.123   6.854  10.244  0.1022  0.0390 -0.0583
  606loPI    C2 9682  14.280   6.802  10.608  0.0866 -0.1082 -0.0722
  606loPI    C3 9683  13.905   6.936  10.569 -0.0361 -0.4296 -0.0263
  606loPI   PO4 9684  14.232   6.626  10.151  0.2643  0.1673  0.1547
  606loPI   GL1 9685  14.370   6.485   9.745 -0.0417  0.5266 -0.1276
  606loPI   GL2 9686  14.628   6.690   9.744 -0.0766  0.4113 -0.4513
  606loPI   C1A 9687  14.328   6.506   9.397  0.1817 -0.1334  0.1277
  606loPI   C2A 9688  14.329   6.567   9.038 -0.0698  0.4116 -0.1398
  606loPI   C3A 9689  14.262   6.517   8.550 -0.0342 -0.1511  0.2113
  606loPI   C4A 9690  14.041   6.507   8.106 -0.2030  0.1890  0.1282
  606loPI   C5A 9691  13.873   6.231   7.690 -0.2214 -0.2329 -0.2741
  606loPI   C6A 9692  13.788   6.135   7.252 -0.0655  0.0978 -0.2971
  606loPI   C1B 9693  14.773   6.727   9.377  0.0452  0.0967  0.0446
  606loPI   C2B 9694  14.774   6.760   8.861  0.2895 -0.2792  0.0563
  606loPI   C3B 9695  14.831   6.698   8.428 -0.1202 -0.1845 -0.1963
  606loPI   C4B 9696  14.947   6.536   8.088  0.1400 -0.0349  0.1597
  607loPI    C1 9697  17.043  16.668  10.985 -0.0209 -0.1734 -0.3022
  607loPI    C2 9698  16.671  16.722  11.122 -0.1181 -0.1837 -0.5560
  607loPI    C3 9699  16.953  16.997  11.193 -0.1509 -0.2169 -0.2885
  607loPI   PO4 9700  16.923  16.472  10.745  0.0677  0.4993  0.1792
  607loPI   GL1 9701  16.924  16.351  10.393 -0.0629  0.0635  0.2021
  607loPI   GL2 9702  16.726  16.136  10.323  0.4333  0.2802  0.1410
  607loPI   C1A 9703  17.202  16.346   9.911 -0.1305  0.2862  0.1803
  607loPI   C2A 9704  17.160  16.464   9.439 -0.2223  0.1944 -0.2125
  607loPI   C3A 9705  17.046  16.362   9.080 -0.1283  0.0472 -0.2830
  607loPI   C4A 9706  17.087  16.566   8.713 -0.1466 -0.1798 -0.0486
  607loPI   C5A 9707  17.224  16.976   8.454  0.0964 -0.1361  0.2773
  607loPI   C6A 9708  17.510  17.205   8.319 -0.0050  0.1641 -0.1356
  607loPI   C1B 9709  16.725  16.117   9.886 -0.1420 -0.2383 -0.0271
  607loPI   C2B 9710  16.716  16.187   9.414  0.1559 -0.0533  0.0934
  607loPI   C3B 9711  16.575  16.094   8.934  0.0965  0.2144  0.0076
  607loPI   C4B 9712  16.619  16.051   8.452  0.0075 -0.2532 -0.0739
  608loPI    C1 9713  12.536  17.477  10.849  0.0435  0.1460  0.1114
  608loPI    C2 9714  12.579  17.094  10.956 -0.0201  0.0933 -0.0485
  608loPI    C3 9715  12.490  17.370  11.232 -0.0862 -0.0248  0.0494
  608loPI   PO4 9716  12.589  17.518  10.612  0.2238  0.2427 -0.2040
  608loPI   GL1 9717  12.654  17.514  10.209  0.1131 -0.0024  0.2948
  608loPI   GL2 9718  12.359  17.467  10.048  0.2425  0.2474 -0.0288
  608loPI   C1A 9719  12.879  17.255   9.842  0.3632 -0.1100 -0.3254
  608loPI   C2A 9720  13.013  17.285   9.492 -0.2043  0.0190  0.0496
  608loPI   C3A 9721  12.908  17.202   9.104  0.1841 -0.0363  0.4205
  608loPI   C4A 9722  12.961  17.162   8.629 -0.2276  0.1020 -0.0662
  608loPI   C5A 9723  13.225  17.288   8.206 -0.0817  0.1643 -0.2892
  608loPI   C6A 9724  13.571  17.657   8.069 -0.2969  0.1993  0.0083
  608loPI   C1B 9725  12.531  17.504   9.669 -0.2469  0.2619  0.0664
  608loPI   C2B 9726  12.429  17.540   9.196  0.0721  0.0131  0.1964
  608loPI   C3B 9727  12.485  17.350   8.856  0.0028 -0.4077  0.0774
  608loPI   C4B 9728  12.472  17.357   8.390 -0.0178  0.3720  0.1370
  609POPI    C1 9729  14.873   4.908  10.843  0.1361  0.2918 -0.2145
  609POPI    C2 9730  14.998   4.551  10.975 -0.4548  0.1552  0.0083
  609POPI    C3 9731  15.220   4.877  11.040 -0.0772 -0.1165  0.1159
  609POPI   PO4 9732  14.820   4.794  10.553 -0.0414 -0.1184 -0.2498
  609POPI   GL1 9733  14.968   4.916  10.163  0.0260 -0.0650  0.1389
  609POPI   GL2 9734  14.616   5.151  10.024 -0.2512  0.1478  0.2200
  609POPI   C1A 9735  15.097   4.851   9.745  0.2063 -0.2446 -0.0100
  609POPI   D2A 9736  15.119   4.772   9.340  0.1767 -0.1636 -0.1586
  609POPI   C3A 9737  15.185   4.909   8.897 -0.0142  0.0009 -0.1549
  609POPI   C4A 9738  15.331   4.884   8.435  0.2070  0.1434 -0.2920
  609POPI   C1B 9739  14.692   5.212   9.573  0.2562 -0.0997 -0.0612
  609POPI   C2B 9740  14.775   5.083   9.185 -0.1667 -0.4925  0.1707
  609POPI   C3B 9741  14.808   5.181   8.749 -0.3326  0.0272  0.1401
  609POPI   C4B 9742  14.774   5.171   8.312  0.2106 -0.1135  0.1465
  610POPI    C1 9743  10.770   4.563   9.868 -0.2397 -0.3361  0.1573
  610POPI    C2 9744  10.824   4.699  10.239 -0.1044  0.2458 -0.0656
  610POPI    C3 9745  10.826   4.306  10.169  0.2680  0.1370  0.4854
  610POPI   PO4 9746  11.024   4.702   9.718 -0.0692  0.1472 -0.0168
  610POPI   GL1 9747  11.250   4.958   9.405  0.1698 -0.1392  0.0089
  610POPI   GL2 9748  10.964   5.132   9.446 -0.2093  0.1808  0.0705
  610POPI   C1A 9749  11.128   4.837   8.965 -0.0669  0.1613  0.2628
  610POPI   D2A 9750  10.701   4.774   8.705 -0.2095 -0.1969 -0.1511
  610POPI   C3A 9751  10.339   4.697   8.324  0.4079  0.0150 -0.0994
  610POPI   C4A 9752  10.100   4.920   8.110 -0.0954  0.0145 -0.3714
  610POPI   C1B 9753  11.184   5.349   9.050  0.0001 -0.0856  0.1760
  610POPI   C2B 9754  11.518   5.352   8.791  0.2387  0.0952  0.1643
  610POPI   C3B 9755  11.476   5.326   8.341 -0.1658 -0.0069 -0.4179
  610POPI   C4B 9756  11.168   5.220   8.022 -0.1424  0.3599  0.4557
  611POPI    C1 9757  15.422  15.319  11.108  0.3905 -0.0357  0.2436
  611POPI    C2 9758  15.244  14.976  11.209  0.3915 -0.0510  0.1946
  611POPI    C3 9759  15.204  15.299  11.442  0.0939  0.0149  0.0566
  611POPI   PO4 9760  15.337  15.346  10.842 -0.2086  0.0133  0.1228
  611POPI   GL1 9761  15.348  15.236  10.406  0.0824 -0.1602 -0.1562
  611POPI   GL2 9762  15.031  15.288  10.389 -0.1020  0.0780  0.0962
  611POPI   C1A 9763  15.366  15.392   9.948  0.4554  0.0286 -0.4548
  611POPI   D2A 9764  15.380  15.378   9.591  0.2043  0.0894  0.0692
  611POPI   C3A 9765  15.392  15.368   9.188 -0.0287  0.1361  0.0662
  611POPI   C4A 9766  15.310  15.474   8.690 -0.0706  0.1400  0.1905
  611POPI   C1B 9767  14.843  15.228   9.975 -0.4678 -0.1055 -0.0199
  611POPI   C2B 9768  14.800  15.112   9.489  0.1735  0.0813  0.0399
  611POPI   C3B 9769  14.719  15.078   9.109 -0.3122 -0.1529  0.0663
  611POPI   C4B 9770  14.771  15.138   8.658 -0.1337 -0.1824 -0.0174
  612POPI    C1 9771   8.806   4.564   9.842  0.0674  0.1373 -0.0953
  612POPI    C2 9772   8.604   4.832  10.060  0.3187  0.1265  0.1564
  612POPI    C3 9773   8.967   4.711  10.178  0.2017 -0.3393  0.0562
  612POPI   PO4 9774   8.788   4.696   9.629 -0.0283 -0.0113  0.0779
  612POPI   GL1 9775   9.195   4.639   9.339  0.2815 -0.0856  0.2442
  612POPI   GL2 9776   9.512   4.765   9.384  0.0562 -0.2193 -0.2235
  612POPI   C1A 9777   8.874   4.787   8.970  0.1054  0.1917 -0.2337
  612POPI   D2A 9778   8.771   4.937   8.500 -0.1384  0.0128  0.2639
  612POPI   C3A 9779   8.377   5.040   8.253  0.1751 -0.0782  0.1022
  612POPI   C4A 9780   7.863   4.942   8.250  0.0324 -0.1302  0.0356
  612POPI   C1B 9781   9.383   4.874   8.967 -0.1751 -0.0463 -0.2711
  612POPI   C2B 9782   9.270   4.978   8.632  0.1752 -0.1470  0.3123
  612POPI   C3B 9783   9.221   5.041   8.110 -0.0426 -0.1876 -0.3810
  612POPI   C4B 9784   9.207   4.988   7.711  0.2180  0.4225 -0.1245
  613POPI    C1 9785   1.421   5.464  10.957  0.0359 -0.1336  0.0960
  613POPI    C2 9786   1.172   5.164  11.047 -0.1232 -0.0588 -0.0897
  613POPI    C3 9787   1.567   5.100  11.039 -0.1439 -0.2131  0.0665
  613POPI   PO4 9788   1.171   5.593  10.750  0.0285 -0.1454 -0.0608
  613POPI   GL1 9789   0.959   5.336  10.307 -0.0900  0.0017  0.1765
  613POPI   GL2 9790   0.983   5.069  10.167 -0.2624  0.0442 -0.0838
  613POPI   C1A 9791   0.705   5.468   9.987 -0.1700 -0.1592  0.4408
  613POPI   D2A 9792   0.576   5.412   9.630  0.3301  0.0118  0.1424
  613POPI   C3A 9793   0.593   5.416   9.158  0.1242  0.3502  0.1858
  613POPI   C4A 9794   0.542   5.347   8.765  0.0642 -0.1674 -0.1368
  613POPI   C1B 9795   0.985   5.161   9.742  0.2324 -0.1935  0.0103
  613POPI   C2B 9796   1.024   5.240   9.336 -0.1648  0.0426 -0.1329
  613POPI   C3B 9797   1.037   5.246   8.874 -0.1282  0.0419 -0.3225
  613POPI   C4B 9798   0.965   4.994   8.535  0.2861 -0.0516 -0.1222
  614POPI    C1 9799   5.202   1.367  10.440 -0.1686  0.0671 -0.2606
  614POPI    C2 9800   4.820   1.281  10.521 -0.1174  0.0759 -0.0030
  614POPI    C3 9801   5.045   1.469  10.793  0.1013 -0.0253 -0.1113
  614POPI   PO4 9802   5.355   1.053  10.360 -0.0194  0.2397  0.0265
  614POPI   GL1 9803   5.368   0.897  10.003  0.3104  0.0554  0.1531
  614POPI   GL2 9804   5.329   1.295   9.898  0.3127 -0.1600 -0.0233
  614POPI   C1A 9805   5.246   0.707   9.572 -0.0452  0.1205  0.1072
  614POPI   D2A 9806   5.077   0.809   9.256  0.3541 -0.0548 -0.3727
  614POPI   C3A 9807   5.078   0.627   8.801  0.3540  0.0528  0.2446
  614POPI   C4A 9808   4.736   0.836   8.435  0.1163 -0.0197 -0.3534
  614POPI   C1B 9809   5.230   1.257   9.470 -0.2924 -0.0367  0.1048
  614POPI   C2B 9810   5.105   1.272   9.132 -0.4660  0.0130  0.0894
  614POPI   C3B 9811   5.056   1.230   8.680 -0.0770  0.0300 -0.0676
  614POPI   C4B 9812   4.948   1.254   8.249  0.2361  0.2633  0.1712
  615POPI    C1 9813   0.262   2.459  10.813 -0.0313  0.0117  0.0097
  615POPI    C2 9814   0.515   2.298  11.077  0.0750  0.1473 -0.0082
  615POPI    C3 9815   0.259   2.583  11.193 -0.0488  0.0327  0.0028
  615POPI   PO4 9816   0.443   2.452  10.609 -0.0005 -0.0638 -0.0581
  615POPI   GL1 9817   0.495   2.382  10.159  0.1223  0.2001  0.1302
  615POPI   GL2 9818   0.701   2.625  10.242  0.2192 -0.1787  0.0079
  615POPI   C1A 9819   0.511   2.260   9.826 -0.0625  0.4235 -0.2934
  615POPI   D2A 9820   0.566   2.254   9.410  0.3129  0.2929  0.0205
  615POPI   C3A 9821   0.554   2.171   9.014 -0.0916 -0.1658  0.1675
  615POPI   C4A 9822   0.432   2.182   8.567  0.0221 -0.0804 -0.2709
  615POPI   C1B 9823   0.898   2.603   9.961 -0.2178  0.3096  0.0658
  615POPI   C2B 9824   0.928   2.524   9.594  0.0318  0.2021  0.1263
  615POPI   C3B 9825   0.983   2.501   9.221 -0.2626  0.0149  0.0696
  615POPI   C4B 9826   1.015   2.547   8.792  0.1618  0.1831  0.3854
  616POPI    C1 9827   9.915   9.988  10.714 -0.0157 -0.1455  0.0344
  616POPI    C2 9828   9.774   9.943  11.086  0.0965 -0.2130  0.0691
  616POPI    C3 9829  10.164   9.889  11.012  0.1539  0.2322  0.0233
  616POPI   PO4 9830   9.765  10.210  10.594 -0.0790  0.2012  0.2375
  616POPI   GL1 9831  10.076  10.440  10.286 -0.0902 -0.5565  0.0872
  616POPI   GL2 9832   9.937  10.670  10.075  0.2099 -0.3582 -0.2199
  616POPI   C1A 9833  10.310  10.353   9.851 -0.0569  0.2932 -0.3277
  616POPI   D2A 9834  10.276  10.324   9.443 -0.2522  0.2654  0.2081
  616POPI   C3A 9835  10.249  10.420   9.045 -0.3184  0.1489  0.0124
  616POPI   C4A 9836  10.191  10.467   8.604 -0.0360 -0.2004 -0.0245
  616POPI   C1B 9837   9.821  10.625   9.762  0.0926 -0.2692  0.3613
  616POPI   C2B 9838   9.843  10.617   9.267 -0.2335  0.0402 -0.0724
  616POPI   C3B 9839   9.844  10.735   8.946  0.2098  0.1390  0.3509
  616POPI   C4B 9840   9.703  10.561   8.652  0.1556 -0.2142 -0.3341
  617POPI    C1 9841   4.497   3.550  10.574  0.0014 -0.1747  0.0415
  617POPI    C2 9842   4.585   3.363  10.916  0.1912 -0.1093  0.0297
  617POPI    C3 9843   4.537   3.760  10.913 -0.0866 -0.1412  0.0314
  617POPI   PO4 9844   4.450   3.431  10.292 -0.1983  0.2838  0.4051
  617POPI   GL1 9845   4.522   3.622   9.867 -0.3647 -0.0547  0.3683
  617POPI   GL2 9846   4.794   3.579   9.669 -0.3756 -0.0765  0.2650
  617POPI   C1A 9847   4.292   3.842   9.609 -0.0584 -0.2023 -0.1239
  617POPI   D2A 9848   4.032   3.871   9.261  0.1985 -0.0401  0.1165
  617POPI   C3A 9849   4.095   3.764   8.832  0.0037 -0.1712 -0.2083
  617POPI   C4A 9850   4.171   3.636   8.454  0.1538 -0.0774 -0.2224
  617POPI   C1B 9851   4.745   3.533   9.264  0.0627  0.2731  0.0990
  617POPI   C2B 9852   4.506   3.507   8.808 -0.2252  0.1517 -0.1435
  617POPI   C3B 9853   4.605   3.411   8.376  0.3106  0.0502  0.3468
  617POPI   C4B 9854   4.857   3.427   7.968 -0.0056  0.0310  0.0652
  618POPI    C1 9855  13.732  12.162  11.097 -0.1604 -0.0913  0.0003
  618POPI    C2 9856  14.037  11.939  11.227  0.0216  0.2408  0.1554
  618POPI    C3 9857  13.835  12.170  11.483 -0.1144  0.3145 -0.0166
  618POPI   PO4 9858  13.788  12.046  10.790  0.0549 -0.0113 -0.5362
  618POPI   GL1 9859  13.820  12.098  10.394 -0.2153  0.2606 -0.1853
  618POPI   GL2 9860  13.502  12.023  10.254  0.0546  0.2336  0.5429
  618POPI   C1A 9861  13.924  11.879  10.009  0.1547  0.2759  0.1216
  618POPI   D2A 9862  13.930  11.979   9.574  0.0176  0.0197 -0.0570
  618POPI   C3A 9863  13.919  12.021   9.058  0.0100  0.0359 -0.2023
  618POPI   C4A 9864  13.739  11.838   8.693  0.0567 -0.4362  0.0084
  618POPI   C1B 9865  13.475  12.234   9.820  0.1223 -0.1179 -0.0133
  618POPI   C2B 9866  13.391  12.292   9.336 -0.0518 -0.3964 -0.0196
  618POPI   C3B 9867  13.302  12.184   8.917  0.4569  0.3734 -0.1423
  618POPI   C4B 9868  13.378  12.159   8.522  0.3942 -0.1087 -0.0818
  619POPI    C1 9869   3.319   4.980  11.100  0.1909  0.2260  0.0646
  619POPI    C2 9870   2.941   5.031  11.220  0.0683 -0.1563 -0.1395
  619POPI    C3 9871   3.201   4.841  11.456  0.1168  0.0431 -0.0297
  619POPI   PO4 9872   3.257   4.948  10.846 -0.0054 -0.1843  0.2003
  619POPI   GL1 9873   3.311   4.897  10.426 -0.1828 -0.3149 -0.0719
  619POPI   GL2 9874   3.110   4.641  10.371 -0.0206  0.0614  0.0573
  619POPI   C1A 9875   3.371   4.831   9.983 -0.0414  0.0349 -0.1695
  619POPI   D2A 9876   3.249   4.868   9.513  0.0928 -0.0987  0.1661
  619POPI   C3A 9877   3.252   4.825   9.127 -0.0253 -0.0226  0.0231
  619POPI   C4A 9878   3.216   4.913   8.718  0.1491 -0.3264  0.2087
  619POPI   C1B 9879   2.822   4.626  10.073 -0.3136 -0.3940  0.1950
  619POPI   C2B 9880   2.838   4.580   9.649 -0.2669  0.2018 -0.1057
  619POPI   C3B 9881   2.801   4.610   9.176 -0.1505 -0.1614 -0.2503
  619POPI   C4B 9882   2.763   4.572   8.817  0.4907 -0.0250 -0.3482
  620POPI    C1 9883   1.927  14.538  10.786 -0.4685 -0.1550 -0.1579
  620POPI    C2 9884   1.735  14.619  11.128  0.1744  0.1025  0.1594
  620POPI    C3 9885   1.957  14.288  11.096 -0.1923 -0.1210 -0.1541
  620POPI   PO4 9886   1.750  14.615  10.562  0.3872  0.3629  0.0016
  620POPI   GL1 9887   1.754  14.607  10.113  0.1220  0.0610 -0.2762
  620POPI   GL2 9888   1.590  14.733   9.804  0.0060  0.1441 -0.1471
  620POPI   C1A 9889   2.089  14.568   9.708  0.2812 -0.2186  0.3539
  620POPI   D2A 9890   2.015  14.657   9.354 -0.0933  0.1606 -0.2324
  620POPI   C3A 9891   1.931  14.567   8.816 -0.1972 -0.2257  0.1818
  620POPI   C4A 9892   1.842  14.526   8.438  0.0908  0.2725 -0.1860
  620POPI   C1B 9893   1.453  14.820   9.402  0.0058 -0.2489  0.3019
  620POPI   C2B 9894   1.512  14.853   8.956  0.1087  0.0371 -0.1906
  620POPI   C3B 9895   1.414  14.912   8.451  0.0155  0.0573  0.0938
  620POPI   C4B 9896   1.416  14.575   8.008 -0.0421 -0.2668 -0.1670
  621POPI    C1 9897   6.457   5.185  10.375  0.0741 -0.1342  0.0044
  621POPI    C2 9898   6.220   5.502  10.316  0.2940  0.0450  0.0719
  621POPI    C3 9899   6.158   5.261  10.630  0.0755 -0.0282 -0.0253
  621POPI   PO4 9900   6.443   5.086  10.173 -0.1312  0.2273 -0.0380
  621POPI   GL1 9901   6.421   4.875   9.841  0.1679 -0.1359 -0.1201
  621POPI   GL2 9902   6.745   4.736   9.844 -0.1238  0.0088 -0.0579
  621POPI   C1A 9903   6.157   4.780   9.590  0.4564  0.1661  0.4220
  621POPI   D2A 9904   5.997   4.409   9.431  0.0777  0.0765  0.0802
  621POPI   C3A 9905   6.022   4.343   8.957 -0.1127 -0.0841  0.2918
  621POPI   C4A 9906   6.079   4.432   8.497 -0.0003 -0.2028  0.1723
  621POPI   C1B 9907   6.740   4.876   9.443 -0.1363  0.0168 -0.0541
  621POPI   C2B 9908   6.814   4.924   9.018  0.1603  0.2534  0.3152
  621POPI   C3B 9909   6.901   4.983   8.544  0.0475 -0.2420 -0.1534
  621POPI   C4B 9910   6.942   4.949   8.113 -0.2733 -0.2057 -0.2191
  622POPI    C1 9911   1.260  14.474  10.640 -0.2837  0.0553 -0.1839
  622POPI    C2 9912   1.339  14.835  10.793 -0.1302  0.0137 -0.1641
  622POPI    C3 9913   1.141  14.564  11.011 -0.1621  0.0532 -0.1441
  622POPI   PO4 9914   1.330  14.514  10.348  0.1578  0.0157  0.2035
  622POPI   GL1 9915   1.075  14.707  10.013  0.1395  0.2179  0.0091
  622POPI   GL2 9916   0.860  14.414  10.002 -0.2672  0.0256 -0.1608
  622POPI   C1A 9917   1.101  15.035   9.733 -0.2778  0.1345 -0.1645
  622POPI   D2A 9918   1.116  15.166   9.303 -0.3707  0.1182 -0.2438
  622POPI   C3A 9919   1.087  15.076   8.951  0.1489 -0.4535 -0.2648
  622POPI   C4A 9920   0.955  15.170   8.662  0.1474 -0.1466  0.1284
  622POPI   C1B 9921   1.001  14.554   9.543 -0.2842  0.0580 -0.0921
  622POPI   C2B 9922   1.030  14.640   9.138  0.1466  0.0906 -0.0021
  622POPI   C3B 9923   1.068  14.650   8.673 -0.2765 -0.0353 -0.3202
  622POPI   C4B 9924   1.005  14.570   8.266  0.1489 -0.0382  0.2094
  623POPI    C1 9925  17.072   6.141  10.663 -0.0147  0.0031 -0.0326
  623POPI    C2 9926  17.193   6.153  11.043  0.1142 -0.2530 -0.0634
  623POPI    C3 9927  16.814   6.059  10.957  0.0080  0.0941  0.0126
  623POPI   PO4 9928  17.318   6.045  10.536 -0.0740 -0.0361 -0.1442
  623POPI   GL1 9929  17.502   5.985  10.242  0.0185  0.1306 -0.0404
  623POPI   GL2 9930  17.541   5.613  10.375  0.0240 -0.3792 -0.0327
  623POPI   C1A 9931  17.527   6.137   9.881  0.4667  0.1390 -0.1565
  623POPI   D2A 9932  17.514   6.246   9.473  0.1706  0.0053 -0.0788
  623POPI   C3A 9933  17.550   6.143   9.082 -0.1452 -0.0036 -0.2532
  623POPI   C4A 9934  17.514   6.164   8.726  0.3059  0.0926  0.5313
  623POPI   C1B 9935  17.489   5.601   9.913  0.3759 -0.2655 -0.4193
  623POPI   C2B 9936  17.506   5.652   9.481 -0.2060  0.0167  0.2450
  623POPI   C3B 9937  17.452   5.614   9.013 -0.2728 -0.0522 -0.1961
  623POPI   C4B 9938  17.463   5.640   8.595  0.0586 -0.1709  0.1919
  624POPI    C1 9939   8.863   9.583  10.515 -0.0884  0.0383  0.1341
  624POPI    C2 9940   9.124   9.512  10.810 -0.0131 -0.2070  0.0107
  624POPI    C3 9941   8.736   9.562  10.894 -0.0008 -0.3324  0.1469
  624POPI   PO4 9942   8.940   9.765  10.350  0.1377  0.1197 -0.0731
  624POPI   GL1 9943   9.254   9.800   9.966 -0.2391  0.2894  0.0103
  624POPI   GL2 9944   9.015  10.064  10.002 -0.6998  0.1056  0.1138
  624POPI   C1A 9945   9.405   9.732   9.524  0.0165  0.1915  0.2650
  624POPI   D2A 9946   9.423   9.867   9.131  0.0089 -0.0518 -0.1490
  624POPI   C3A 9947   9.327   9.835   8.724  0.2119  0.1405  0.1355
  624POPI   C4A 9948   9.218   9.960   8.258 -0.0275 -0.0061 -0.3120
  624POPI   C1B 9949   8.929  10.114   9.576  0.0475 -0.0091  0.4382
  624POPI   C2B 9950   8.906   9.971   9.202 -0.1706  0.1858  0.0288
  624POPI   C3B 9951   8.851  10.082   8.817  0.0627 -0.0577  0.1859
  624POPI   C4B 9952   8.776  10.189   8.482 -0.0902 -0.1642  0.2601
  625DPPI    C1 9953   1.999  11.255  10.686  0.1233  0.0122 -0.0572
  625DPPI    C2 9954   1.917  11.013  10.993 -0.0499 -0.0500 -0.1511
  625DPPI    C3 9955   2.096  11.364  11.058  0.0672 -0.1369  0.0019
  625DPPI   PO4 9956   1.788  11.390  10.571 -0.1671 -0.1837 -0.3641
  625DPPI   GL1 9957   1.495  11.444  10.296 -0.2415  0.2737 -0.1615
  625DPPI   GL2 9958   1.494  11.749  10.329 -0.2690  0.3355  0.0660
  625DPPI   C1A 9959   1.497  11.225   9.924  0.0782 -0.1562 -0.0320
  625DPPI   C2A 9960   1.496  11.154   9.537  0.0522 -0.2279  0.2314
  625DPPI   C3A 9961   1.446  11.137   9.138 -0.1596 -0.0700 -0.0376
  625DPPI   C4A 9962   1.399  11.147   8.662 -0.1401  0.0515  0.1500
  625DPPI   C1B 9963   1.494  11.788   9.872  0.2209  0.1238  0.3401
  625DPPI   C2B 9964   1.438  11.732   9.506  0.1191 -0.1477 -0.0382
  625DPPI   C3B 9965   1.409  11.692   9.025 -0.1182  0.0381  0.5394
  625DPPI   C4B 9966   1.341  11.678   8.585  0.0254  0.0109  0.1903
  626DPPI    C1 9967  14.778   0.765  10.547  0.1646 -0.0969 -0.1922
  626DPPI    C2 9968  14.418   0.734  10.720  0.1549  0.0535 -0.1850
  626DPPI    C3 9969  14.489   0.549  10.373  0.1043 -0.0643 -0.1331
  626DPPI   PO4 9970  14.820   1.041  10.631  0.3031  0.1894 -0.0260
  626DPPI   GL1 9971  15.074   1.321  10.370 -0.2073  0.0764  0.0069
  626DPPI   GL2 9972  14.849   1.434  10.257  0.0495 -0.1816  0.0461
  626DPPI   C1A 9973  14.865   0.995   9.997  0.1843 -0.2201  0.2898
  626DPPI   C2A 9974  14.680   1.079   9.513  0.2398 -0.2193  0.1549
  626DPPI   C3A 9975  14.703   0.969   9.199  0.0919 -0.1193 -0.0747
  626DPPI   C4A 9976  14.889   0.960   8.805  0.0786  0.1127 -0.0190
  626DPPI   C1B 9977  15.206   1.406   9.898 -0.0032  0.0212  0.0613
  626DPPI   C2B 9978  15.181   1.315   9.414  0.1862  0.1474 -0.0930
  626DPPI   C3B 9979  15.206   1.228   9.062  0.0060 -0.1568  0.3278
  626DPPI   C4B 9980  15.289   1.231   8.592 -0.2844  0.1166 -0.0860
  627DPPI    C1 9981  18.231   1.103  11.132  0.1844  0.0955  0.1366
  627DPPI    C2 9982  18.332   0.716  11.158  0.1722  0.0719 -0.1389
  627DPPI    C3 9983  18.091   0.879  11.432  0.2284 -0.0993  0.0138
  627DPPI   PO4 9984  18.231   1.141  10.843  0.1022  0.1225 -0.0990
  627DPPI   GL1 9985  18.248   1.316  10.388  0.1942  0.1325 -0.0327
  627DPPI   GL2 9986  18.531   1.065  10.379 -0.0098 -0.1006  0.4302
  627DPPI   C1A 9987  18.085   1.220   9.966 -0.0931 -0.1592  0.0837
  627DPPI   C2A 9988  18.005   1.225   9.548  0.0638  0.1435 -0.1953
  627DPPI   C3A 9989  18.054   1.199   9.119  0.0394 -0.1180  0.0099
  627DPPI   C4A 9990  18.113   1.158   8.837  0.1366  0.0413  0.0265
  627DPPI   C1B 9991  18.493   0.964   9.896  0.2039 -0.1119  0.1176
  627DPPI   C2B 9992  18.439   0.998   9.562  0.2183  0.1498  0.0081
  627DPPI   C3B 9993  18.478   0.948   9.173 -0.4470 -0.0279  0.1314
  627DPPI   C4B 9994  18.585   0.928   8.751 -0.1210  0.0429 -0.0822
  628DPPI    C1 9995   7.088  10.120  10.571 -0.2999  0.1710  0.0593
  628DPPI    C2 9996   7.268  10.054  10.922 -0.3893 -0.0249  0.0700
  628DPPI    C3 9997   6.918  10.246  10.910 -0.3159  0.1107  0.0740
  628DPPI   PO4 9998   7.128   9.897  10.444  0.0591 -0.2910  0.0098
  628DPPI   GL1 9999   7.399   9.746  10.070  0.1444  0.3166  0.1924
  628DPPI   GL210000   7.193   9.897   9.883 -0.0378  0.0322 -0.0228
  628DPPI   C1A10001   7.543   9.654   9.567 -0.2577 -0.1782 -0.2873
  628DPPI   C2A10002   7.450   9.697   9.142  0.1138  0.0614  0.0820
  628DPPI   C3A10003   7.461   9.947   8.635  0.0274 -0.0290  0.2198
  628DPPI   C4A10004   7.530   9.748   8.219 -0.0530 -0.0853  0.2567
  628DPPI   C1B10005   7.083   9.988   9.545  0.2101  0.2949  0.1454
  628DPPI   C2B10006   7.107  10.065   9.164 -0.0987  0.2017  0.3680
  628DPPI   C3B10007   7.038  10.086   8.765 -0.2461  0.0472 -0.0172
  628DPPI   C4B10008   6.898  10.054   8.275  0.1616  0.1035  0.3233
  629DPPI    C110009  14.555  11.473  10.707  0.1454 -0.2206  0.1944
  629DPPI    C210010  14.670  11.855  10.674  0.0921 -0.2065  0.1694
  629DPPI    C310011  14.310  11.767  10.823  0.0537 -0.2416  0.0567
  629DPPI   PO410012  14.496  11.327  10.461 -0.0548  0.2084  0.0730
  629DPPI   GL110013  14.602  11.472  10.072  0.0789  0.2434 -0.3114
  629DPPI   GL210014  14.855  11.451  10.020 -0.1816  0.1003  0.1317
  629DPPI   C1A10015  14.498  11.654   9.670  0.2457 -0.0313  0.0979
  629DPPI   C2A10016  14.282  11.710   9.267 -0.0781  0.0313  0.2245
  629DPPI   C3A10017  14.264  11.744   8.833  0.2824  0.3514  0.0283
  629DPPI   C4A10018  14.146  11.708   8.390  0.0697 -0.2631 -0.1073
  629DPPI   C1B10019  14.869  11.361   9.617 -0.2079 -0.1357 -0.0869
  629DPPI   C2B10020  14.844  11.513   9.229  0.0991 -0.2868  0.2287
  629DPPI   C3B10021  14.754  11.520   8.866 -0.0538  0.1857  0.1569
  629DPPI   C4B10022  14.617  11.493   8.403 -0.0733  0.0264  0.3625
  630DPPI    C110023   6.037   1.903  10.312  0.1344  0.2872 -0.0389
  630DPPI    C210024   5.764   2.116  10.512 -0.1786 -0.0826 -0.0613
  630DPPI    C310025   6.026   1.889  10.712 -0.0269  0.1016 -0.0484
  630DPPI   PO410026   6.102   2.034  10.112 -0.0674  0.3219  0.2458
  630DPPI   GL110027   6.026   1.767   9.784  0.2278  0.0562  0.0074
  630DPPI   GL210028   5.776   1.594   9.859  0.0475 -0.1673 -0.0313
  630DPPI   C1A10029   5.943   1.766   9.312 -0.1970 -0.0629 -0.1172
  630DPPI   C2A10030   6.150   1.765   8.870 -0.0364 -0.0921 -0.1738
  630DPPI   C3A10031   6.065   1.686   8.503  0.0430  0.0789  0.1514
  630DPPI   C4A10032   5.947   1.353   8.074  0.0709  0.0134 -0.4379
  630DPPI   C1B10033   5.598   1.513   9.549 -0.1295  0.1501 -0.0851
  630DPPI   C2B10034   5.560   1.457   9.027 -0.2049 -0.2348  0.0258
  630DPPI   C3B10035   5.551   1.444   8.624 -0.1107  0.2135 -0.0681
  630DPPI   C4B10036   5.539   1.295   8.310 -0.0057  0.3315  0.2275
  631DPPI    C110037  13.039   8.708  10.705 -0.2147  0.0621  0.3164
  631DPPI    C210038  13.428   8.745  10.786 -0.0662 -0.0175 -0.3066
  631DPPI    C310039  13.199   8.505  11.010  0.2019  0.1489  0.1615
  631DPPI   PO410040  13.037   8.888  10.454 -0.1767 -0.1216  0.1052
  631DPPI   GL110041  13.179   8.914  10.068  0.0854  0.0237 -0.0282
  631DPPI   GL210042  13.001   8.664   9.875 -0.0683  0.3308  0.0744
  631DPPI   C1A10043  13.372   9.024   9.628  0.3227 -0.2208 -0.0749
  631DPPI   C2A10044  13.422   9.032   9.276  0.1724  0.2210  0.0304
  631DPPI   C3A10045  13.404   9.045   8.795 -0.0862  0.0548  0.2545
  631DPPI   C4A10046  13.306   9.168   8.326  0.1019  0.0191  0.1114
  631DPPI   C1B10047  13.025   8.703   9.422  0.1965 -0.0844 -0.6083
  631DPPI   C2B10048  13.025   8.669   8.992  0.3875  0.1869 -0.1530
  631DPPI   C3B10049  12.895   8.867   8.556 -0.1042  0.0507 -0.0067
  631DPPI   C4B10050  12.879   8.981   8.090 -0.2619  0.4885 -0.0029
  632DPPI    C110051   9.219   7.686  10.159 -0.0518  0.2441 -0.2061
  632DPPI    C210052   9.530   7.738  10.404 -0.0514 -0.1203 -0.1234
  632DPPI    C310053   9.184   7.599  10.547 -0.0898 -0.2164 -0.3068
  632DPPI   PO410054   9.137   7.883  10.073 -0.0848  0.3795 -0.1258
  632DPPI   GL110055   8.942   8.005   9.650 -0.0191  0.0505  0.0631
  632DPPI   GL210056   9.325   8.078   9.636 -0.1030 -0.1361  0.2346
  632DPPI   C1A10057   8.747   7.980   9.222  0.1290  0.2730 -0.0194
  632DPPI   C2A10058   8.851   7.989   8.728  0.0803  0.0252  0.0054
  632DPPI   C3A10059   8.692   7.899   8.335  0.1451 -0.0001 -0.3623
  632DPPI   C4A10060   8.633   7.893   7.882 -0.0646  0.0318  0.0100
  632DPPI   C1B10061   9.262   8.288   9.261  0.0168  0.0375 -0.1216
  632DPPI   C2B10062   9.272   8.257   8.796 -0.5297 -0.1881 -0.0054
  632DPPI   C3B10063   9.230   8.028   8.376  0.0388 -0.1086  0.0900
  632DPPI   C4B10064   9.134   7.744   8.024 -0.1260  0.0390  0.1740
  633DPPI    C110065   3.185  15.093  10.650  0.1589  0.0508  0.3026
  633DPPI    C210066   3.350  14.791  10.854  0.3135  0.0674  0.2039
  633DPPI    C310067   3.316  15.151  11.023  0.3233  0.0484  0.2463
  633DPPI   PO410068   2.979  14.925  10.512 -0.2063 -0.0103 -0.1590
  633DPPI   GL110069   2.828  14.966  10.103 -0.0408  0.2993 -0.0022
  633DPPI   GL210070   2.973  14.656   9.991 -0.0986 -0.2170  0.1347
  633DPPI   C1A10071   2.935  15.141   9.697 -0.1144  0.1535 -0.0334
  633DPPI   C2A10072   2.983  15.021   9.332 -0.1465  0.0121 -0.1940
  633DPPI   C3A10073   2.889  15.086   8.962 -0.2550 -0.1213 -0.1581
  633DPPI   C4A10074   2.849  15.155   8.600 -0.1288  0.3551  0.0241
  633DPPI   C1B10075   2.911  14.534   9.623 -0.1376  0.0824  0.3190
  633DPPI   C2B10076   2.858  14.556   9.156 -0.1936 -0.1444  0.2169
  633DPPI   C3B10077   2.856  14.582   8.711 -0.2708 -0.3179 -0.1925
  633DPPI   C4B10078   2.814  14.632   8.303  0.0599  0.0845  0.3843
  634DPPI    C110079  17.792  11.798  10.843  0.1275  0.0660  0.1442
  634DPPI    C210080  17.941  12.116  11.035  0.0304  0.0783  0.1997
  634DPPI    C310081  17.547  12.051  11.031  0.0381  0.0368  0.0675
  634DPPI   PO410082  17.898  11.780  10.704  0.0497 -0.2938  0.1633
  634DPPI   GL110083  17.908  11.707  10.273  0.0507  0.0582 -0.0322
  634DPPI   GL210084  17.622  11.973  10.318 -0.1747 -0.0914  0.1035
  634DPPI   C1A10085  18.062  11.685   9.841  0.0648  0.2638 -0.4184
  634DPPI   C2A10086  18.121  11.670   9.443 -0.1543  0.0000  0.1917
  634DPPI   C3A10087  17.961  11.789   9.007 -0.4086  0.0947 -0.2155
  634DPPI   C4A10088  17.872  11.656   8.577  0.0511 -0.1205  0.1789
  634DPPI   C1B10089  17.511  12.080   9.880  0.1165  0.4994 -0.0697
  634DPPI   C2B10090  17.472  12.014   9.392  0.5205  0.3070  0.0927
  634DPPI   C3B10091  17.473  12.019   9.038  0.1468 -0.0705 -0.0185
  634DPPI   C4B10092  17.401  12.013   8.613  0.2071  0.3078 -0.3975
  635PYPI    C110093   5.123  13.017  10.718 -0.1204  0.1279  0.0764
  635PYPI    C210094   5.014  12.838  11.059 -0.2421 -0.0424 -0.0504
  635PYPI    C310095   4.971  13.234  11.018 -0.1410 -0.0082  0.1651
  635PYPI   PO410096   5.034  12.922  10.477  0.1690 -0.1673  0.0990
  635PYPI   GL110097   4.989  13.103  10.044  0.1818  0.0502  0.0778
  635PYPI   GL210098   4.818  12.815   9.963 -0.0783 -0.1916 -0.3585
  635PYPI   C1A10099   5.319  13.236   9.706 -0.2287 -0.1303  0.4029
  635PYPI   C2A10100   5.275  13.194   9.268 -0.0041 -0.1969  0.2505
  635PYPI   D3A10101   5.157  13.407   8.841 -0.0085 -0.0344 -0.1308
  635PYPI   C4A10102   5.086  13.184   8.393  0.0924  0.1132  0.3555
  635PYPI   C1B10103   4.903  12.990   9.567 -0.0775 -0.1536 -0.1916
  635PYPI   C2B10104   4.801  13.008   9.079 -0.3170 -0.2348  0.1199
  635PYPI   C3B10105   4.645  13.083   8.592  0.0508  0.3433 -0.0974
  635PYPI   C4B10106   4.596  12.889   8.234 -0.0686  0.1192 -0.0827
  636PYPI    C110107   1.484  15.863  11.066 -0.0730 -0.0333  0.2567
  636PYPI    C210108   1.633  16.076  11.370  0.1121 -0.1117  0.2225
  636PYPI    C310109   1.246  15.973  11.368  0.0291  0.1908  0.2571
  636PYPI   PO410110   1.566  15.875  10.732  0.1832  0.1618 -0.1958
  636PYPI   GL110111   1.642  16.111  10.409 -0.0210  0.0768  0.0733
  636PYPI   GL210112   1.824  15.947  10.093  0.0128  0.0143  0.4217
  636PYPI   C1A10113   1.476  16.335  10.037  0.1069  0.0038  0.3380
  636PYPI   C2A10114   1.494  16.422   9.569 -0.2047  0.0467  0.1153
  636PYPI   D3A10115   1.558  16.490   9.144 -0.2444  0.2224  0.0902
  636PYPI   C4A10116   1.475  16.288   8.793 -0.3704  0.2344  0.0211
  636PYPI   C1B10117   1.991  16.236   9.827  0.2069  0.1656 -0.0418
  636PYPI   C2B10118   1.920  16.283   9.370 -0.0144  0.0475  0.1590
  636PYPI   C3B10119   1.916  16.097   8.966  0.0750 -0.0177 -0.0448
  636PYPI   C4B10120   1.874  16.127   8.530  0.3568  0.2348 -0.0674
  637PYPI    C110121   5.296   7.459  10.808  0.1161  0.0241 -0.1776
  637PYPI    C210122   5.112   7.125  10.926 -0.0572  0.0909 -0.2549
  637PYPI    C310123   5.055   7.466  11.127  0.0810  0.0854 -0.2052
  637PYPI   PO410124   5.422   7.495  10.517 -0.0630  0.1436 -0.1200
  637PYPI   GL110125   5.321   7.447  10.156  0.1379  0.0367  0.1271
  637PYPI   GL210126   5.645   7.662  10.027  0.3086 -0.0643  0.2549
  637PYPI   C1A10127   5.293   7.402   9.801 -0.2656 -0.0612  0.4623
  637PYPI   C2A10128   5.212   7.435   9.405  0.1684 -0.1041 -0.3654
  637PYPI   D3A10129   5.231   7.441   9.047 -0.0270  0.2776 -0.0061
  637PYPI   C4A10130   5.018   7.564   8.629 -0.0529  0.2773  0.0242
  637PYPI   C1B10131   5.656   7.703   9.563 -0.2930  0.1193  0.2509
  637PYPI   C2B10132   5.668   7.745   9.189 -0.0104  0.1568  0.2398
  637PYPI   C3B10133   5.589   7.720   8.757 -0.1624 -0.1424 -0.1859
  637PYPI   C4B10134   5.521   7.789   8.363 -0.2049  0.1655 -0.4108
  638PYPI    C110135   6.744  14.283  10.698  0.0862 -0.1141  0.1300
  638PYPI    C210136   6.958  14.072  10.962  0.2118  0.1103  0.2091
  638PYPI    C310137   6.596  14.208  11.062  0.2084  0.0905  0.2235
  638PYPI   PO410138   6.738  14.212  10.486  0.1003 -0.2698 -0.2387
  638PYPI   GL110139   6.709  14.084  10.099 -0.4064  0.1166  0.0255
  638PYPI   GL210140   6.935  13.832  10.074  0.0497 -0.0105 -0.3299
  638PYPI   C1A10141   6.616  14.069   9.632 -0.3077  0.0538  0.4145
  638PYPI   C2A10142   6.556  14.134   9.246 -0.1222 -0.3670 -0.0309
  638PYPI   D3A10143   6.514  13.937   8.961  0.1710 -0.1310  0.1989
  638PYPI   C4A10144   6.396  14.111   8.536 -0.0509  0.0813 -0.1968
  638PYPI   C1B10145   7.060  13.740   9.763 -0.0401 -0.1740 -0.1632
  638PYPI   C2B10146   7.073  13.803   9.428 -0.0229 -0.1336  0.0494
  638PYPI   C3B10147   7.001  13.754   9.008  0.2020  0.4417  0.3426
  638PYPI   C4B10148   6.808  13.839   8.597 -0.0025 -0.5679 -0.0533
  639PYPI    C110149  18.219  13.249  10.838 -0.1580 -0.0821 -0.0681
  639PYPI    C210150  18.006  13.014  11.083 -0.1538  0.0076  0.0221
  639PYPI    C310151  18.272  13.273  11.234  0.0476 -0.1301 -0.0914
  639PYPI   PO410152  18.184  13.180  10.568  0.0690 -0.1227 -0.2237
  639PYPI   GL110153  18.321  13.329  10.237 -0.3447 -0.1847  0.0633
  639PYPI   GL210154  17.981  13.219  10.125  0.2623 -0.0918 -0.0817
  639PYPI   C1A10155  18.408  13.451   9.817 -0.0411 -0.0518 -0.1273
  639PYPI   C2A10156  18.443  13.479   9.414 -0.2142 -0.1437 -0.0958
  639PYPI   D3A10157  18.436  13.643   9.057 -0.0099 -0.0530  0.1284
  639PYPI   C4A10158  18.468  13.597   8.601  0.1075  0.1732  0.0374
  639PYPI   C1B10159  17.969  13.214   9.784  0.1652  0.0796  0.2206
  639PYPI   C2B10160  17.950  13.281   9.325 -0.1784 -0.0437 -0.4116
  639PYPI   C3B10161  17.983  13.342   8.814 -0.0100 -0.5318  0.0022
  639PYPI   C4B10162  18.005  13.352   8.492  0.0827  0.1666  0.2759
  640PYPI    C110163   0.601  10.962  10.713 -0.1930  0.1756 -0.0907
  640PYPI    C210164   0.814  11.199  10.956  0.0050 -0.1947  0.1064
  640PYPI    C310165   0.703  10.835  11.078 -0.1579 -0.2696 -0.2496
  640PYPI   PO410166   0.670  11.005  10.514 -0.0737  0.2708  0.0705
  640PYPI   GL110167   0.618  10.786  10.015 -0.1869 -0.1859  0.0599
  640PYPI   GL210168   0.380  11.146  10.168 -0.1163 -0.0195 -0.0553
  640PYPI   C1A10169   0.538  10.637   9.451 -0.1267  0.0143 -0.0795
  640PYPI   C2A10170   0.464  10.700   9.033 -0.2866 -0.0791  0.2255
  640PYPI   D3A10171   0.397  10.701   8.620  0.5338 -0.2687  0.0127
  640PYPI   C4A10172   0.230  10.853   8.280 -0.0464  0.0197 -0.5193
  640PYPI   C1B10173   0.615  11.231   9.791 -0.3795  0.2108 -0.0370
  640PYPI   C2B10174   0.571  11.138   9.320  0.1247  0.2390  0.0300
  640PYPI   C3B10175   0.593  11.216   8.887 -0.0078  0.0094  0.0814
  640PYPI   C4B10176   0.424  11.225   8.556  0.1665 -0.1154 -0.0071
  641ERGO   ROH10177   2.504   1.195  10.129 -0.0377  0.0130  0.0459
  641ERGO    R110178   2.404   1.141   9.870 -0.0502  0.0315  0.0476
  641ERGO    R210179   2.309   1.339   9.702  0.0577  0.0564  0.0215
  641ERGO    R310180   2.489   1.233   9.528  0.0131 -0.0526  0.0393
  641ERGO    R410181   2.273   1.336   9.359  0.0070 -0.0720  0.0265
  641ERGO    R510182   2.354   1.134   9.357 -0.0352 -0.0938  0.0969
  641ERGO    C110183   2.421   1.236   8.995 -0.0643 -0.2492  0.0460
  641ERGO    C210184   2.344   1.227   8.732 -0.1742  0.0156 -0.5523
  642ERGO   ROH10185   6.984   9.864   6.448 -0.0451 -0.3882  0.0004
  642ERGO    R110186   7.261   9.857   6.390 -0.0556 -0.3060 -0.0628
  642ERGO    R210187   7.436  10.051   6.478 -0.1378 -0.0966 -0.3485
  642ERGO    R310188   7.571   9.838   6.581  0.0081  0.1021 -0.1170
  642ERGO    R410189   7.773  10.050   6.556 -0.0478  0.1047 -0.7089
  642ERGO    R510190   7.786   9.847   6.476 -0.1059 -0.0412 -0.3716
  642ERGO    C110191   8.095   9.849   6.699  0.1416  0.4083 -0.7014
  642ERGO    C210192   8.334   9.686   6.786  0.4659 -0.0244 -0.3723
  643ERGO   ROH10193   0.679   8.026  10.115  0.3904 -0.0033 -0.0879
  643ERGO    R110194   0.543   7.963   9.875  0.3824 -0.2175 -0.0316
  643ERGO    R210195   0.436   8.157   9.710 -0.1602 -0.3777  0.0982
  643ERGO    R310196   0.587   8.034   9.521  0.0238  0.0280 -0.0296
  643ERGO    R410197   0.354   8.134   9.375 -0.2818 -0.4519  0.1336
  643ERGO    R510198   0.428   7.929   9.376  0.1852 -0.2867  0.0224
  643ERGO    C110199   0.448   8.004   9.002 -0.1799 -0.1143  0.0343
  643ERGO    C210200   0.485   7.969   8.572 -0.1827  0.1202 -0.5035
  644ERGO   ROH10201   4.048  13.523   6.363  0.0738 -0.0605 -0.0127
  644ERGO    R110202   3.871  13.410   6.553 -0.1432  0.0776 -0.1291
  644ERGO    R210203   3.619  13.318   6.484  0.0075 -0.1573 -0.3940
  644ERGO    R310204   3.706  13.089   6.601 -0.0238  0.0394  0.0311
  644ERGO    R410205   3.415  13.060   6.591  0.0004 -0.1408 -0.3693
  644ERGO    R510206   3.541  13.040   6.767 -0.2447  0.1577 -0.1484
  644ERGO    C110207   3.378  12.695   6.763 -0.0331  0.0536  0.0440
  644ERGO    C210208   3.175  12.532   6.514  0.0937  0.0987  0.2682
  645ERGO   ROH10209   2.338  18.103   6.668 -0.0338  0.0512  0.1185
  645ERGO    R110210   2.475  17.966   6.874  0.0091  0.0896  0.1151
  645ERGO    R210211   2.657  18.090   7.040 -0.1279  0.1727  0.1997
  645ERGO    R310212   2.498  17.989   7.236 -0.1059 -0.0006  0.1301
  645ERGO    R410213   2.752  18.052   7.370 -0.2256  0.2925  0.2432
  645ERGO    R510214   2.648  17.860   7.372 -0.0148  0.1694  0.1996
  645ERGO    C110215   2.659  17.934   7.746 -0.2618  0.1997  0.2032
  645ERGO    C210216   2.878  18.067   7.948  0.2779 -0.1004 -0.1131
  646ERGO   ROH10217  12.159  11.631  10.238  0.0507  0.0687  0.0948
  646ERGO    R110218  12.218  11.467  10.015  0.1261  0.1999  0.0178
  646ERGO    R210219  12.022  11.363   9.850  0.1623  0.0513  0.0703
  646ERGO    R310220  12.169  11.483   9.655 -0.0416  0.2638  0.0423
  646ERGO    R410221  11.956  11.342   9.511  0.1592 -0.0945  0.0792
  646ERGO    R510222  12.170  11.324   9.475  0.1904  0.2389  0.0608
  646ERGO    C110223  12.055  11.441   9.131 -0.0342  0.0203  0.0579
  646ERGO    C210224  11.987  11.417   8.855  0.1227  0.0579  0.1096
  647ERGO   ROH10225   7.112   0.838   9.633  0.2791  0.1947 -0.0982
  647ERGO    R110226   6.999   0.693   9.417  0.2482 -0.0480  0.0776
  647ERGO    R210227   6.884   0.817   9.199 -0.0755 -0.2926  0.1066
  647ERGO    R310228   7.058   0.663   9.059 -0.0276 -0.1804  0.0398
  647ERGO    R410229   6.862   0.752   8.860 -0.1097 -0.2213  0.0942
  647ERGO    R510230   6.921   0.546   8.901 -0.0063 -0.2072  0.0373
  647ERGO    C110231   7.014   0.568   8.532 -0.0848 -0.0745  0.0242
  647ERGO    C210232   6.997   0.557   8.183 -0.2357 -0.2035 -0.2995
  648ERGO   ROH10233   5.088   3.015   9.894  0.0824 -0.2975  0.1137
  648ERGO    R110234   5.216   2.963   9.647  0.0926  0.0298  0.0466
  648ERGO    R210235   5.120   2.776   9.466  0.2977  0.0132 -0.0422
  648ERGO    R310236   5.129   2.987   9.294 -0.0282  0.1352  0.0821
  648ERGO    R410237   5.101   2.752   9.122  0.3786  0.1771 -0.0601
  648ERGO    R510238   5.254   2.906   9.107  0.1331  0.4452  0.0464
  648ERGO    C110239   5.097   2.936   8.760  0.1198  0.3871  0.0462
  648ERGO    C210240   5.092   2.729   8.555 -0.0665  0.0214  0.3335
  649ERGO   ROH10241   7.095  14.239   9.743 -0.2481  0.1063  0.0453
  649ERGO    R110242   7.029  14.367   9.500  0.1580  0.1364 -0.0610
  649ERGO    R210243   7.206  14.387   9.288  0.3009 -0.4548 -0.0402
  649ERGO    R310244   7.003  14.272   9.149  0.0289 -0.0365  0.0003
  649ERGO    R410245   7.156  14.419   8.948 -0.1130  0.1356  0.0629
  649ERGO    R510246   6.943  14.435   8.985 -0.0366  0.2710  0.3408
  649ERGO    C110247   6.937  14.329   8.619 -0.6093  0.8718  0.1609
  649ERGO    C210248   6.875  14.235   8.245  0.1621  0.2909  0.1834
  650ERGO   ROH10249  17.559   2.287  10.420  0.2397  0.1256  0.0602
  650ERGO    R110250  17.458   2.369  10.169  0.1554  0.0831  0.0806
  650ERGO    R210251  17.516   2.616  10.059  0.1359  0.0540  0.0112
  650ERGO    R310252  17.596   2.466   9.846  0.0451  0.0065  0.0088
  650ERGO    R410253  17.445   2.688   9.728  0.3628  0.2290 -0.0030
  650ERGO    R510254  17.412   2.475   9.694  0.1151  0.2725 -0.0697
  650ERGO    C110255  17.479   2.589   9.336  0.4095  0.2865 -0.0134
  650ERGO    C210256  17.481   2.578   9.011 -0.1153 -0.3156  0.1701
  651ERGO   ROH10257   2.167   0.945  10.266 -0.0799  0.1306  0.1520
  651ERGO    R110258   1.994   0.893  10.048 -0.1211  0.2095  0.1653
  651ERGO    R210259   1.928   1.085   9.861  0.1746  0.1686  0.0123
  651ERGO    R310260   2.017   0.898   9.685 -0.0546 -0.0899  0.1626
  651ERGO    R410261   1.899   1.108   9.517  0.2705 -0.0388 -0.0110
  651ERGO    R510262   1.851   0.895   9.512 -0.0299  0.0199  0.1362
  651ERGO    C110263   1.966   0.945   9.152  0.1111 -0.4022  0.1166
  651ERGO    C210264   1.924   1.010   8.824  0.2051 -0.0357  0.2679
  652ERGO   ROH10265   0.561  15.381   9.923  0.1194 -0.1279  0.0835
  652ERGO    R110266   0.675  15.338   9.668  0.0722  0.0746  0.0267
  652ERGO    R210267   0.563  15.167   9.481  0.2224 -0.0439  0.0438
  652ERGO    R310268   0.575  15.387   9.321 -0.1417  0.0054  0.0772
  652ERGO    R410269   0.512  15.168   9.139  0.3815 -0.1106  0.0186
  652ERGO    R510270   0.675  15.310   9.119  0.1146  0.2253  0.1139
  652ERGO    C110271   0.492  15.375   8.790  0.1325 -0.1031  0.0353
  652ERGO    C210272   0.493  15.278   8.431  0.0530 -0.0556 -0.2684
  653ERGO   ROH10273   3.971  10.004   6.402 -0.0501  0.0458  0.1268
  653ERGO    R110274   3.907   9.882   6.650 -0.1575  0.1103  0.1311
  653ERGO    R210275   4.090   9.859   6.856 -0.1720 -0.0579  0.1243
  653ERGO    R310276   3.896   9.984   6.999 -0.0508  0.1286  0.1303
  653ERGO    R410277   4.073   9.868   7.201 -0.2207 -0.1601  0.1251
  653ERGO    R510278   3.858   9.840   7.186 -0.2574  0.1037  0.0740
  653ERGO    C110279   3.881   9.991   7.536 -0.1353 -0.0445  0.1312
  653ERGO    C210280   3.684  10.019   7.813 -0.0722 -0.0246 -0.2134
  654ERGO   ROH10281  10.051  14.996   9.977 -0.2097  0.1434 -0.2238
  654ERGO    R110282  10.074  15.109   9.718 -0.1298  0.0427 -0.2604
  654ERGO    R210283  10.303  15.086   9.565 -0.1203 -0.1074 -0.2221
  654ERGO    R310284  10.131  14.986   9.380 -0.1386 -0.1007 -0.2105
  654ERGO    R410285  10.333  15.131   9.224 -0.2939  0.1116 -0.2119
  654ERGO    R510286  10.117  15.158   9.214 -0.3139 -0.0112 -0.1046
  654ERGO    C110287  10.188  15.063   8.852 -0.4122  0.2452 -0.1949
  654ERGO    C210288  10.267  15.121   8.493  0.2748  0.0576 -0.1843
  655ERGO   ROH10289  14.550   3.451  10.059  0.4259  0.0356  0.1273
  655ERGO    R110290  14.539   3.593   9.815  0.2374  0.0241  0.1272
  655ERGO    R210291  14.763   3.641   9.660  0.1375  0.1093  0.0028
  655ERGO    R310292  14.613   3.524   9.465  0.0772  0.0418  0.0896
  655ERGO    R410293  14.832   3.656   9.322 -0.0134  0.0579 -0.0305
  655ERGO    R510294  14.619   3.681   9.284 -0.0333  0.0065  0.0567
  655ERGO    C110295  14.732   3.556   8.942 -0.1575 -0.0355  0.0315
  655ERGO    C210296  14.864   3.540   8.616 -0.0754 -0.1734 -0.2660
  656ERGO   ROH10297  15.192  14.724  10.354  0.0835  0.1365  0.0608
  656ERGO    R110298  15.245  14.843  10.103 -0.1244  0.2073  0.0491
  656ERGO    R210299  15.392  14.716   9.906 -0.0215  0.3878  0.0142
  656ERGO    R310300  15.173  14.769   9.754 -0.1247  0.1279  0.0643
  656ERGO    R410301  15.394  14.748   9.562 -0.2042  0.0110 -0.0283
  656ERGO    R510302  15.254  14.915   9.582 -0.2679 -0.0208 -0.1394
  656ERGO    C110303  15.189  14.817   9.219 -0.4075 -0.4525 -0.0059
  656ERGO    C210304  15.169  14.871   8.915 -0.0239 -0.0076  0.0493
  657ERGO   ROH10305   3.690   9.920  10.151  0.0827  0.2448 -0.0106
  657ERGO    R110306   3.837   9.982   9.917  0.1995 -0.1312 -0.0441
  657ERGO    R210307   3.901   9.792   9.727 -0.3348 -0.3128 -0.0633
  657ERGO    R310308   3.780   9.967   9.558  0.0703  0.0157 -0.0307
  657ERGO    R410309   3.861   9.743   9.387 -0.2005 -0.0114 -0.1257
  657ERGO    R510310   3.908   9.953   9.356  0.1812 -0.0639  0.0452
  657ERGO    C110311   3.724   9.878   9.030  0.2579  0.4725 -0.1316
  657ERGO    C210312   3.606   9.880   8.681  0.1998 -0.0031 -0.2271
  658ERGO   ROH10313  15.497  13.193   6.545  0.0508 -0.1447 -0.0348
  658ERGO    R110314  15.578  13.208   6.815 -0.0712  0.0348 -0.0067
  658ERGO    R210315  15.403  13.269   7.020 -0.2207 -0.0915 -0.0970
  658ERGO    R310316  15.496  13.037   7.126 -0.0028  0.0445  0.0175
  658ERGO    R410317  15.338  13.158   7.340 -0.3935 -0.1462 -0.1500
  658ERGO    R510318  15.545  13.090   7.354 -0.3063  0.1397  0.0650
  658ERGO    C110319  15.387  12.875   7.626 -0.2894 -0.0503 -0.0733
  658ERGO    C210320  15.164  12.768   8.016 -0.1365 -0.3019 -0.0041
  659ERGO   ROH10321   1.954   8.353   9.854 -0.0219  0.0102  0.0463
  659ERGO    R110322   2.019   8.283   9.587 -0.0205 -0.1842  0.0967
  659ERGO    R210323   1.842   8.154   9.420 -0.1437  0.0032  0.0837
  659ERGO    R310324   1.895   8.363   9.255  0.2157 -0.1317  0.0179
  659ERGO    R410325   1.784   8.156   9.079 -0.4973  0.1111  0.1398
  659ERGO    R510326   1.973   8.261   9.053 -0.2436 -0.3584 -0.0622
  659ERGO    C110327   1.800   8.354   8.726 -0.3657  0.0473  0.1105
  659ERGO    C210328   1.793   8.384   8.411  0.1767 -0.1799  0.0488
  660ERGO   ROH10329  11.045  14.500  10.072  0.3060 -0.0121  0.0034
  660ERGO    R110330  11.106  14.593   9.812  0.2656 -0.0603 -0.0247
  660ERGO    R210331  11.268  14.452   9.637  0.1444 -0.1517 -0.0709
  660ERGO    R310332  11.055  14.478   9.471  0.0984 -0.0641  0.0023
  660ERGO    R410333  11.288  14.492   9.295  0.0370 -0.1077 -0.0719
  660ERGO    R510334  11.126  14.637   9.306  0.0869 -0.0641  0.0021
  660ERGO    C110335  11.100  14.540   8.939 -0.0688  0.0003 -0.0037
  660ERGO    C210336  11.204  14.554   8.688 -0.1070  0.2282  0.1499
  661ERGO   ROH10337   7.494  10.256  10.147  0.2922 -0.2930  0.1407
  661ERGO    R110338   7.603  10.306   9.891  0.3327 -0.5133  0.1154
  661ERGO    R210339   7.584  10.126   9.683 -0.2838 -0.3890  0.0618
  661ERGO    R310340   7.478  10.339   9.551  0.2711 -0.0172  0.1750
  661ERGO    R410341   7.568  10.156   9.339 -0.4555 -0.3192  0.0731
  661ERGO    R510342   7.620  10.367   9.360  0.2369 -0.4557  0.0623
  661ERGO    C110343   7.459  10.374   9.015 -0.0346  0.0702  0.1857
  661ERGO    C210344   7.390  10.447   8.628 -0.3555  0.1527 -0.2479
  662ERGO   ROH10345   1.752   4.400  10.167  0.1684  0.0603  0.0472
  662ERGO    R110346   1.876   4.242   9.967  0.1318  0.1198 -0.0220
  662ERGO    R210347   1.732   4.094   9.784  0.0996  0.0800  0.0410
  662ERGO    R310348   1.882   4.232   9.604 -0.0371  0.1435 -0.0274
  662ERGO    R410349   1.750   4.023   9.446 -0.0206  0.0792  0.0334
  662ERGO    R510350   1.964   4.064   9.454 -0.0304  0.1722 -0.0603
  662ERGO    C110351   1.901   4.111   9.080 -0.2189  0.1384 -0.0352
  662ERGO    C210352   1.780   4.068   8.712  0.2486 -0.1936 -0.0994
  663ERGO   ROH10353   9.508  11.612  10.319 -0.1235  0.2460  0.1344
  663ERGO    R110354   9.559  11.508  10.060 -0.0068  0.2947  0.1371
  663ERGO    R210355   9.377  11.348   9.926  0.1583  0.1120  0.1299
  663ERGO    R310356   9.407  11.534   9.730 -0.0192  0.1421  0.1290
  663ERGO    R410357   9.348  11.287   9.587  0.3055  0.0568  0.1264
  663ERGO    R510358   9.518  11.418   9.553  0.1613  0.2605  0.1589
  663ERGO    C110359   9.359  11.426   9.206  0.2247  0.0529  0.1236
  663ERGO    C210360   9.343  11.446   8.901 -0.1615  0.2292  0.1458
  664ERGO   ROH10361   1.194   7.561  10.173 -0.1165  0.0914  0.1094
  664ERGO    R110362   1.238   7.433   9.924 -0.0347  0.2062  0.0638
  664ERGO    R210363   1.088   7.216   9.840  0.2535 -0.0123  0.0916
  664ERGO    R310364   1.045   7.372   9.622 -0.0876 -0.0260  0.1427
  664ERGO    R410365   1.042   7.099   9.518  0.4109 -0.0062  0.0662
  664ERGO    R510366   1.164   7.264   9.446  0.0872  0.2506  0.0872
  664ERGO    C110367   0.975   7.178   9.126  0.1823 -0.0155  0.0994
  664ERGO    C210368   0.972   7.238   8.837  0.2031  0.5269  0.0296
  665ERGO   ROH10369   5.513  13.870  10.218 -0.0985 -0.2663  0.1605
  665ERGO    R110370   5.357  13.748  10.015 -0.3603  0.0724  0.1460
  665ERGO    R210371   5.167  13.886   9.870  0.0351  0.5435  0.0348
  665ERGO    R310372   5.308  13.792   9.658 -0.1188  0.1041  0.1162
  665ERGO    R410373   5.061  13.900   9.541  0.1109  0.5099  0.0099
  665ERGO    R510374   5.142  13.700   9.512 -0.2827  0.3249  0.1649
  665ERGO    C110375   5.132  13.821   9.150  0.0106  0.0778  0.0717
  665ERGO    C210376   5.117  13.877   8.800 -0.0914  0.0535  0.3877
  666ERGO   ROH10377   7.140   4.921   9.629  0.1787 -0.0580  0.1332
  666ERGO    R110378   7.321   5.064   9.465  0.0489 -0.0092  0.0305
  666ERGO    R210379   7.592   5.079   9.520  0.0702  0.0934 -0.1020
  666ERGO    R310380   7.615   4.985   9.266 -0.0178  0.0772 -0.1046
  666ERGO    R410381   7.827   5.186   9.291  0.1008 -0.0383 -0.1329
  666ERGO    R510382   7.674   5.178   9.136  0.0730  0.0463 -0.1129
  666ERGO    C110383   7.987   5.161   8.919  0.0360 -0.1302 -0.1534
  666ERGO    C210384   8.006   5.188   8.665 -0.1247 -0.2301 -0.0680
  667ERGO   ROH10385  18.077  12.234  10.111 -0.2112  0.1410  0.0855
  667ERGO    R110386  18.117  12.161   9.841 -0.1872 -0.0509  0.1399
  667ERGO    R210387  17.907  12.122   9.665 -0.1618  0.2183  0.0543
  667ERGO    R310388  18.041  12.305   9.515  0.2232 -0.0720  0.0268
  667ERGO    R410389  17.926  12.119   9.320 -0.3252  0.2075  0.0445
  667ERGO    R510390  18.135  12.177   9.335 -0.1569 -0.2936 -0.0343
  667ERGO    C110391  18.062  12.290   8.978 -0.0588 -0.0712  0.0129
  667ERGO    C210392  17.842  12.183   8.713  0.0541 -0.0205  0.0652
  668ERGO   ROH10393  13.001  13.773   6.735 -0.2433  0.0084 -0.3752
  668ERGO    R110394  12.767  13.646   6.830 -0.2376  0.0550 -0.2974
  668ERGO    R210395  12.640  13.723   7.063 -0.0549 -0.0228 -0.1677
  668ERGO    R310396  12.423  13.743   6.900 -0.1513  0.1662 -0.0195
  668ERGO    R410397  12.320  13.624   7.148 -0.0104 -0.1023 -0.0911
  668ERGO    R510398  12.296  13.545   6.946 -0.1320  0.1216 -0.1649
  668ERGO    C110399  11.930  13.585   7.044 -0.0751  0.0289  0.0928
  668ERGO    C210400  11.748  13.327   7.077 -0.1043 -0.1268 -0.0097
  669ERGO   ROH10401  14.208   0.187  10.102 -0.0500  0.1827  0.0072
  669ERGO    R110402  14.305   0.311   9.866 -0.2672  0.1980 -0.0766
  669ERGO    R210403  14.474   0.182   9.689  0.0398  0.3973  0.0605
  669ERGO    R310404  14.283   0.252   9.508 -0.0854 -0.1478 -0.0349
  669ERGO    R410405  14.514   0.174   9.345  0.1018  0.1664  0.0717
  669ERGO    R510406  14.403   0.361   9.333 -0.2794 -0.0580 -0.1151
  669ERGO    C110407  14.358   0.234   8.976  0.0203 -0.4798 -0.0113
  669ERGO    C210408  14.347   0.065   8.686 -0.1739  0.0887  0.1541
  670ERGO   ROH10409   5.002  16.609  10.174  0.0136 -0.2699  0.0170
  670ERGO    R110410   4.997  16.790   9.956  0.0668 -0.1498  0.1145
  670ERGO    R210411   5.225  16.865   9.819  0.0813 -0.1936  0.1157
  670ERGO    R310412   5.084  16.780   9.603 -0.0011 -0.0056  0.0932
  670ERGO    R410413   5.281  16.968   9.494  0.2624 -0.2579  0.1250
  670ERGO    R510414   5.066  16.975   9.464  0.2718  0.0252  0.0943
  670ERGO    C110415   5.182  16.949   9.102  0.2905 -0.1187  0.1093
  670ERGO    C210416   5.128  16.913   8.690 -0.1528  0.0965 -0.3315
  671ERGO   ROH10417   3.960   1.515  10.320  0.1050  0.0080 -0.0483
  671ERGO    R110418   3.802   1.523  10.086  0.0651 -0.0825 -0.0272
  671ERGO    R210419   3.861   1.689   9.873 -0.1140  0.0281 -0.0036
  671ERGO    R310420   3.852   1.458   9.731  0.0873  0.0463 -0.0455
  671ERGO    R410421   3.817   1.669   9.531 -0.2343  0.0302  0.0126
  671ERGO    R510422   3.686   1.497   9.563 -0.0227 -0.1174  0.0328
  671ERGO    C110423   3.782   1.439   9.198 -0.1153  0.0485 -0.0173
  671ERGO    C210424   3.748   1.492   8.775 -0.4306  0.0160 -0.0811
  672ERGO   ROH10425   2.186  11.638   6.271  0.1846 -0.1015  0.0688
  672ERGO    R110426   2.241  11.603   6.546  0.0460 -0.0196  0.1077
  672ERGO    R210427   2.258  11.815   6.722  0.1159  0.0455  0.0203
  672ERGO    R310428   2.073  11.673   6.861 -0.0390  0.2322  0.0096
  672ERGO    R410429   2.222  11.821   7.066  0.2838 -0.1186  0.0424
  672ERGO    R510430   2.187  11.605   7.061 -0.0435 -0.0697 -0.0832
  672ERGO    C110431   2.027  11.690   7.397  0.2362 -0.0388  0.0452
  672ERGO    C210432   1.981  11.525   7.811 -0.1107  0.0476  0.1310
  673ERGO   ROH10433   2.977   6.301   9.958 -0.1018 -0.2014 -0.0623
  673ERGO    R110434   2.954   6.155   9.717 -0.3542 -0.1514 -0.0711
  673ERGO    R210435   2.747   6.195   9.538 -0.1738  0.3795 -0.1781
  673ERGO    R310436   2.951   6.231   9.361  0.0214 -0.1382 -0.0756
  673ERGO    R410437   2.711   6.199   9.194  0.0295  0.3600 -0.2005
  673ERGO    R510438   2.897   6.085   9.179 -0.2117 -0.0770 -0.0591
  673ERGO    C110439   2.881   6.234   8.828  0.3311 -0.1374 -0.1175
  673ERGO    C210440   2.863   6.283   8.542 -0.2640  0.0561  0.0324
  674PSPI    C110441   4.415   0.662   5.342 -0.2093  0.1102 -0.0769
  674PSPI    C210442   4.789   0.756   5.236 -0.1602 -0.1560 -0.1474
  674PSPI    C310443   4.488   1.006   5.152 -0.0159  0.0007 -0.2037
  674PSPI   PO410444   4.412   0.565   5.672  0.1850 -0.2992  0.2005
  674PSPI   GL110445   4.441   0.758   6.098 -0.0283  0.0211 -0.0269
  674PSPI   GL210446   4.614   1.078   6.144 -0.5803  0.2225 -0.2052
  674PSPI   C1A10447   4.535   0.756   6.562  0.0242 -0.3278 -0.0421
  674PSPI   C2A10448   4.729   0.601   7.008 -0.1813  0.0124 -0.5619
  674PSPI   C3A10449   4.875   0.512   7.531  0.1191  0.2968  0.4149
  674PSPI   C4A10450   5.035   0.229   7.882  0.1069 -0.2362  0.0861
  674PSPI   C1B10451   4.537   1.236   6.602 -0.3883 -0.0299  0.0576
  674PSPI   C2B10452   4.575   1.075   7.018 -0.1560  0.0298 -0.4435
  674PSPI   C3B10453   4.655   0.989   7.414  0.2535  0.0933 -0.2939
  674PSPI   C4B10454   4.705   0.855   7.930 -0.2478  0.2249  0.1872
  675PSPI    C110455   9.470  10.133   5.862  0.2204  0.4030  0.1523
  675PSPI    C210456   9.435   9.924   5.523 -0.0057  0.3075  0.2325
  675PSPI    C310457   9.482  10.321   5.509  0.0827  0.2927  0.0880
  675PSPI   PO410458   9.679  10.005   5.959  0.2505 -0.0415  0.1676
  675PSPI   GL110459   9.912   9.792   6.382 -0.4821 -0.0720  0.1856
  675PSPI   GL210460   9.652   9.625   6.573  0.3768 -0.1665 -0.1814
  675PSPI   C1A10461  10.093   9.865   6.747 -0.1668 -0.3307 -0.1754
  675PSPI   C2A10462  10.094   9.879   7.160  0.0079  0.2370 -0.0955
  675PSPI   C3A10463   9.957   9.731   7.570  0.1189  0.3457  0.1968
  675PSPI   C4A10464   9.710   9.882   7.990 -0.1453 -0.2100  0.0838
  675PSPI   C1B10465   9.349   9.477   6.827 -0.0690 -0.3814  0.1698
  675PSPI   C2B10466   9.119   9.430   7.250  0.0224  0.0715  0.1331
  675PSPI   C3B10467   8.740   9.514   7.582  0.0897 -0.0761  0.1477
  675PSPI   C4B10468   8.428   9.815   7.660 -0.3399  0.3625  0.2152
  676PSPI    C110469  17.722   5.003   5.802  0.1091 -0.2565  0.0964
  676PSPI    C210470  17.419   4.943   6.056 -0.0084  0.1574  0.0604
  676PSPI    C310471  17.399   4.801   5.682 -0.1704  0.2048  0.0504
  676PSPI   PO410472  17.947   4.857   5.919  0.1487 -0.1236  0.2076
  676PSPI   GL110473  18.188   4.852   6.218  0.2721 -0.4135 -0.1740
  676PSPI   GL210474  18.357   4.626   6.308 -0.2386 -0.3501  0.0721
  676PSPI   C1A10475  18.267   5.044   6.697  0.1519  0.2633  0.1171
  676PSPI   C2A10476  18.491   5.479   6.741 -0.1991 -0.1152 -0.3473
  676PSPI   C3A10477  18.821   5.880   6.846 -0.1530  0.3270  0.0815
  676PSPI   C4A10478  18.593   6.219   6.829  0.1296  0.0378 -0.1331
  676PSPI   C1B10479  18.540   4.542   6.717 -0.0167  0.3008  0.0093
  676PSPI   C2B10480  18.622   4.342   7.229 -0.2558 -0.0257 -0.1360
  676PSPI   C3B10481  18.495   3.916   7.323 -0.3735  0.0028 -0.0357
  676PSPI   C4B10482  18.483   3.674   7.806 -0.1123 -0.1427 -0.0003
  677PSPI    C110483   2.727   7.439   5.499 -0.1099 -0.2517  0.1523
  677PSPI    C210484   2.345   7.404   5.386 -0.0200 -0.0231 -0.2407
  677PSPI    C310485   2.504   7.767   5.444  0.1457 -0.1161 -0.1073
  677PSPI   PO410486   2.867   7.254   5.802  0.1151 -0.2820 -0.1163
  677PSPI   GL110487   2.695   7.246   6.155  0.0676 -0.0740 -0.0851
  677PSPI   GL210488   2.508   7.574   6.349  0.1784  0.0358  0.1978
  677PSPI   C1A10489   2.695   7.059   6.547 -0.2622 -0.0437 -0.0003
  677PSPI   C2A10490   2.756   6.881   6.961 -0.1278  0.1229  0.1394
  677PSPI   C3A10491   2.862   6.789   7.397 -0.1871  0.0909 -0.0250
  677PSPI   C4A10492   2.718   6.860   7.747 -0.2309 -0.2966  0.3584
  677PSPI   C1B10493   2.352   7.436   6.711 -0.0832  0.2574 -0.5203
  677PSPI   C2B10494   2.428   7.266   7.159  0.1203  0.2907 -0.0985
  677PSPI   C3B10495   2.285   6.952   7.359  0.0250 -0.2202 -0.2607
  677PSPI   C4B10496   2.197   6.673   7.809  0.2645 -0.3217  0.1462
  678PSPI    C110497  13.793   2.731   5.838  0.1014 -0.1603  0.0661
  678PSPI    C210498  13.871   2.487   5.531 -0.0128 -0.0191 -0.0770
  678PSPI    C310499  13.824   2.880   5.468  0.0112  0.0180  0.1286
  678PSPI   PO410500  13.543   2.604   5.951  0.0374 -0.0890  0.0354
  678PSPI   GL110501  13.401   2.414   6.326  0.0228  0.0554  0.0556
  678PSPI   GL210502  13.290   2.133   6.179  0.1635 -0.0088 -0.3138
  678PSPI   C1A10503  13.217   2.599   6.662 -0.0523 -0.0051 -0.2370
  678PSPI   C2A10504  13.218   2.949   7.026 -0.2809 -0.0182  0.2263
  678PSPI   C3A10505  13.247   3.430   7.112 -0.2643 -0.0097  0.1106
  678PSPI   C4A10506  13.263   3.802   7.367 -0.3167 -0.0621 -0.2896
  678PSPI   C1B10507  13.215   1.985   6.529 -0.1441 -0.1157  0.3497
  678PSPI   C2B10508  12.958   2.176   6.833  0.1006  0.2924  0.1904
  678PSPI   C3B10509  13.030   2.342   7.156 -0.1416 -0.1039  0.3847
  678PSPI   C4B10510  12.999   2.597   7.384  0.3542 -0.3448  0.0865
  679PSPI    C110511   8.034  13.499   5.838 -0.0603  0.0350  0.1383
  679PSPI    C210512   7.982  13.858   6.007  0.1076  0.0252  0.2135
  679PSPI    C310513   8.050  13.830   5.613 -0.0269  0.0664  0.1867
  679PSPI   PO410514   8.168  13.291   6.003 -0.3011 -0.0181 -0.1253
  679PSPI   GL110515   8.341  13.226   6.391 -0.0750  0.2238  0.0176
  679PSPI   GL210516   8.541  13.359   6.605 -0.2576  0.2326 -0.1442
  679PSPI   C1A10517   8.285  12.920   6.710 -0.1163 -0.1250 -0.1991
  679PSPI   C2A10518   8.048  12.701   6.885  0.0678  0.1461  0.0954
  679PSPI   C3A10519   7.866  12.686   7.310  0.1497 -0.0020 -0.0928
  679PSPI   C4A10520   7.577  12.459   7.570 -0.0151  0.0394 -0.3986
  679PSPI   C1B10521   8.421  13.483   7.071 -0.1697 -0.1148  0.0332
  679PSPI   C2B10522   8.164  13.562   7.418 -0.4048 -0.0576  0.2573
  679PSPI   C3B10523   8.329  13.827   7.793  0.0039 -0.0071 -0.1383
  679PSPI   C4B10524   8.629  14.202   7.818 -0.2362  0.3614 -0.0405
  680PSPI    C110525   8.380   0.813   5.414  0.1496  0.1057  0.1863
  680PSPI    C210526   8.183   0.544   5.193  0.0749  0.0753  0.2896
  680PSPI    C310527   8.144   0.935   5.115 -0.1033  0.0748  0.3703
  680PSPI   PO410528   8.370   0.662   5.673 -0.0599  0.0568  0.1019
  680PSPI   GL110529   8.559   0.782   6.002 -0.0861  0.1712 -0.2859
  680PSPI   GL210530   8.942   0.678   5.926  0.3218 -0.0182  0.3468
  680PSPI   C1A10531   8.630   0.542   6.302  0.0595  0.1372 -0.2294
  680PSPI   C2A10532   8.530   0.353   6.702 -0.0443 -0.3629 -0.2136
  680PSPI   C3A10533   8.604   0.029   6.990 -0.1700  0.1109 -0.2021
  680PSPI   C4A10534   8.367  -0.019   7.288 -0.2623 -0.1475  0.0538
  680PSPI   C1B10535   9.218   0.695   6.348  0.1455  0.1563 -0.2159
  680PSPI   C2B10536   9.339   0.847   6.792  0.4337  0.0034 -0.1240
  680PSPI   C3B10537   9.624   0.877   7.186  0.1089  0.0506 -0.1078
  680PSPI   C4B10538  10.051   0.887   7.282  0.0941  0.0907  0.1466
  681PSPI    C110539   0.495   0.927   5.953 -0.0595  0.1889  0.3413
  681PSPI    C210540   0.534   0.552   6.087  0.1677  0.0852 -0.0030
  681PSPI    C310541   0.236   0.645   5.837  0.2741  0.0660 -0.1390
  681PSPI   PO410542   0.656   1.133   6.171 -0.0930 -0.1366 -0.0420
  681PSPI   GL110543   0.872   1.319   6.492  0.0025 -0.0779 -0.0234
  681PSPI   GL210544   0.717   1.530   6.634  0.3958  0.0984  0.2035
  681PSPI   C1A10545   1.202   1.386   6.675 -0.1409 -0.1554 -0.1837
  681PSPI   C2A10546   1.421   1.108   6.879 -0.2514 -0.0820  0.0480
  681PSPI   C3A10547   1.410   0.966   7.232 -0.0667  0.0974  0.3536
  681PSPI   C4A10548   1.650   0.953   7.690  0.2340  0.3286 -0.0009
  681PSPI   C1B10549   0.679   1.739   6.975  0.0322 -0.0188  0.2269
  681PSPI   C2B10550   0.695   1.706   7.412  0.1903  0.0393 -0.0628
  681PSPI   C3B10551   0.978   1.479   7.636  0.1476  0.1195 -0.2065
  681PSPI   C4B10552   1.355   1.378   7.530 -0.1440  0.0060 -0.0566
  682PSPI    C110553   2.983   0.953   5.962  0.0058 -0.0441 -0.2245
  682PSPI    C210554   3.262   0.755   6.170 -0.1189  0.0078 -0.0056
  682PSPI    C310555   3.102   0.590   5.843  0.0977 -0.0635 -0.0767
  682PSPI   PO410556   3.157   1.180   5.878  0.0282 -0.0033 -0.0980
  682PSPI   GL110557   3.335   1.297   6.245 -0.1126  0.1220 -0.1327
  682PSPI   GL210558   3.447   1.210   6.533  0.0181 -0.1478  0.2576
  682PSPI   C1A10559   3.243   1.710   6.473  0.2202 -0.0366  0.0078
  682PSPI   C2A10560   3.059   1.840   6.852 -0.2579 -0.0522 -0.0689
  682PSPI   C3A10561   3.121   2.169   7.107 -0.2027 -0.2552  0.0951
  682PSPI   C4A10562   3.418   2.491   7.258  0.2996 -0.2560 -0.4147
  682PSPI   C1B10563   3.608   1.443   6.673 -0.3780 -0.0670 -0.1520
  682PSPI   C2B10564   3.561   1.481   7.097 -0.1999  0.0663 -0.1700
  682PSPI   C3B10565   3.858   1.508   7.488  0.3192  0.1285  0.1349
  682PSPI   C4B10566   3.959   1.490   7.955 -0.0257 -0.3166 -0.1909
  683PSPI    C110567   7.429   8.643   5.416  0.0529 -0.1505  0.2641
  683PSPI    C210568   7.786   8.653   5.237  0.0152  0.1415  0.2005
  683PSPI    C310569   7.470   8.503   5.043  0.0947 -0.0876  0.2450
  683PSPI   PO410570   7.398   8.554   5.683  0.0843 -0.1065  0.2452
  683PSPI   GL110571   7.167   8.645   6.043 -0.0524  0.0302  0.0331
  683PSPI   GL210572   6.854   8.451   6.110  0.0771 -0.4176  0.3680
  683PSPI   C1A10573   7.361   8.309   6.359  0.0726  0.0081 -0.1308
  683PSPI   C2A10574   7.376   8.307   6.635 -0.1574 -0.3141 -0.3196
  683PSPI   C3A10575   7.421   8.592   7.030 -0.1540  0.2618 -0.0537
  683PSPI   C4A10576   7.449   9.109   7.091  0.1441 -0.0226  0.1675
  683PSPI   C1B10577   6.899   8.164   6.481 -0.5478 -0.2815  0.1406
  683PSPI   C2B10578   6.935   8.200   6.904 -0.0281 -0.0829  0.0602
  683PSPI   C3B10579   6.796   8.143   7.284  0.1083  0.1894  0.1932
  683PSPI   C4B10580   6.922   8.112   7.723  0.0852 -0.0806 -0.1442
  684PSPI    C110581  12.633  17.967   5.316 -0.0491 -0.2677  0.0394
  684PSPI    C210582  13.001  18.113   5.260 -0.1629  0.1296  0.2852
  684PSPI    C310583  12.736  18.119   4.961 -0.0237 -0.0054  0.1570
  684PSPI   PO410584  12.526  17.991   5.633 -0.0849  0.0485  0.0870
  684PSPI   GL110585  12.407  17.972   6.108  0.1385 -0.2545 -0.0124
  684PSPI   GL210586  12.635  18.264   6.104  0.0507  0.0476  0.1196
  684PSPI   C1A10587  12.232  18.183   6.424 -0.3342  0.0939 -0.4138
  684PSPI   C2A10588  12.288  18.306   6.905  0.3667  0.0528  0.0815
  684PSPI   C3A10589  12.341  17.994   7.274 -0.0771  0.1692  0.0998
  684PSPI   C4A10590  12.428  17.776   7.513  0.2303  0.0071  0.1911
  684PSPI   C1B10591  12.642  18.464   6.515  0.1422 -0.1039  0.2335
  684PSPI   C2B10592  12.603  18.688   6.911 -0.0331  0.1949  0.0559
  684PSPI   C3B10593  12.290  18.667   7.285  0.1073 -0.0808  0.3490
  684PSPI   C4B10594  11.953  18.362   7.355 -0.3113 -0.0421  0.0301
  685PSPI    C110595   0.853  11.903   5.306 -0.0474 -0.2578 -0.1723
  685PSPI    C210596   0.579  12.185   5.381 -0.0832 -0.3618  0.1037
  685PSPI    C310597   0.513  11.912   5.096 -0.0285 -0.0688 -0.1965
  685PSPI   PO410598   0.882  11.906   5.651 -0.1717  0.1619 -0.0423
  685PSPI   GL110599   0.682  11.851   6.051  0.0735  0.2205  0.0147
  685PSPI   GL210600   0.656  11.607   6.277 -0.2671 -0.2873  0.1326
  685PSPI   C1A10601   0.777  12.150   6.466 -0.2510 -0.1944 -0.2896
  685PSPI   C2A10602   0.617  12.340   6.770 -0.0592 -0.1102 -0.0895
  685PSPI   C3A10603   0.488  12.675   7.008 -0.3388  0.1069  0.0118
  685PSPI   C4A10604   0.552  12.642   7.394 -0.1252 -0.0371 -0.0125
  685PSPI   C1B10605   0.801  11.673   6.620 -0.0197  0.0323  0.0157
  685PSPI   C2B10606   0.837  11.771   7.025  0.4175  0.1992 -0.0619
  685PSPI   C3B10607   0.992  11.953   7.399 -0.4378 -0.2575  0.1133
  685PSPI   C4B10608   0.835  12.226   7.588  0.1869 -0.4728 -0.1211
  686PSPI    C110609   5.533   4.495   5.734  0.0874 -0.0144 -0.0166
  686PSPI    C210610   5.565   4.233   6.035 -0.0246  0.1416  0.1330
  686PSPI    C310611   5.810   4.207   5.720  0.0616 -0.0527  0.2146
  686PSPI   PO410612   5.460   4.681   5.799 -0.2899  0.0884  0.0282
  686PSPI   GL110613   5.368   4.715   6.320  0.3251 -0.0355 -0.3133
  686PSPI   GL210614   5.404   5.067   6.070  0.3655 -0.3102 -0.1436
  686PSPI   C1A10615   5.174   4.812   6.793  0.1315  0.0423  0.2298
  686PSPI   C2A10616   5.192   4.920   7.196 -0.0871  0.2993  0.0101
  686PSPI   C3A10617   5.189   5.082   7.623 -0.0927 -0.0592 -0.0436
  686PSPI   C4A10618   5.336   5.385   8.065  0.3136 -0.2399  0.0710
  686PSPI   C1B10619   5.426   5.272   6.442 -0.1011  0.0386 -0.3072
  686PSPI   C2B10620   5.549   5.509   6.779  0.1314 -0.3679 -0.1239
  686PSPI   C3B10621   5.428   5.940   6.983  0.3479 -0.2584  0.3375
  686PSPI   C4B10622   5.276   6.239   7.165 -0.6515 -0.0864  0.1288
  687PSPI    C110623  13.908  13.368   5.938  0.0532  0.3440  0.0119
  687PSPI    C210624  14.210  13.416   5.680  0.0036 -0.0155 -0.1196
  687PSPI    C310625  13.925  13.146   5.605 -0.0280 -0.1042  0.2982
  687PSPI   PO410626  13.980  13.238   6.171 -0.0192  0.1943  0.3212
  687PSPI   GL110627  13.708  13.251   6.523  0.1573  0.2094  0.1328
  687PSPI   GL210628  14.066  13.446   6.682 -0.0769  0.0323 -0.0586
  687PSPI   C1A10629  13.497  13.303   7.065  0.2718  0.2209  0.3270
  687PSPI   C2A10630  13.629  13.286   7.465 -0.0473  0.0863  0.1304
  687PSPI   C3A10631  13.912  13.222   7.702 -0.2972 -0.0468  0.0498
  687PSPI   C4A10632  14.305  13.496   7.813 -0.0529 -0.1552  0.1125
  687PSPI   C1B10633  14.441  13.322   6.824  0.0789  0.2104 -0.0546
  687PSPI   C2B10634  14.736  13.652   6.976 -0.0943  0.2049  0.0144
  687PSPI   C3B10635  15.100  13.594   7.216 -0.0904  0.1523  0.2369
  687PSPI   C4B10636  15.454  13.687   7.525  0.1285  0.1374 -0.0585
  688PSPI    C110637   0.092  15.803   6.058  0.1342  0.2912 -0.1262
  688PSPI    C210638  -0.190  16.060   6.178 -0.0283  0.0823 -0.0544
  688PSPI    C310639  -0.243  15.846   5.844 -0.0602 -0.1254  0.0819
  688PSPI   PO410640   0.334  15.955   6.161  0.0022  0.1153  0.2911
  688PSPI   GL110641   0.514  16.135   6.570 -0.0773 -0.1386  0.0915
  688PSPI   GL210642   0.759  16.031   6.390 -0.0007 -0.1408 -0.0510
  688PSPI   C1A10643   0.630  16.287   6.996  0.1829 -0.0167  0.2510
  688PSPI   C2A10644   0.646  16.393   7.415  0.3804  0.1579  0.0156
  688PSPI   C3A10645   0.654  16.511   7.795 -0.0343 -0.1611  0.1540
  688PSPI   C4A10646   0.734  16.633   8.299 -0.1547  0.0905  0.1926
  688PSPI   C1B10647   0.948  15.844   6.695  0.1239 -0.0022  0.0156
  688PSPI   C2B10648   0.823  15.886   7.154 -0.1815 -0.1168 -0.1834
  688PSPI   C3B10649   0.590  15.813   7.540 -0.1204 -0.2865 -0.0623
  688PSPI   C4B10650   0.428  16.082   7.777 -0.1910  0.1468 -0.3235
  689PSPI    C110651  12.767   4.640   5.953  0.0732  0.2032  0.1744
  689PSPI    C210652  13.059   4.765   5.710  0.0197  0.3503  0.1850
  689PSPI    C310653  13.149   4.562   6.043  0.0821 -0.0519 -0.0706
  689PSPI   PO410654  12.620   4.928   5.965  0.0076 -0.1998  0.1138
  689PSPI   GL110655  12.452   5.365   6.170 -0.0736 -0.1520 -0.1051
  689PSPI   GL210656  12.377   5.059   6.377  0.2221  0.1623 -0.4774
  689PSPI   C1A10657  12.470   5.463   6.648 -0.0043  0.0398  0.2449
  689PSPI   C2A10658  12.496   5.659   7.117 -0.0501 -0.1176 -0.0430
  689PSPI   C3A10659  12.132   5.664   7.273 -0.0867 -0.6263  0.1376
  689PSPI   C4A10660  11.902   5.767   7.622 -0.0774  0.0428  0.1533
  689PSPI   C1B10661  12.202   4.879   6.701 -0.0010  0.1549  0.3177
  689PSPI   C2B10662  11.876   4.800   6.965 -0.1715  0.1238  0.0152
  689PSPI   C3B10663  11.464   4.965   6.951  0.0342 -0.0327 -0.1334
  689PSPI   C4B10664  11.253   5.120   7.100  0.1299 -0.2610  0.0490
  690PSPI    C110665   0.896  16.195   5.915  0.0540  0.0906  0.0745
  690PSPI    C210666   0.847  16.285   5.528 -0.1566  0.2718  0.1416
  690PSPI    C310667   0.539  16.145   5.741  0.0560 -0.1994  0.1500
  690PSPI   PO410668   1.165  16.203   6.066 -0.2250 -0.0792 -0.2873
  690PSPI   GL110669   1.242  16.189   6.467  0.0205 -0.3044 -0.0984
  690PSPI   GL210670   1.448  15.904   6.584  0.0759 -0.0232  0.0188
  690PSPI   C1A10671   1.517  16.442   6.595 -0.0505  0.0358 -0.1979
  690PSPI   C2A10672   1.641  16.515   7.063  0.2343 -0.0482  0.3641
  690PSPI   C3A10673   1.469  16.478   7.509  0.0344  0.1425 -0.0202
  690PSPI   C4A10674   1.224  16.362   8.030  0.0563 -0.0430  0.0606
  690PSPI   C1B10675   1.320  16.100   6.957 -0.3861  0.0228  0.0041
  690PSPI   C2B10676   1.137  16.122   7.393  0.0345 -0.3788 -0.3683
  690PSPI   C3B10677   1.001  16.170   7.667  0.1041 -0.0678 -0.3323
  690PSPI   C4B10678   0.776  16.157   8.140 -0.0403  0.1383 -0.1520
  691PSPI    C110679  13.030   3.685   5.611 -0.0694  0.1922  0.0978
  691PSPI    C210680  13.214   3.586   5.270 -0.0439  0.1313  0.1292
  691PSPI    C310681  13.114   3.967   5.339 -0.1655  0.1245 -0.0032
  691PSPI   PO410682  13.101   3.467   5.828 -0.3017  0.1902 -0.1077
  691PSPI   GL110683  12.911   3.325   6.173  0.0620 -0.3062  0.2501
  691PSPI   GL210684  12.789   3.723   6.212  0.3538 -0.0335  0.4760
  691PSPI   C1A10685  13.077   3.133   6.615  0.1330 -0.2474 -0.2239
  691PSPI   C2A10686  12.737   3.062   6.979  0.0972 -0.2708 -0.0744
  691PSPI   C3A10687  12.492   3.131   7.288 -0.0284 -0.0251  0.2189
  691PSPI   C4A10688  12.275   3.436   7.582  0.2287 -0.3437  0.1054
  691PSPI   C1B10689  12.782   3.536   6.630 -0.0619 -0.0165 -0.3091
  691PSPI   C2B10690  12.660   3.536   7.067  0.1033 -0.1739 -0.0360
  691PSPI   C3B10691  12.848   3.532   7.437  0.2899 -0.0896  0.3377
  691PSPI   C4B10692  12.852   4.014   7.654 -0.0162  0.0706 -0.1604
  692PSPI    C110693  12.300  15.628   5.835 -0.1395  0.1268  0.1889
  692PSPI    C210694  12.098  15.443   5.543 -0.0173 -0.0860  0.2369
  692PSPI    C310695  12.457  15.307   5.656  0.1085  0.2257  0.2245
  692PSPI   PO410696  12.067  15.706   6.099  0.1433 -0.3320  0.1548
  692PSPI   GL110697  12.154  15.622   6.547  0.0744  0.4942 -0.3627
  692PSPI   GL210698  12.491  15.536   6.787  0.0308  0.1871 -0.2586
  692PSPI   C1A10699  12.090  15.719   7.014 -0.0353  0.2469 -0.2582
  692PSPI   C2A10700  12.134  15.906   7.396  0.3074 -0.0442 -0.1133
  692PSPI   C3A10701  12.273  16.287   7.671 -0.0636 -0.3875 -0.0566
  692PSPI   C4A10702  12.498  16.387   7.975 -0.1602 -0.1151 -0.4559
  692PSPI   C1B10703  12.585  15.890   7.094 -0.0997  0.0728 -0.1885
  692PSPI   C2B10704  12.621  16.300   7.355  0.1708  0.1979  0.2546
  692PSPI   C3B10705  12.622  16.694   7.604  0.4457 -0.1407  0.1656
  692PSPI   C4B10706  12.304  16.942   7.692 -0.0731 -0.0473 -0.1349
  693POPI    C110707  15.395   2.240   5.852 -0.2269 -0.0786 -0.0487
  693POPI    C210708  15.313   1.889   5.679 -0.1944 -0.0956 -0.0301
  693POPI    C310709  15.250   2.230   5.479  0.2265 -0.1292 -0.2309
  693POPI   PO410710  15.290   2.233   6.065  0.0097  0.3276  0.2526
  693POPI   GL110711  15.306   2.099   6.559 -0.1979 -0.0264 -0.1622
  693POPI   GL210712  15.408   2.376   6.523 -0.2901 -0.0959 -0.0761
  693POPI   C1A10713  15.234   2.032   6.935  0.0034  0.0515  0.0269
  693POPI   D2A10714  15.092   1.997   7.406 -0.1533  0.0731 -0.4182
  693POPI   C3A10715  15.349   2.074   7.702  0.1444 -0.1029  0.2296
  693POPI   C4A10716  15.661   1.741   7.957  0.2088 -0.3469  0.2163
  693POPI   C1B10717  15.639   2.321   6.937  0.0635 -0.1858  0.2159
  693POPI   C2B10718  15.614   2.071   7.215  0.1981 -0.1352  0.2068
  693POPI   C3B10719  15.525   1.667   7.469  0.2012  0.0303  0.1096
  693POPI   C4B10720  15.729   1.350   7.714  0.1479  0.1765  0.0088
  694POPI    C110721  15.829  15.208   6.263  0.0110  0.2170 -0.0950
  694POPI    C210722  15.882  15.297   5.877  0.2304  0.1914 -0.0721
  694POPI    C310723  16.172  15.373   6.141  0.1221  0.1123  0.0712
  694POPI   PO410724  15.829  14.982   6.308 -0.0650  0.4408 -0.3415
  694POPI   GL110725  15.558  14.886   6.711  0.1823  0.2345  0.1277
  694POPI   GL210726  15.693  14.980   6.946 -0.4921 -0.0152  0.1771
  694POPI   C1A10727  15.249  15.124   6.834  0.0804 -0.0069 -0.0593
  694POPI   D2A10728  15.278  15.566   6.750  0.1449 -0.1304  0.1642
  694POPI   C3A10729  15.005  15.900   6.828 -0.1248  0.2376 -0.3392
  694POPI   C4A10730  14.647  16.221   6.887 -0.1945 -0.2883  0.2262
  694POPI   C1B10731  15.822  15.052   7.309  0.0587  0.1364  0.3040
  694POPI   C2B10732  15.948  15.089   7.815 -0.3031  0.1758  0.1422
  694POPI   C3B10733  15.963  15.458   7.988 -0.2747  0.1672 -0.0305
  694POPI   C4B10734  15.836  15.859   7.941  0.0734 -0.2087  0.0412
  695POPI    C110735   0.985   8.487   5.752  0.2518 -0.1523 -0.2421
  695POPI    C210736   0.617   8.594   5.636  0.2410  0.1105  0.0217
  695POPI    C310737   0.716   8.207   5.655  0.0478  0.0443 -0.2545
  695POPI   PO410738   1.031   8.730   5.884  0.3406 -0.0114  0.0206
  695POPI   GL110739   1.176   8.879   6.289  0.2555 -0.0958  0.2699
  695POPI   GL210740   0.782   8.897   6.468 -0.5261 -0.1051  0.3651
  695POPI   C1A10741   1.252   9.078   6.539 -0.2886  0.0901  0.2634
  695POPI   D2A10742   1.177   9.203   6.999  0.0855 -0.2381 -0.0091
  695POPI   C3A10743   0.772   9.431   7.014 -0.1029  0.1350 -0.0319
  695POPI   C4A10744   0.362   9.540   7.108  0.0198  0.1002  0.1143
  695POPI   C1B10745   1.095   8.697   6.845 -0.2357 -0.2273  0.4815
  695POPI   C2B10746   1.271   8.460   7.065  0.0697 -0.2354 -0.0816
  695POPI   C3B10747   1.339   8.066   7.241 -0.0359  0.0983 -0.3242
  695POPI   C4B10748   1.528   7.682   7.149 -0.1577  0.1180 -0.4901
  696POPI    C110749  12.984  18.141   5.754 -0.4410 -0.0838 -0.1364
  696POPI    C210750  13.177  18.453   5.596 -0.1696 -0.0246  0.2938
  696POPI    C310751  12.777  18.442   5.591 -0.1735  0.0614 -0.2139
  696POPI   PO410752  13.250  18.074   5.974  0.3513 -0.3967  0.0212
  696POPI   GL110753  13.059  18.158   6.392  0.0095 -0.1343 -0.0706
  696POPI   GL210754  12.975  17.878   6.465  0.1421 -0.0261 -0.2005
  696POPI   C1A10755  13.075  18.434   6.730 -0.0675 -0.1326 -0.4952
  696POPI   D2A10756  13.415  18.631   6.960  0.0632  0.0556  0.0386
  696POPI   C3A10757  13.208  18.994   7.203 -0.1137  0.3767  0.1793
  696POPI   C4A10758  12.805  19.189   7.291  0.0778  0.0309  0.1714
  696POPI   C1B10759  12.486  17.764   6.559  0.1977  0.4758  0.3437
  696POPI   C2B10760  12.122  17.732   6.563  0.0446  0.0888 -0.2452
  696POPI   C3B10761  12.019  17.724   7.079  0.3420 -0.0988  0.1758
  696POPI   C4B10762  12.013  17.373   7.493  0.4161  0.1921  0.0991
  697POPI    C110763  14.689  11.149   5.763 -0.0194  0.4130 -0.0386
  697POPI    C210764  14.305  11.229   5.685 -0.0760  0.2550  0.0721
  697POPI    C310765  14.555  11.137   5.387 -0.0992  0.4578 -0.0119
  697POPI   PO410766  14.885  11.301   5.817 -0.1707  0.0096  0.0816
  697POPI   GL110767  15.218  11.427   6.188  0.3205 -0.0234 -0.0381
  697POPI   GL210768  15.403  11.681   6.189  0.0570 -0.2537  0.1408
  697POPI   C1A10769  15.218  11.376   6.618 -0.2419 -0.0708 -0.1654
  697POPI   D2A10770  15.300  11.381   7.167 -0.1335 -0.0225 -0.4400
  697POPI   C3A10771  15.346  11.700   7.486 -0.0950 -0.0381 -0.1693
  697POPI   C4A10772  15.623  12.001   7.668  0.0855  0.2444  0.0030
  697POPI   C1B10773  15.490  11.747   6.681  0.0121  0.2683 -0.1160
  697POPI   C2B10774  15.689  11.711   7.141 -0.0262 -0.0607  0.0866
  697POPI   C3B10775  15.856  11.558   7.552  0.1353  0.0344  0.1081
  697POPI   C4B10776  15.821  11.641   7.913  0.0820  0.1906  0.1050
  698POPI    C110777   5.870  14.084   5.478 -0.0467  0.0916 -0.0101
  698POPI    C210778   5.576  13.812   5.474 -0.0855  0.1322  0.0476
  698POPI    C310779   5.934  13.723   5.319 -0.1973  0.1614 -0.2347
  698POPI   PO410780   5.927  14.284   5.783 -0.2965 -0.2276 -0.1422
  698POPI   GL110781   6.126  14.181   6.060 -0.1720 -0.0641 -0.0140
  698POPI   GL210782   5.979  14.402   6.310 -0.2264 -0.3153 -0.1427
  698POPI   C1A10783   6.406  14.594   6.293  0.2902 -0.0048 -0.1865
  698POPI   D2A10784   6.840  14.634   6.463  0.2571 -0.2696 -0.0568
  698POPI   C3A10785   6.788  14.683   6.955 -0.3080 -0.1673 -0.1380
  698POPI   C4A10786   6.800  14.737   7.335 -0.0133  0.1244 -0.2794
  698POPI   C1B10787   5.617  14.376   6.616  0.1945  0.1652 -0.0081
  698POPI   C2B10788   5.670  14.320   7.134  0.0325  0.0920 -0.2622
  698POPI   C3B10789   5.673  14.476   7.480  0.0182 -0.3106 -0.0136
  698POPI   C4B10790   5.794  14.472   7.768 -0.0431  0.1393 -0.1281
  699POPI    C110791   8.642   2.168   5.576  0.1812  0.0325 -0.1208
  699POPI    C210792   8.283   2.026   5.681  0.2251  0.1417  0.1881
  699POPI    C310793   8.311   2.327   5.418  0.1123 -0.1271 -0.1388
  699POPI   PO410794   8.796   1.939   5.572  0.0189 -0.3139  0.1229
  699POPI   GL110795   9.022   1.961   5.967  0.2624  0.2233 -0.2230
  699POPI   GL210796   8.732   1.957   6.034 -0.2052 -0.0183  0.0590
  699POPI   C1A10797   8.948   2.188   6.424 -0.1064 -0.0227 -0.0969
  699POPI   D2A10798   9.214   2.303   6.699 -0.2014 -0.0281 -0.1081
  699POPI   C3A10799   9.586   2.288   6.615 -0.2833  0.1218 -0.0276
  699POPI   C4A10800  10.015   2.538   6.613  0.0188 -0.1702 -0.1719
  699POPI   C1B10801   8.487   2.109   6.232  0.0214  0.3458 -0.0910
  699POPI   C2B10802   8.310   2.014   6.591  0.0003  0.5089 -0.2942
  699POPI   C3B10803   8.349   1.685   6.918  0.0296  0.1416  0.1478
  699POPI   C4B10804   8.524   1.207   6.906 -0.0490  0.0318  0.0829
  700POPI    C110805  16.465  15.708   5.818 -0.1781  0.0544 -0.0396
  700POPI    C210806  16.812  15.554   5.693 -0.0355  0.2410  0.1201
  700POPI    C310807  16.496  15.315   5.750  0.0647  0.0704 -0.0289
  700POPI   PO410808  16.507  15.857   6.007 -0.2024  0.1328 -0.2043
  700POPI   GL110809  16.625  15.896   6.348 -0.0419 -0.2712 -0.1389
  700POPI   GL210810  16.287  16.017   6.430  0.2306 -0.1575 -0.1245
  700POPI   C1A10811  16.423  15.470   6.559 -0.0296  0.1212  0.0208
  700POPI   D2A10812  16.219  15.190   6.713  0.2007 -0.0429  0.3027
  700POPI   C3A10813  16.264  14.941   7.065  0.0631  0.0215  0.0049
  700POPI   C4A10814  16.294  14.967   7.462 -0.1165 -0.0442  0.0885
  700POPI   C1B10815  16.524  16.038   6.884 -0.0120  0.0141 -0.2646
  700POPI   C2B10816  16.646  15.818   7.133 -0.2673  0.0736  0.1563
  700POPI   C3B10817  16.760  15.925   7.491 -0.0069  0.0596 -0.3944
  700POPI   C4B10818  16.767  15.769   7.943  0.0165  0.0869 -0.1300
  701POPI    C110819   6.310   4.987   5.226 -0.1205  0.1003 -0.0669
  701POPI    C210820   6.096   5.302   5.105 -0.2270  0.0700  0.0399
  701POPI    C310821   5.969   4.932   5.025  0.0568  0.0529 -0.3598
  701POPI   PO410822   6.363   4.994   5.531 -0.1389  0.0510  0.0056
  701POPI   GL110823   6.455   4.730   5.865  0.0266 -0.2577 -0.1623
  701POPI   GL210824   6.583   4.512   5.956  0.0227  0.0971  0.1462
  701POPI   C1A10825   6.461   5.100   6.179 -0.2232 -0.1113  0.1709
  701POPI   D2A10826   6.504   5.152   6.671 -0.1338 -0.3396  0.1096
  701POPI   C3A10827   6.725   4.865   7.032 -0.0163  0.0430  0.1537
  701POPI   C4A10828   6.509   4.794   7.455  0.2775  0.0270  0.0211
  701POPI   C1B10829   6.556   4.607   6.353  0.1693 -0.3525 -0.0365
  701POPI   C2B10830   6.397   4.542   6.715 -0.0798  0.1602 -0.0241
  701POPI   C3B10831   6.182   4.644   7.062 -0.1830 -0.0265 -0.2586
  701POPI   C4B10832   6.028   4.835   7.505  0.0850  0.0364  0.3622
  702POPI    C110833  11.361   2.753   5.169 -0.0162  0.0872  0.0799
  702POPI    C210834  11.594   2.461   5.025  0.0681  0.3588 -0.3536
  702POPI    C310835  11.206   2.473   4.928 -0.1239 -0.0453  0.3000
  702POPI   PO410836  11.492   2.778   5.454 -0.1585  0.0832  0.0952
  702POPI   GL110837  11.760   2.726   5.773  0.3124 -0.2383  0.0498
  702POPI   GL210838  12.051   2.736   5.850  0.0621  0.2076  0.0743
  702POPI   C1A10839  11.545   2.651   6.166 -0.2184  0.0079 -0.0089
  702POPI   D2A10840  11.378   2.653   6.510 -0.0274 -0.0194 -0.1263
  702POPI   C3A10841  11.713   2.560   6.813  0.1454  0.0182 -0.2347
  702POPI   C4A10842  11.608   2.519   7.226  0.1741 -0.2752 -0.0406
  702POPI   C1B10843  12.271   2.824   6.185 -0.0124  0.3737 -0.0726
  702POPI   C2B10844  12.617   2.767   6.508  0.2426 -0.2294 -0.1402
  702POPI   C3B10845  12.669   2.595   6.931  0.1645  0.1767 -0.0141
  702POPI   C4B10846  12.468   2.665   7.296  0.1976  0.0643  0.1699
  703POPI    C110847   5.908   9.266   5.468 -0.1569 -0.1230 -0.2151
  703POPI    C210848   5.803   9.478   5.146 -0.0054  0.4720  0.1121
  703POPI    C310849   6.148   9.276   5.148 -0.2063  0.1085 -0.2464
  703POPI   PO410850   5.650   9.161   5.544  0.0142 -0.0718  0.3160
  703POPI   GL110851   5.512   9.224   5.881  0.4428  0.1779  0.3407
  703POPI   GL210852   5.418   8.899   5.894 -0.0124  0.0667 -0.0787
  703POPI   C1A10853   5.760   9.243   6.234  0.3038  0.2379  0.1483
  703POPI   D2A10854   6.201   9.269   6.491  0.2362  0.2786 -0.0839
  703POPI   C3A10855   6.194   9.436   6.821 -0.1206  0.4543 -0.0793
  703POPI   C4A10856   6.055   9.793   7.142 -0.0247 -0.2025 -0.1769
  703POPI   C1B10857   5.727   8.691   6.151  0.0417 -0.1281 -0.4513
  703POPI   C2B10858   6.171   8.787   6.463 -0.0001  0.0722 -0.1264
  703POPI   C3B10859   6.224   8.884   6.969 -0.0904  0.0593  0.0008
  703POPI   C4B10860   6.034   9.133   7.214  0.3795 -0.2036  0.0720
  704POPI    C110861  18.111   7.255   5.939  0.0451 -0.4662  0.0323
  704POPI    C210862  18.076   7.021   5.616  0.1804 -0.3080 -0.0993
  704POPI    C310863  18.301   7.351   5.600 -0.1271 -0.0864  0.0377
  704POPI   PO410864  18.178   7.225   6.105 -0.0492 -0.1400  0.1114
  704POPI   GL110865  17.962   7.053   6.443  0.0753 -0.4937 -0.1012
  704POPI   GL210866  18.289   6.877   6.382  0.3247 -0.0965  0.0576
  704POPI   C1A10867  17.883   6.952   6.853  0.3684  0.1596  0.0033
  704POPI   D2A10868  17.726   7.252   7.211  0.0760  0.1144  0.3008
  704POPI   C3A10869  17.557   7.528   7.349  0.0071  0.1110 -0.2152
  704POPI   C4A10870  17.423   7.804   7.143  0.2463 -0.2973  0.2708
  704POPI   C1B10871  18.269   6.600   6.674  0.1210 -0.1635 -0.2109
  704POPI   C2B10872  18.166   6.406   7.087 -0.0854 -0.4819  0.2105
  704POPI   C3B10873  18.424   6.410   7.410 -0.1804 -0.3050  0.1739
  704POPI   C4B10874  18.428   6.287   7.880  0.1727 -0.0686  0.2794
  705POPI    C110875   1.444  13.090   5.911  0.0571 -0.1287 -0.2974
  705POPI    C210876   1.241  13.379   5.723  0.2072  0.0210 -0.2318
  705POPI    C310877   1.473  13.129   5.514  0.0028 -0.1141 -0.2999
  705POPI   PO410878   1.519  13.250   6.171  0.3244 -0.2641 -0.1014
  705POPI   GL110879   1.182  13.562   6.365  0.2629 -0.3192 -0.0034
  705POPI   GL210880   0.893  13.504   6.302  0.0419 -0.2940 -0.0554
  705POPI   C1A10881   1.196  13.665   6.811 -0.0241  0.3348 -0.1297
  705POPI   D2A10882   1.391  13.982   7.077  0.3774  0.2713  0.2493
  705POPI   C3A10883   1.111  13.939   7.533  0.1736  0.3833 -0.2712
  705POPI   C4A10884   0.991  14.282   7.798 -0.1894 -0.1711  0.0216
  705POPI   C1B10885   0.593  13.512   6.680 -0.3944 -0.0459 -0.0053
  705POPI   C2B10886   0.735  13.641   7.090  0.0052  0.2551  0.0759
  705POPI   C3B10887   1.044  13.502   7.298  0.1474 -0.0523 -0.0711
  705POPI   C4B10888   1.431  13.597   7.352  0.0796 -0.1031 -0.2889
  706POPI    C110889  17.857   3.001   6.255  0.2769 -0.0060  0.1326
  706POPI    C210890  17.695   3.098   5.903  0.0192 -0.2313  0.1849
  706POPI    C310891  18.093   3.097   5.947  0.0453  0.1481  0.0002
  706POPI   PO410892  17.597   2.795   6.362 -0.0641  0.0772  0.1195
  706POPI   GL110893  17.370   2.933   6.625 -0.0565 -0.0258  0.2809
  706POPI   GL210894  17.645   3.189   6.656  0.2075 -0.1841 -0.1198
  706POPI   C1A10895  17.101   2.871   6.962  0.2548  0.1813  0.0718
  706POPI   D2A10896  17.229   2.751   7.363  0.1741 -0.2263  0.0659
  706POPI   C3A10897  17.374   3.005   7.581 -0.0108 -0.0563  0.1370
  706POPI   C4A10898  17.293   3.404   7.791 -0.0528  0.1921 -0.0751
  706POPI   C1B10899  17.598   3.627   6.786  0.3558 -0.1008 -0.1146
  706POPI   C2B10900  17.285   3.911   6.861 -0.2218  0.1756  0.0535
  706POPI   C3B10901  17.253   4.420   6.777  0.0397  0.1222  0.2044
  706POPI   C4B10902  17.058   4.536   6.427  0.1061 -0.0265 -0.0563
  707POPI    C110903  11.209   9.607   5.447 -0.1013 -0.2133 -0.2225
  707POPI    C210904  11.265  10.001   5.410 -0.0381 -0.1806  0.1815
  707POPI    C310905  11.366   9.756   5.111  0.0095  0.0997 -0.0356
  707POPI   PO410906  11.179   9.672   5.773  0.0826  0.2430 -0.0322
  707POPI   GL110907  11.469   9.634   6.132  0.1634 -0.1060 -0.4039
  707POPI   GL210908  11.816   9.562   6.052 -0.1487 -0.0838 -0.0202
  707POPI   C1A10909  11.476   9.565   6.596  0.1761 -0.1147 -0.1457
  707POPI   D2A10910  11.494   9.376   6.834 -0.0384 -0.2579  0.0106
  707POPI   C3A10911  11.654   8.933   6.757 -0.0994 -0.1360 -0.3315
  707POPI   C4A10912  11.667   8.549   6.558 -0.1836 -0.0498 -0.3286
  707POPI   C1B10913  11.916   9.388   6.512 -0.0873 -0.0110  0.1475
  707POPI   C2B10914  12.002   9.219   6.949 -0.5534  0.0520 -0.1201
  707POPI   C3B10915  12.306   9.389   7.159 -0.1389  0.1746 -0.0148
  707POPI   C4B10916  12.477   9.014   7.267  0.0916  0.0796 -0.3666
  708POPI    C110917   9.122  12.570   6.026  0.0701  0.0018  0.2979
  708POPI    C210918   9.264  12.433   5.678 -0.0794  0.0470  0.2182
  708POPI    C310919   9.462  12.718   5.875  0.0239 -0.0031  0.1876
  708POPI   PO410920   9.073  12.304   6.128 -0.2583 -0.0980  0.5144
  708POPI   GL110921   9.356  12.138   6.346  0.3603 -0.0846  0.0065
  708POPI   GL210922   9.330  11.903   6.426 -0.2890  0.1848  0.1808
  708POPI   C1A10923   9.591  12.280   6.718 -0.0667 -0.2094 -0.2651
  708POPI   D2A10924   9.522  12.502   7.036  0.1876  0.1402 -0.2355
  708POPI   C3A10925   9.161  12.338   7.250 -0.0333 -0.3096 -0.0645
  708POPI   C4A10926   8.860  12.193   7.063  0.1626 -0.0926 -0.1042
  708POPI   C1B10927   9.260  11.998   6.849 -0.1188 -0.1128  0.0521
  708POPI   C2B10928   9.520  12.020   7.226  0.1569 -0.2987 -0.0474
  708POPI   C3B10929   9.675  12.085   7.512 -0.3395 -0.2232 -0.0721
  708POPI   C4B10930   9.942  11.950   7.835 -0.0215  0.1016 -0.0703
  709POPI    C110931   3.637   9.755   5.744  0.0428 -0.1431  0.0539
  709POPI    C210932   3.794   9.503   5.476  0.1813  0.0419 -0.0403
  709POPI    C310933   3.481   9.732   5.376  0.0262 -0.1248  0.0598
  709POPI   PO410934   3.665   9.629   6.003  0.1698  0.0963 -0.2057
  709POPI   GL110935   3.441   9.610   6.389 -0.0955 -0.0557  0.1181
  709POPI   GL210936   3.313   9.898   6.214  0.0666 -0.0364 -0.1226
  709POPI   C1A10937   3.464   9.774   6.778  0.0303  0.4456  0.0263
  709POPI   D2A10938   3.435   9.614   7.203 -0.0604  0.0329  0.0468
  709POPI   C3A10939   3.381   9.603   7.676 -0.3024  0.0116  0.1982
  709POPI   C4A10940   3.561   9.691   8.139  0.0979 -0.0823 -0.1659
  709POPI   C1B10941   2.876   9.646   6.352  0.1717 -0.0768 -0.0951
  709POPI   C2B10942   2.671   9.379   6.728  0.0598  0.1127  0.6286
  709POPI   C3B10943   2.619   9.567   7.191  0.1479  0.1226 -0.1442
  709POPI   C4B10944   2.913   9.600   7.513 -0.0797  0.4566 -0.0296
  710POPI    C110945  14.515  16.397   5.919 -0.1180 -0.1693  0.1117
  710POPI    C210946  14.857  16.568   6.038 -0.1454 -0.0494  0.0197
  710POPI    C310947  14.842  16.373   5.689 -0.1268 -0.2000  0.1023
  710POPI   PO410948  14.468  16.252   6.094  0.0034 -0.0633  0.2008
  710POPI   GL110949  14.363  16.278   6.490 -0.0596  0.3933 -0.1900
  710POPI   GL210950  14.089  16.226   6.604 -0.0455  0.0957  0.0513
  710POPI   C1A10951  14.283  16.599   6.810 -0.3575 -0.2746 -0.1377
  710POPI   D2A10952  14.473  16.771   7.198 -0.0522 -0.4045  0.3612
  710POPI   C3A10953  14.435  17.090   7.422  0.2258  0.0827  0.0370
  710POPI   C4A10954  14.435  17.456   7.603  0.2295 -0.0997 -0.3582
  710POPI   C1B10955  13.740  16.342   6.686 -0.2453 -0.1749 -0.1944
  710POPI   C2B10956  13.442  16.340   7.064 -0.0340  0.2376  0.1597
  710POPI   C3B10957  13.618  16.241   7.496 -0.1405 -0.1608  0.2595
  710POPI   C4B10958  13.652  16.037   7.900  0.1718 -0.1615  0.0022
  711POPI    C110959  11.460  15.370   5.982 -0.0717 -0.0522  0.2364
  711POPI    C210960  11.254  15.303   5.646  0.0022  0.0019  0.1799
  711POPI    C310961  11.523  15.598   5.659 -0.0123  0.0103  0.2919
  711POPI   PO410962  11.332  15.183   6.107  0.1862 -0.3706  0.1216
  711POPI   GL110963  11.173  14.935   6.436 -0.0956  0.0458  0.3785
  711POPI   GL210964  11.246  14.655   6.411 -0.0869  0.1756  0.2954
  711POPI   C1A10965  10.897  14.971   6.738  0.3369 -0.4863 -0.1819
  711POPI   D2A10966  10.662  15.189   6.988 -0.2935  0.0433  0.2264
  711POPI   C3A10967  10.768  15.363   7.336  0.0763  0.0453 -0.1454
  711POPI   C4A10968  10.854  15.421   7.780  0.3178 -0.2358  0.0999
  711POPI   C1B10969  11.204  14.622   6.864  0.1047  0.0704 -0.1691
  711POPI   C2B10970  10.867  14.463   7.090  0.2824 -0.1563 -0.1664
  711POPI   C3B10971  10.787  14.440   7.566 -0.1154 -0.0326 -0.2455
  711POPI   C4B10972  10.533  14.281   7.974 -0.0546 -0.1928  0.3318
  712POPI    C110973   6.725   7.037   5.580  0.1161 -0.0639  0.2719
  712POPI    C210974   7.109   7.142   5.543  0.0425  0.1945  0.2232
  712POPI    C310975   6.824   7.364   5.372 -0.1315  0.0213  0.2852
  712POPI   PO410976   6.742   6.812   5.630  0.0341 -0.0897 -0.0810
  712POPI   GL110977   6.469   6.718   5.980  0.2064 -0.0647  0.0775
  712POPI   GL210978   6.477   7.083   6.067  0.1504 -0.3249 -0.2270
  712POPI   C1A10979   6.179   6.654   6.311  0.0111 -0.0815  0.1032
  712POPI   D2A10980   6.270   6.364   6.602 -0.0237  0.1712 -0.0678
  712POPI   C3A10981   6.296   6.290   7.047  0.1945 -0.1848 -0.0609
  712POPI   C4A10982   6.362   6.166   7.463 -0.0038 -0.1011  0.0943
  712POPI   C1B10983   6.851   7.033   6.337  0.0323 -0.0511  0.2643
  712POPI   C2B10984   7.250   6.823   6.501  0.5447 -0.2028 -0.0288
  712POPI   C3B10985   7.605   6.629   6.706  0.2356  0.2202 -0.0102
  712POPI   C4B10986   7.729   6.278   6.739  0.1665 -0.0850 -0.2384
  713POPI    C110987   4.144  17.747   5.891  0.1216  0.1300  0.1959
  713POPI    C210988   4.168  18.076   5.665 -0.0139 -0.1661 -0.2624
  713POPI    C310989   4.495  17.856   5.734  0.0694  0.0385  0.0137
  713POPI   PO410990   3.991  17.850   6.124  0.3256  0.1100 -0.0701
  713POPI   GL110991   3.795  18.109   6.483  0.0411 -0.0345 -0.0765
  713POPI   GL210992   3.584  17.776   6.545 -0.0805 -0.0242 -0.1417
  713POPI   C1A10993   3.652  18.246   6.916 -0.2052 -0.0461 -0.1332
  713POPI   D2A10994   3.660  18.335   7.352  0.1708 -0.1220  0.1043
  713POPI   C3A10995   4.001  18.391   7.656 -0.1341  0.0173 -0.2337
  713POPI   C4A10996   4.381  18.792   7.518 -0.3999  0.1487  0.1002
  713POPI   C1B10997   3.266  17.651   6.868 -0.0570  0.1047 -0.2795
  713POPI   C2B10998   3.098  17.556   7.325 -0.0586  0.2841  0.2938
  713POPI   C3B10999   3.097  17.660   7.723 -0.1136 -0.0586  0.0069
  713POPI   C4B11000   3.218  17.744   8.052  0.3111  0.1565  0.4919
  714POPI    C111001  15.154  15.795   5.824  0.0516  0.0422  0.0062
  714POPI    C211002  14.810  15.959   5.946  0.0494  0.0213  0.0281
  714POPI    C311003  14.833  15.788   5.585  0.0083 -0.0658  0.0664
  714POPI   PO411004  15.283  16.062   5.964 -0.1114 -0.2706 -0.0210
  714POPI   GL111005  15.387  16.308   6.278 -0.0933  0.3362  0.0440
  714POPI   GL211006  15.212  16.545   6.367  0.1385 -0.1334 -0.1035
  714POPI   C1A11007  15.578  16.017   6.655  0.0616  0.3189 -0.0534
  714POPI   D2A11008  15.599  15.898   7.108  0.1923  0.2214  0.1957
  714POPI   C3A11009  15.638  15.669   7.549 -0.0338 -0.3507 -0.0161
  714POPI   C4A11010  15.517  15.307   7.723  0.0664 -0.1510 -0.2156
  714POPI   C1B11011  15.185  16.362   6.802 -0.0468  0.1764  0.2869
  714POPI   C2B11012  15.138  16.226   7.166 -0.1307 -0.1200 -0.0700
  714POPI   C3B11013  15.399  16.179   7.602 -0.0810  0.0077  0.4410
  714POPI   C4B11014  15.281  15.785   7.884 -0.1753 -0.3309  0.1045
  715POPI    C111015   4.384  14.503   5.972 -0.0834 -0.0866  0.3042
  715POPI    C211016   4.504  14.836   6.161 -0.1261  0.1722 -0.1129
  715POPI    C311017   4.593  14.781   5.775 -0.0309 -0.3535 -0.0246
  715POPI   PO411018   4.543  14.342   6.186  0.0651  0.0113 -0.1646
  715POPI   GL111019   4.629  14.512   6.562 -0.2003 -0.0618 -0.0263
  715POPI   GL211020   4.341  14.573   6.568 -0.2403  0.2303  0.0066
  715POPI   C1A11021   4.695  14.791   6.842  0.0344 -0.0426  0.1383
  715POPI   D2A11022   4.638  14.854   7.258 -0.0800  0.5119 -0.0275
  715POPI   C3A11023   4.355  14.616   7.494  0.1573 -0.0066  0.0859
  715POPI   C4A11024   4.116  14.512   7.773  0.0138  0.1039  0.0977
  715POPI   C1B11025   3.916  14.610   6.691 -0.1590  0.0656 -0.0715
  715POPI   C2B11026   3.625  14.825   6.805  0.0944 -0.0497  0.1048
  715POPI   C3B11027   3.176  14.942   6.733 -0.0708  0.0056 -0.1383
  715POPI   C4B11028   3.024  15.208   6.471  0.2228 -0.1771 -0.0985
  716POPI    C111029  13.230  16.780   5.381  0.1176 -0.0111  0.1735
  716POPI    C211030  13.124  17.153   5.282  0.0615 -0.0016  0.2685
  716POPI    C311031  12.846  16.866   5.308  0.1304 -0.0949  0.0053
  716POPI   PO411032  13.240  16.730   5.681 -0.1079 -0.2730  0.0056
  716POPI   GL111033  12.859  16.739   6.053 -0.0767 -0.5810  0.1784
  716POPI   GL211034  13.138  16.801   6.182  0.0242  0.0899  0.3206
  716POPI   C1A11035  12.801  16.386   6.330  0.1636  0.1333 -0.2412
  716POPI   D2A11036  12.891  15.903   6.637  0.0980 -0.0083  0.0004
  716POPI   C3A11037  13.138  15.944   7.019  0.3031  0.2970  0.0493
  716POPI   C4A11038  13.113  16.108   7.393 -0.3137 -0.0566 -0.0590
  716POPI   C1B11039  13.142  16.906   6.645  0.1937  0.4532  0.2118
  716POPI   C2B11040  13.419  16.851   6.979  0.0710  0.1101  0.0132
  716POPI   C3B11041  13.708  17.043   7.321 -0.1272 -0.3656  0.2137
  716POPI   C4B11042  13.785  17.425   7.657 -0.0485 -0.2741 -0.0144
  717POPI    C111043  16.793  16.655   5.836  0.1575  0.0459  0.1943
  717POPI    C211044  16.703  17.044   5.840  0.0253  0.0317 -0.3972
  717POPI    C311045  17.071  16.925   5.740  0.2214  0.0155  0.2920
  717POPI   PO411046  16.644  16.578   6.108  0.1121 -0.2244  0.2671
  717POPI   GL111047  16.591  16.411   6.440 -0.3853  0.2608 -0.3832
  717POPI   GL211048  16.408  16.767   6.522 -0.3199  0.0125  0.1295
  717POPI   C1A11049  17.043  16.218   6.477 -0.0713 -0.0796  0.0693
  717POPI   D2A11050  17.011  16.024   6.817 -0.0114  0.4251 -0.1616
  717POPI   C3A11051  17.248  16.009   7.195 -0.0063 -0.2776 -0.0348
  717POPI   C4A11052  17.620  15.969   7.456 -0.4097 -0.0993  0.2905
  717POPI   C1B11053  16.323  16.569   6.835 -0.3707 -0.0037 -0.0987
  717POPI   C2B11054  16.427  16.673   7.281 -0.0094  0.2992 -0.2517
  717POPI   C3B11055  16.503  16.361   7.541 -0.3738  0.1012 -0.1617
  717POPI   C4B11056  16.577  16.259   7.999  0.0802 -0.1264  0.0201
  718POPI    C111057  14.632  16.984   5.823 -0.1238 -0.1837 -0.0954
  718POPI    C211058  14.534  16.775   5.495 -0.0326 -0.0204 -0.2283
  718POPI    C311059  14.624  17.164   5.465 -0.0735  0.0079 -0.0011
  718POPI   PO411060  14.593  17.032   5.990 -0.0760  0.0672  0.2452
  718POPI   GL111061  14.477  16.785   6.320 -0.0014 -0.1991  0.0070
  718POPI   GL211062  14.737  16.625   6.572  0.1158  0.0090 -0.0032
  718POPI   C1A11063  14.447  17.081   6.740 -0.1820 -0.2358  0.4072
  718POPI   D2A11064  14.197  17.369   6.902 -0.1648  0.1130  0.0681
  718POPI   C3A11065  14.330  17.685   7.188 -0.1839 -0.0668  0.1734
  718POPI   C4A11066  14.508  17.973   7.537  0.0670 -0.1152 -0.1449
  718POPI   C1B11067  14.874  16.767   6.941 -0.0019  0.3963 -0.0334
  718POPI   C2B11068  14.886  16.969   7.462 -0.2249 -0.0404 -0.3022
  718POPI   C3B11069  14.712  17.108   7.830  0.2778  0.1264  0.1903
  718POPI   C4B11070  14.761  17.292   8.187 -0.1096  0.2521 -0.1560
  719POPI    C111071  13.233  12.382   6.080 -0.1641 -0.1036  0.0421
  719POPI    C211072  13.172  12.718   5.871 -0.1371 -0.1384 -0.0217
  719POPI    C311073  12.866  12.471   5.946 -0.1642 -0.0810  0.0577
  719POPI   PO411074  13.368  12.429   6.215  0.0931  0.0943  0.1591
  719POPI   GL111075  13.187  12.565   6.647  0.0004 -0.4957 -0.0725
  719POPI   GL211076  13.577  12.633   6.600  0.0133  0.1175  0.3154
  719POPI   C1A11077  13.331  12.776   6.970  0.1124 -0.1202 -0.1116
  719POPI   D2A11078  13.157  13.031   7.297  0.0961  0.1447  0.1472
  719POPI   C3A11079  13.277  13.015   7.727  0.1514  0.2610 -0.0602
  719POPI   C4A11080  13.642  12.930   8.068 -0.0688 -0.3227 -0.0777
  719POPI   C1B11081  13.635  12.384   6.992  0.0918  0.0738 -0.1296
  719POPI   C2B11082  13.676  12.172   7.337 -0.0646 -0.1380 -0.1733
  719POPI   C3B11083  13.492  11.903   7.612 -0.3108  0.2809  0.0285
  719POPI   C4B11084  13.466  11.556   7.915 -0.0636 -0.2364 -0.3457
  720POPI    C111085  13.556   3.311   5.609 -0.0099 -0.0295 -0.0238
  720POPI    C211086  13.751   3.650   5.526 -0.0111  0.0702  0.3630
  720POPI    C311087  13.773   3.340   5.274  0.2626  0.2411  0.1716
  720POPI   PO411088  13.688   3.231   5.875  0.0214  0.1594 -0.2997
  720POPI   GL111089  13.762   3.068   6.238  0.1798  0.0781  0.1736
  720POPI   GL211090  14.103   2.930   6.181  0.0209 -0.5625 -0.1747
  720POPI   C1A11091  13.581   3.018   6.507 -0.0891 -0.1860 -0.0810
  720POPI   D2A11092  13.598   3.255   6.844 -0.0833 -0.0675 -0.1934
  720POPI   C3A11093  13.717   3.483   7.204 -0.2670  0.0420  0.2838
  720POPI   C4A11094  13.797   3.687   7.600  0.3431 -0.1219 -0.3127
  720POPI   C1B11095  14.133   3.208   6.558  0.0564  0.2316  0.0918
  720POPI   C2B11096  14.212   3.272   7.010  0.1568  0.0224 -0.1381
  720POPI   C3B11097  14.521   3.140   7.340  0.1403  0.0660 -0.0801
  720POPI   C4B11098  14.645   3.291   7.734  0.2191  0.2039 -0.2082
  721POPI    C111099   4.420   5.149   5.595 -0.0864 -0.2120  0.1199
  721POPI    C211100   4.366   5.041   5.214  0.1926  0.3051 -0.0751
  721POPI    C311101   4.068   5.214   5.417  0.0488  0.0438 -0.0594
  721POPI   PO411102   4.652   4.970   5.648 -0.0837 -0.0539 -0.4699
  721POPI   GL111103   4.875   4.821   6.054 -0.1835  0.4776  0.0105
  721POPI   GL211104   4.874   5.171   6.025  0.0205 -0.0328  0.0337
  721POPI   C1A11105   4.796   4.628   6.430 -0.0497 -0.0121  0.2044
  721POPI   D2A11106   4.665   4.495   6.880 -0.0911  0.0172  0.0153
  721POPI   C3A11107   4.618   4.681   7.363 -0.0303  0.1473 -0.0244
  721POPI   C4A11108   4.728   4.801   7.815 -0.0174  0.2505 -0.0551
  721POPI   C1B11109   4.744   5.219   6.519 -0.1047  0.2373 -0.3148
  721POPI   C2B11110   4.721   5.043   6.963 -0.1114  0.1745  0.0504
  721POPI   C3B11111   4.837   5.204   7.358  0.4400  0.1395 -0.0329
  721POPI   C4B11112   4.860   5.375   7.791  0.0080 -0.1039  0.0073
  722POPI    C111113   8.371  15.999   5.806  0.0821  0.0270 -0.0932
  722POPI    C211114   8.276  16.020   5.418  0.1767 -0.0061 -0.1182
  722POPI    C311115   8.447  15.689   5.565  0.0806 -0.0189 -0.0348
  722POPI   PO411116   8.410  16.292   5.886  0.1106  0.1055 -0.0903
  722POPI   GL111117   8.346  16.328   6.336  0.1699  0.0418 -0.1579
  722POPI   GL211118   8.629  16.236   6.377 -0.1889  0.1136  0.2332
  722POPI   C1A11119   8.302  16.610   6.611  0.0721  0.0993  0.0136
  722POPI   D2A11120   8.155  16.844   7.004 -0.4236 -0.1429  0.0059
  722POPI   C3A11121   8.039  16.900   7.401 -0.5095 -0.0050  0.0219
  722POPI   C4A11122   8.008  17.101   7.762 -0.1182 -0.0325 -0.0958
  722POPI   C1B11123   8.530  16.194   6.837  0.0092 -0.0984 -0.1999
  722POPI   C2B11124   8.434  16.485   7.060  0.1670 -0.1229 -0.0744
  722POPI   C3B11125   8.598  16.813   7.341 -0.3289  0.0700  0.0113
  722POPI   C4B11126   8.460  17.039   7.723  0.1614  0.0882 -0.0193
  723POPI    C111127   5.610  10.623   5.710 -0.0624 -0.3276 -0.2014
  723POPI    C211128   5.412  10.940   5.852  0.3689 -0.1594  0.0450
  723POPI    C311129   5.568  10.951   5.484  0.5884  0.0111  0.1411
  723POPI   PO411130   5.650  10.560   6.019 -0.2661  0.0639  0.1572
  723POPI   GL111131   5.615  10.424   6.453 -0.2259 -0.1668 -0.1802
  723POPI   GL211132   5.418  10.234   6.372 -0.2320  0.2142 -0.0096
  723POPI   C1A11133   5.532  10.696   6.808  0.3488 -0.1552 -0.2072
  723POPI   D2A11134   5.483  10.492   7.133 -0.0099  0.1336 -0.2121
  723POPI   C3A11135   5.785  10.218   7.311 -0.0750 -0.0324 -0.0006
  723POPI   C4A11136   5.772  10.024   7.642  0.0468 -0.0669  0.1500
  723POPI   C1B11137   5.509  10.017   6.831 -0.1088 -0.1931 -0.1945
  723POPI   C2B11138   5.589   9.744   7.194 -0.0100 -0.0743 -0.1328
  723POPI   C3B11139   5.534   9.267   7.246  0.0261 -0.1645 -0.1535
  723POPI   C4B11140   5.673   8.785   7.178 -0.0088  0.0407 -0.1120
  724POPI    C111141   9.042   4.717   5.585  0.0951  0.0415 -0.1698
  724POPI    C211142   8.779   4.445   5.454  0.1423  0.0127 -0.2049
  724POPI    C311143   8.910   4.733   5.208  0.0598  0.0932 -0.1555
  724POPI   PO411144   8.887   4.852   5.818  0.0063 -0.1617  0.1961
  724POPI   GL111145   8.797   4.628   6.206  0.0762  0.0628  0.1608
  724POPI   GL211146   8.624   4.748   6.278 -0.4284 -0.1788  0.1079
  724POPI   C1A11147   8.896   4.566   6.651 -0.0922  0.2294  0.2412
  724POPI   D2A11148   9.217   4.285   6.893 -0.1938  0.1490 -0.1954
  724POPI   C3A11149   9.612   4.372   7.032 -0.2105  0.0272 -0.0714
  724POPI   C4A11150   9.817   4.423   7.442 -0.0554  0.0122  0.1164
  724POPI   C1B11151   8.514   5.053   6.407  0.1590  0.0618 -0.2834
  724POPI   C2B11152   8.542   5.379   6.708 -0.2714 -0.2676 -0.1146
  724POPI   C3B11153   8.465   5.543   7.257 -0.1272 -0.0640 -0.0554
  724POPI   C4B11154   8.276   5.777   7.533  0.0912  0.1560 -0.3195
  725POPI    C111155  16.382   3.486   6.251  0.1297 -0.1381 -0.1912
  725POPI    C211156  16.140   3.487   5.933  0.0868 -0.1314 -0.1585
  725POPI    C311157  16.203   3.148   6.135  0.1418 -0.1432 -0.1951
  725POPI   PO411158  16.348   3.824   6.278  0.6384  0.1277  0.1895
  725POPI   GL111159  15.976   4.076   6.462  0.0210 -0.1344  0.1586
  725POPI   GL211160  15.697   4.241   6.475  0.0738  0.1215  0.1028
  725POPI   C1A11161  15.906   4.009   6.842 -0.1828 -0.2912  0.1626
  725POPI   D2A11162  15.690   3.978   7.170 -0.1885 -0.0851 -0.0925
  725POPI   C3A11163  15.835   4.167   7.521 -0.0315 -0.1108 -0.0790
  725POPI   C4A11164  16.133   3.969   7.668  0.0895 -0.0531 -0.0748
  725POPI   C1B11165  16.017   4.538   6.583  0.2088 -0.1093 -0.2507
  725POPI   C2B11166  16.259   4.581   6.990  0.2430 -0.3799 -0.0268
  725POPI   C3B11167  16.378   4.429   7.372 -0.1832  0.5561  0.0910
  725POPI   C4B11168  16.561   4.185   7.757  0.1555 -0.1551 -0.2891
  726POPI    C111169  17.200   0.977   5.864  0.0931  0.2830  0.1631
  726POPI    C211170  16.966   1.294   5.796  0.0030  0.1931  0.0490
  726POPI    C311171  17.220   1.169   5.514  0.1218  0.2327  0.1372
  726POPI   PO411172  17.115   0.877   6.202 -0.1071  0.1273 -0.0571
  726POPI   GL111173  16.974   0.939   6.651  0.2156  0.0765  0.0541
  726POPI   GL211174  16.918   0.619   6.827  0.0859  0.0890  0.0773
  726POPI   C1A11175  16.581   1.067   6.922 -0.1478 -0.0712 -0.0152
  726POPI   D2A11176  16.428   0.952   7.289  0.1811  0.1165  0.0643
  726POPI   C3A11177  16.418   1.201   7.638 -0.1376 -0.0616  0.0995
  726POPI   C4A11178  16.502   1.345   8.096 -0.3119 -0.1527 -0.2017
  726POPI   C1B11179  16.867   0.511   7.235 -0.3702 -0.0074 -0.1219
  726POPI   C2B11180  17.082   0.511   7.653 -0.0600 -0.0790  0.0411
  726POPI   C3B11181  17.493   0.472   7.820  0.0005  0.1263  0.2902
  726POPI   C4B11182  17.793   0.261   8.078  0.1631 -0.1544 -0.0421
  727POPI    C111183   0.930   0.349   5.766  0.0490  0.0167  0.2882
  727POPI    C211184   1.298   0.499   5.724  0.0237  0.0577  0.2102
  727POPI    C311185   1.084   0.401   5.401  0.0078 -0.0682  0.2584
  727POPI   PO411186   0.993   0.227   6.031  0.0552  0.0348  0.2083
  727POPI   GL111187   0.976   0.244   6.447  0.1838  0.0126  0.1929
  727POPI   GL211188   1.067  -0.077   6.403 -0.1066  0.1072 -0.2918
  727POPI   C1A11189   0.919   0.341   6.833  0.2327  0.1355 -0.1198
  727POPI   D2A11190   0.545   0.538   7.003  0.1009 -0.2918 -0.0108
  727POPI   C3A11191   0.557   0.615   7.464 -0.1451  0.0630  0.0263
  727POPI   C4A11192   0.711   0.345   7.725 -0.0857 -0.0668 -0.1296
  727POPI   C1B11193   1.138  -0.075   6.848 -0.0482 -0.0399 -0.1637
  727POPI   C2B11194   1.384   0.058   7.167 -0.0761  0.2345  0.3760
  727POPI   C3B11195   1.736   0.094   7.391  0.1866 -0.2586 -0.1084
  727POPI   C4B11196   1.962   0.380   7.642  0.1967 -0.0200  0.3145
  728POPI    C111197   0.555   6.797   6.349 -0.1594 -0.1645  0.0374
  728POPI    C211198   0.335   6.480   6.454  0.0300 -0.3225 -0.0385
  728POPI    C311199   0.495   6.501   6.088  0.0365 -0.1489 -0.0266
  728POPI   PO411200   0.446   6.965   6.352  0.3170  0.0673 -0.3379
  728POPI   GL111201   0.530   7.451   6.457  0.4411 -0.0928 -0.1355
  728POPI   GL211202   0.135   7.328   6.494  0.1897  0.1294  0.1028
  728POPI   C1A11203   0.424   7.382   6.884 -0.4195  0.0919 -0.0073
  728POPI   D2A11204   0.354   7.439   7.343 -0.2447 -0.0124  0.1075
  728POPI   C3A11205   0.588   7.149   7.491  0.0736  0.0264 -0.1736
  728POPI   C4A11206   0.875   7.000   7.533  0.0940  0.2639 -0.1405
  728POPI   C1B11207  -0.083   7.284   6.871 -0.1642  0.0190  0.0540
  728POPI   C2B11208  -0.122   7.421   7.234 -0.3010  0.0390  0.0297
  728POPI   C3B11209  -0.272   7.435   7.678  0.0255  0.1196  0.0663
  728POPI   C4B11210  -0.300   7.243   8.039 -0.1129  0.1444  0.2071
  729POPI    C111211   1.602   5.638   5.990  0.0960  0.1120 -0.1122
  729POPI    C211212   1.435   5.886   5.725  0.1340 -0.0335 -0.2736
  729POPI    C311213   1.801   5.738   5.658  0.1266 -0.1036 -0.1602
  729POPI   PO411214   1.525   5.764   6.210  0.0532 -0.1533  0.2098
  729POPI   GL111215   1.465   5.895   6.563  0.0333 -0.1113  0.0043
  729POPI   GL211216   1.726   6.091   6.663 -0.2024 -0.0363  0.0938
  729POPI   C1A11217   1.582   5.696   6.934  0.2439 -0.0531  0.1125
  729POPI   D2A11218   1.650   5.935   7.313  0.1087  0.2268  0.2641
  729POPI   C3A11219   1.571   5.770   7.715  0.1092  0.0262  0.0053
  729POPI   C4A11220   1.701   5.958   8.128  0.1319  0.1493  0.3158
  729POPI   C1B11221   2.027   5.901   6.989 -0.0297 -0.1959  0.2217
  729POPI   C2B11222   2.142   5.853   7.396 -0.1835 -0.0420 -0.1627
  729POPI   C3B11223   2.102   5.792   7.815 -0.2375  0.0594 -0.3164
  729POPI   C4B11224   2.387   6.000   8.202 -0.3458  0.0794  0.0829
  730POPI    C111225   8.441  11.644   6.014 -0.1899 -0.0390  0.2434
  730POPI    C211226   8.161  11.463   5.793  0.1817 -0.0767 -0.2119
  730POPI    C311227   8.191  11.862   5.790  0.1615 -0.0750 -0.1987
  730POPI   PO411228   8.443  11.541   6.291  0.0064  0.0209 -0.1524
  730POPI   GL111229   8.706  11.631   6.656  0.0380 -0.2720  0.0422
  730POPI   GL211230   8.474  11.835   6.707 -0.3469 -0.0772 -0.0142
  730POPI   C1A11231   8.771  11.578   7.091 -0.2055 -0.1187 -0.2153
  730POPI   D2A11232   9.098  11.721   7.409  0.0123  0.1166  0.2806
  730POPI   C3A11233   8.965  12.068   7.653  0.2824 -0.1184 -0.1014
  730POPI   C4A11234   8.759  12.334   8.018  0.1619  0.0169  0.0716
  730POPI   C1B11235   8.423  11.999   7.128  0.1700 -0.2911 -0.2143
  730POPI   C2B11236   8.482  11.904   7.562 -0.0210 -0.1469  0.1471
  730POPI   C3B11237   8.182  11.787   7.885 -0.1880 -0.2424  0.0702
  730POPI   C4B11238   8.046  11.347   7.986 -0.1190  0.1933  0.5539
  731POPI    C111239   9.713  13.552   5.854 -0.0053  0.0412 -0.1550
  731POPI    C211240   9.590  13.177   5.919 -0.1792  0.1154 -0.0462
  731POPI    C311241   9.565  13.335   5.553 -0.3770  0.1173 -0.0328
  731POPI   PO411242   9.955  13.645   5.983  0.1182  0.2661  0.0938
  731POPI   GL111243   9.925  13.705   6.485  0.0827  0.2939  0.0541
  731POPI   GL211244   9.677  13.708   6.422 -0.0664  0.1409 -0.0918
  731POPI   C1A11245  10.241  13.702   6.684  0.3300  0.4640 -0.2809
  731POPI   D2A11246  10.506  13.535   7.047  0.0652  0.0183  0.0240
  731POPI   C3A11247  10.485  13.195   7.340 -0.1010 -0.0421  0.1951
  731POPI   C4A11248  10.338  13.172   7.755 -0.1899  0.1546 -0.3893
  731POPI   C1B11249   9.350  13.630   6.675 -0.0878 -0.1438  0.3415
  731POPI   C2B11250   9.019  13.389   6.879  0.1665 -0.1396  0.0397
  731POPI   C3B11251   8.761  13.148   7.088  0.3692  0.0025 -0.0473
  731POPI   C4B11252   8.519  13.248   7.543  0.0846  0.0036 -0.1938
  732POPI    C111253  10.344   9.612   6.187 -0.0645  0.0669 -0.0789
  732POPI    C211254  10.730   9.510   6.160 -0.0779  0.0028 -0.0334
  732POPI    C311255  10.448   9.258   6.031 -0.1176 -0.0754  0.2023
  732POPI   PO411256  10.413   9.925   6.199  0.2490  0.2870  0.0167
  732POPI   GL111257  10.633   9.958   6.548 -0.1042  0.2724 -0.2399
  732POPI   GL211258  10.436  10.213   6.642 -0.2153 -0.2456  0.3513
  732POPI   C1A11259  10.988   9.689   6.724  0.0497  0.0226 -0.1935
  732POPI   D2A11260  10.893   9.497   7.067  0.0001  0.0202 -0.0062
  732POPI   C3A11261  11.203   9.279   7.272  0.0120  0.0371 -0.0390
  732POPI   C4A11262  11.317   9.376   7.625 -0.2158 -0.0573 -0.0605
  732POPI   C1B11263  10.527  10.101   7.011 -0.0493 -0.0510  0.4495
  732POPI   C2B11264  10.468  10.048   7.455 -0.0920 -0.5398  0.2043
  732POPI   C3B11265  10.195  10.080   7.840 -0.0373  0.1928  0.3079
  732POPI   C4B11266   9.982  10.387   8.154 -0.1896 -0.0162 -0.0311
  733POPI    C111267  13.398   9.581   5.803 -0.1336  0.1590 -0.0400
  733POPI    C211268  13.137   9.756   5.555  0.0613  0.0603 -0.3198
  733POPI    C311269  13.342   9.434   5.435  0.0804 -0.0543  0.0099
  733POPI   PO411270  13.275   9.565   6.028  0.3613  0.2079 -0.2724
  733POPI   GL111271  13.086   9.558   6.370 -0.0370  0.2852  0.0808
  733POPI   GL211272  13.131   9.876   6.534 -0.1424  0.1246  0.1813
  733POPI   C1A11273  12.935   9.435   6.764 -0.0738  0.1122  0.1892
  733POPI   D2A11274  12.509   9.391   6.669 -0.2579  0.2685 -0.1723
  733POPI   C3A11275  12.465   9.019   6.739  0.3336 -0.1449  0.0683
  733POPI   C4A11276  12.206   8.752   6.729  0.0909 -0.1330 -0.1056
  733POPI   C1B11277  13.008  10.187   6.806  0.2333 -0.0410 -0.1369
  733POPI   C2B11278  12.965  10.104   7.235  0.2403 -0.1429 -0.0159
  733POPI   C3B11279  12.894   9.896   7.545  0.2016  0.2142 -0.1267
  733POPI   C4B11280  12.710   9.900   7.906 -0.1007  0.3168 -0.0022
  734POPI    C111281  10.594  15.166   5.537 -0.0199  0.0979 -0.2252
  734POPI    C211282  10.560  14.852   5.292 -0.0745 -0.1319  0.0704
  734POPI    C311283  10.887  14.893   5.519 -0.0224  0.0818 -0.0408
  734POPI   PO411284  10.335  15.187   5.608  0.1737  0.0777  0.1686
  734POPI   GL111285  10.272  15.247   6.073  0.1708  0.0290 -0.1732
  734POPI   GL211286  10.456  15.544   5.965  0.1573  0.1546  0.1504
  734POPI   C1A11287  10.496  15.254   6.433  0.0097 -0.0167 -0.1981
  734POPI   D2A11288  10.961  15.462   6.516 -0.0699  0.1244 -0.3422
  734POPI   C3A11289  11.043  15.599   6.910  0.1956 -0.0242  0.0625
  734POPI   C4A11290  11.257  15.588   7.322  0.2961 -0.0495  0.0972
  734POPI   C1B11291  10.522  15.734   6.381 -0.0384 -0.3021 -0.0311
  734POPI   C2B11292  10.557  15.866   6.788 -0.0870  0.2136  0.2012
  734POPI   C3B11293  10.452  15.733   7.138 -0.1356 -0.1208 -0.0531
  734POPI   C4B11294  10.269  15.320   7.248 -0.3589 -0.1727 -0.2156
  735POPI    C111295  13.514   5.009   5.752  0.1036 -0.2351 -0.2931
  735POPI    C211296  13.876   4.887   5.868  0.1038 -0.1619 -0.2160
  735POPI    C311297  13.581   4.621   5.823  0.0551 -0.1703  0.1288
  735POPI   PO411298  13.470   5.247   5.850  0.1756  0.0941  0.1294
  735POPI   GL111299  13.250   5.296   6.166 -0.3085 -0.1413 -0.0074
  735POPI   GL211300  13.071   5.057   6.151 -0.0768  0.0315 -0.1938
  735POPI   C1A11301  13.471   5.464   6.628  0.3707 -0.0483 -0.2904
  735POPI   D2A11302  13.716   5.892   6.719  0.3197  0.0234  0.0885
  735POPI   C3A11303  14.154   6.114   6.911 -0.2139  0.1604  0.1500
  735POPI   C4A11304  14.270   6.032   7.403  0.1213  0.0215  0.1843
  735POPI   C1B11305  12.910   4.689   6.520 -0.0649  0.2561  0.2040
  735POPI   C2B11306  13.048   4.619   7.006  0.2677 -0.0233 -0.1999
  735POPI   C3B11307  12.932   4.798   7.327  0.0996 -0.1378 -0.1154
  735POPI   C4B11308  12.760   4.627   7.748 -0.0582  0.3431 -0.1639
  736POPI    C111309   5.917   8.737   5.631  0.3352  0.2020 -0.0908
  736POPI    C211310   5.958   8.801   5.238  0.2330  0.1294 -0.1137
  736POPI    C311311   5.609   8.671   5.384  0.3260 -0.0192 -0.0218
  736POPI   PO411312   6.179   8.548   5.663  0.3934  0.1131 -0.2899
  736POPI   GL111313   6.366   8.325   6.033 -0.2321  0.0978  0.0138
  736POPI   GL211314   6.059   8.137   5.900  0.0496 -0.1577 -0.1078
  736POPI   C1A11315   6.423   8.384   6.493 -0.2093 -0.0369 -0.0065
  736POPI   D2A11316   6.512   8.585   6.750  0.1129 -0.3094 -0.3683
  736POPI   C3A11317   6.312   8.430   7.195 -0.1310  0.1208 -0.3557
  736POPI   C4A11318   6.415   8.283   7.563 -0.0510  0.2722 -0.2561
  736POPI   C1B11319   5.908   8.311   6.333 -0.0557  0.1198  0.2187
  736POPI   C2B11320   6.045   8.299   6.782 -0.0247 -0.2054  0.2841
  736POPI   C3B11321   5.812   8.329   7.121  0.1684  0.3616 -0.2922
  736POPI   C4B11322   5.492   8.409   7.468 -0.0023 -0.1584 -0.2794
  737POPS   CNO11323  16.933   5.139   5.583 -0.0492  0.2711 -0.1997
  737POPS   PO411324  17.106   5.349   6.001  0.2114 -0.2930 -0.3010
  737POPS   GL111325  17.139   5.441   6.337  0.0400 -0.1470 -0.0983
  737POPS   GL211326  17.085   5.726   6.558 -0.2277 -0.2759 -0.1090
  737POPS   C1A11327  17.461   5.394   6.710  0.3694 -0.1923  0.1854
  737POPS   D2A11328  17.214   5.218   7.082 -0.0179 -0.3913 -0.3433
  737POPS   C3A11329  17.266   5.144   7.412 -0.0918 -0.0457 -0.2364
  737POPS   C4A11330  17.217   5.119   7.891 -0.0190  0.0081 -0.1841
  737POPS   C1B11331  17.039   5.840   7.016 -0.0681  0.0193  0.2981
  737POPS   C2B11332  16.753   6.013   7.405  0.0558  0.1325  0.0685
  737POPS   C3B11333  16.622   5.970   7.831 -0.1609  0.1393  0.4581
  737POPS   C4B11334  16.727   5.990   8.280 -0.1252 -0.1814 -0.0041
  738POPS   CNO11335  10.572   8.931   5.282 -0.0687 -0.1467  0.1757
  738POPS   PO411336  10.572   8.833   5.724  0.0645  0.1113 -0.0830
  738POPS   GL111337  10.630   8.737   6.157 -0.0733  0.0015 -0.0646
  738POPS   GL211338  10.385   8.552   6.258  0.0672 -0.2618 -0.4349
  738POPS   C1A11339  10.742   8.670   6.604  0.2264  0.0855  0.0615
  738POPS   D2A11340  10.779   8.530   7.019 -0.1549  0.2201  0.1672
  738POPS   C3A11341  10.536   8.474   7.335  0.0018 -0.2100  0.1330
  738POPS   C4A11342  10.253   8.513   7.708  0.0104 -0.0198  0.2619
  738POPS   C1B11343  10.262   8.633   6.717  0.2050 -0.1813  0.1336
  738POPS   C2B11344   9.963   8.734   6.979  0.4294 -0.1406  0.0419
  738POPS   C3B11345   9.996   8.867   7.313 -0.1460 -0.0762  0.0680
  738POPS   C4B11346  10.234   9.072   7.684 -0.1294  0.0065  0.5479
  739POPS   CNO11347  13.325  11.056   5.833  0.0646 -0.2823  0.4225
  739POPS   PO411348  12.875  11.039   5.890  0.3607  0.3351 -0.0540
  739POPS   GL111349  12.877  11.183   6.405  0.2393  0.3226 -0.0291
  739POPS   GL211350  13.077  11.479   6.329  0.1596  0.2531  0.1128
  739POPS   C1A11351  13.098  11.111   6.745 -0.2709 -0.2045 -0.0052
  739POPS   D2A11352  13.141  11.159   7.105 -0.0118 -0.4675 -0.0589
  739POPS   C3A11353  13.457  11.393   7.233 -0.2098  0.1189  0.1774
  739POPS   C4A11354  13.865  11.593   7.378 -0.1475 -0.1636 -0.3183
  739POPS   C1B11355  12.989  11.572   6.800  0.1286  0.0253  0.0072
  739POPS   C2B11356  12.920  11.936   6.793  0.1099  0.1401  0.2008
  739POPS   C3B11357  13.080  12.264   6.998 -0.1063  0.3060 -0.1960
  739POPS   C4B11358  12.855  12.619   7.077 -0.3481 -0.1616  0.0557
  740POPS   CNO11359  12.579   7.774   5.738 -0.0518  0.0279  0.1150
  740POPS   PO411360  12.416   8.156   5.939 -0.0810  0.2003  0.1596
  740POPS   GL111361  12.521   8.029   6.365  0.0365 -0.4331  0.2411
  740POPS   GL211362  12.267   8.226   6.505 -0.1402 -0.0637  0.1027
  740POPS   C1A11363  12.242   7.843   6.764  0.0188 -0.1133 -0.0523
  740POPS   D2A11364  12.170   8.118   7.040 -0.1089  0.0810  0.3265
  740POPS   C3A11365  11.996   8.097   7.365 -0.3125  0.2321 -0.0612
  740POPS   C4A11366  12.109   7.709   7.711 -0.0030  0.3899  0.2446
  740POPS   C1B11367  11.874   8.109   6.597  0.3550 -0.1405  0.0817
  740POPS   C2B11368  11.683   8.326   6.983 -0.3829  0.1124 -0.0027
  740POPS   C3B11369  11.519   8.238   7.379 -0.1031 -0.0182  0.0298
  740POPS   C4B11370  11.618   7.789   7.526  0.0493  0.2068 -0.0181
  741POPS   CNO11371   4.619  14.346   5.507  0.1220 -0.1720 -0.1626
  741POPS   PO411372   4.925  14.257   5.862  0.0060  0.1799 -0.4987
  741POPS   GL111373   5.164  14.063   6.226 -0.0031  0.2381 -0.0812
  741POPS   GL211374   5.097  14.314   6.510 -0.4747 -0.2735  0.1322
  741POPS   C1A11375   5.291  13.912   6.657 -0.1207  0.1092 -0.1139
  741POPS   D2A11376   5.608  13.897   6.884 -0.1468  0.0849  0.3207
  741POPS   C3A11377   5.677  13.842   7.361  0.0181 -0.0737  0.2103
  741POPS   C4A11378   5.920  13.987   7.691 -0.1791 -0.1684  0.1385
  741POPS   C1B11379   4.816  14.093   6.759 -0.0312 -0.1224 -0.3435
  741POPS   C2B11380   4.683  13.836   7.063 -0.1852  0.2901 -0.0677
  741POPS   C3B11381   4.649  13.667   7.415  0.2402 -0.0971 -0.5200
  741POPS   C4B11382   4.341  13.314   7.405 -0.1280  0.3006  0.0665
  742POPS   CNO11383   1.740   3.755   6.043 -0.0861  0.1540 -0.0774
  742POPS   PO411384   1.886   3.366   6.034  0.0246 -0.1399 -0.0433
  742POPS   GL111385   1.896   3.546   6.456  0.1859  0.1035 -0.1257
  742POPS   GL211386   1.914   3.931   6.534 -0.1221 -0.0391 -0.1765
  742POPS   C1A11387   1.790   3.494   6.880 -0.3013  0.0786 -0.0373
  742POPS   D2A11388   1.456   3.543   7.164  0.2893  0.4025 -0.1907
  742POPS   C3A11389   1.231   3.171   7.377  0.2704 -0.0016  0.0956
  742POPS   C4A11390   0.980   3.207   7.707  0.0281  0.0516 -0.0514
  742POPS   C1B11391   2.153   3.814   6.986 -0.2373 -0.0001 -0.2712
  742POPS   C2B11392   2.366   3.984   7.353  0.1084  0.3570 -0.1404
  742POPS   C3B11393   2.157   4.043   7.734 -0.1650  0.1410  0.1516
  742POPS   C4B11394   1.992   4.251   8.089  0.2061 -0.0014  0.1762
  743POPS   CNO11395   5.805   6.244   5.531  0.1385  0.3204  0.2310
  743POPS   PO411396   5.637   6.499   5.739 -0.0807  0.2310 -0.2641
  743POPS   GL111397   5.644   6.719   6.168 -0.1876  0.0652 -0.4898
  743POPS   GL211398   5.313   6.898   6.375 -0.0491  0.2757 -0.0224
  743POPS   C1A11399   5.756   6.822   6.595 -0.1456 -0.1820  0.2217
  743POPS   D2A11400   6.087   6.716   6.833 -0.1609 -0.3602  0.0536
  743POPS   C3A11401   6.359   6.828   7.282  0.1592  0.2151 -0.0028
  743POPS   C4A11402   6.288   7.074   7.518 -0.0067  0.1856  0.0073
  743POPS   C1B11403   5.148   7.096   6.753  0.0918 -0.2309 -0.1039
  743POPS   C2B11404   5.240   7.330   7.212  0.3502 -0.0751 -0.3348
  743POPS   C3B11405   5.435   7.257   7.579  0.0190  0.2428  0.2246
  743POPS   C4B11406   5.675   7.477   7.875 -0.1561 -0.2156  0.1956
  744POPS   CNO11407   7.667   1.687   5.675  0.0258 -0.0058  0.2541
  744POPS   PO411408   8.071   1.562   5.712  0.0663 -0.1920  0.0364
  744POPS   GL111409   8.158   1.745   6.092 -0.5461 -0.0717  0.0394
  744POPS   GL211410   7.898   1.930   6.069  0.2231 -0.0633 -0.0484
  744POPS   C1A11411   8.504   1.517   6.376 -0.1059  0.0256 -0.3475
  744POPS   D2A11412   8.841   1.700   6.520 -0.0499 -0.2130 -0.1138
  744POPS   C3A11413   8.729   2.028   6.840 -0.1060  0.0643  0.0919
  744POPS   C4A11414   8.624   2.087   7.274 -0.0916  0.3545 -0.1824
  744POPS   C1B11415   7.730   2.109   6.381  0.3074  0.2716  0.0232
  744POPS   C2B11416   7.841   1.986   6.815  0.4482 -0.1880 -0.2729
  744POPS   C3B11417   8.045   1.916   7.198 -0.2281 -0.0065  0.1030
  744POPS   C4B11418   8.161   1.810   7.579  0.0610 -0.0326 -0.1889
  745POPS   CNO11419   6.760  15.353   5.530  0.0381 -0.2205 -0.1408
  745POPS   PO411420   6.642  15.486   5.957  0.1270 -0.0952 -0.0266
  745POPS   GL111421   6.533  15.376   6.307 -0.0090  0.0150 -0.0201
  745POPS   GL211422   6.443  15.077   6.367 -0.0812  0.3579  0.2703
  745POPS   C1A11423   6.214  15.492   6.577  0.1091  0.1191 -0.0287
  745POPS   D2A11424   5.929  15.375   6.846  0.3670 -0.0273 -0.0195
  745POPS   C3A11425   5.869  15.841   6.987  0.0040 -0.2395  0.0432
  745POPS   C4A11426   6.075  16.100   7.185 -0.2932  0.0194 -0.1160
  745POPS   C1B11427   6.326  14.997   6.827  0.2448 -0.0823 -0.2537
  745POPS   C2B11428   6.372  15.042   7.180 -0.0729  0.0457  0.1700
  745POPS   C3B11429   6.552  15.066   7.642  0.0361  0.2445 -0.0169
  745POPS   C4B11430   6.654  15.070   8.116  0.0230  0.1263 -0.5408
  746POPS   CNO11431   8.859   7.486   5.751  0.0600  0.0137 -0.1832
  746POPS   PO411432   8.834   7.961   5.894 -0.0021  0.0378 -0.0858
  746POPS   GL111433   8.610   8.221   6.124 -0.1820 -0.0088 -0.2409
  746POPS   GL211434   8.293   8.188   6.186 -0.0856 -0.3938  0.2276
  746POPS   C1A11435   8.859   8.434   6.384 -0.0894  0.0849  0.0758
  746POPS   D2A11436   9.247   8.341   6.733 -0.0645 -0.0329 -0.1260
  746POPS   C3A11437   9.141   8.517   7.269  0.0490  0.2201  0.2196
  746POPS   C4A11438   9.020   8.574   7.644  0.2281 -0.1793  0.3005
  746POPS   C1B11439   8.464   8.175   6.705 -0.0032  0.2048  0.1168
  746POPS   C2B11440   8.419   8.129   7.086  0.1650 -0.2103 -0.0555
  746POPS   C3B11441   8.566   8.255   7.443 -0.0346  0.2054 -0.1027
  746POPS   C4B11442   8.525   8.534   7.814 -0.2025 -0.1033 -0.0376
  747POPS   CNO11443   2.374   9.013   5.733 -0.1715 -0.0434 -0.1006
  747POPS   PO411444   2.082   8.643   5.835 -0.2475 -0.0020 -0.0234
  747POPS   GL111445   1.794   8.615   6.197  0.2973 -0.2265  0.0408
  747POPS   GL211446   1.770   8.252   6.407  0.0407 -0.2338  0.0955
  747POPS   C1A11447   1.783   8.958   6.469  0.0228 -0.1969 -0.3882
  747POPS   D2A11448   2.074   8.928   6.740 -0.0563 -0.1068  0.0733
  747POPS   C3A11449   2.041   8.670   7.083 -0.2060 -0.2257  0.0417
  747POPS   C4A11450   1.740   8.509   7.368  0.0646 -0.2353  0.1758
  747POPS   C1B11451   1.553   8.420   6.683 -0.3181 -0.1357  0.1179
  747POPS   C2B11452   1.591   8.826   6.924  0.2458 -0.2201 -0.0195
  747POPS   C3B11453   1.470   8.950   7.347  0.0070 -0.0661 -0.0129
  747POPS   C4B11454   1.499   9.266   7.567 -0.1156 -0.2280 -0.1725
  748POPS   CNO11455   3.354   9.211   5.561  0.0757 -0.1942 -0.0011
  748POPS   PO411456   3.587   9.020   5.558  0.4806  0.3656 -0.2628
  748POPS   GL111457   3.536   9.168   6.044  0.2303 -0.3445  0.1070
  748POPS   GL211458   3.207   9.192   6.238  0.0019  0.1145  0.0261
  748POPS   C1A11459   3.571   8.992   6.486  0.0125 -0.1684  0.3635
  748POPS   D2A11460   3.572   8.989   6.928  0.0136 -0.3045 -0.1764
  748POPS   C3A11461   3.669   9.211   7.263  0.0924 -0.1287  0.1899
  748POPS   C4A11462   3.870   9.486   7.602 -0.3185 -0.1196  0.3932
  748POPS   C1B11463   3.247   9.312   6.722 -0.1452 -0.2492 -0.0074
  748POPS   C2B11464   3.071   9.225   7.167 -0.1147 -0.3155  0.1650
  748POPS   C3B11465   2.763   8.968   7.343  0.5583 -0.0872  0.2020
  748POPS   C4B11466   2.699   8.642   7.742 -0.1845  0.3151  0.4732
  749POPS   CNO11467   4.050  13.052   6.235 -0.4074 -0.3068 -0.1021
  749POPS   PO411468   3.582  13.218   5.999 -0.1142 -0.0981  0.4442
  749POPS   GL111469   3.461  13.670   6.062  0.1581  0.2985  0.3694
  749POPS   GL211470   3.717  13.845   6.166 -0.0333 -0.1338 -0.2906
  749POPS   C1A11471   3.153  14.018   6.203 -0.1107  0.0330 -0.0598
  749POPS   D2A11472   2.989  14.065   6.650  0.0548 -0.0939 -0.1624
  749POPS   C3A11473   3.272  14.045   7.007  0.1674 -0.1158  0.0097
  749POPS   C4A11474   3.334  13.880   7.403  0.0420 -0.1503 -0.1069
  749POPS   C1B11475   3.912  13.909   6.641  0.0838 -0.1889  0.1737
  749POPS   C2B11476   4.262  14.155   6.710 -0.0656  0.0623 -0.1938
  749POPS   C3B11477   4.373  14.382   7.009 -0.0708 -0.0319  0.1065
  749POPS   C4B11478   4.682  14.289   7.300  0.0382 -0.0071 -0.1274
  750POPS   CNO11479   9.060   0.054   5.370  0.1814 -0.0692  0.1911
  750POPS   PO411480   9.498  -0.050   5.292 -0.3300  0.2481 -0.0927
  750POPS   GL111481   9.756   0.147   5.575 -0.0157 -0.4044  0.2373
  750POPS   GL211482   9.769   0.521   5.611 -0.1102  0.1969 -0.0072
  750POPS   C1A11483  10.064   0.071   5.912 -0.0661 -0.1821  0.1095
  750POPS   D2A11484   9.995   0.058   6.378  0.0455 -0.2316 -0.1663
  750POPS   C3A11485  10.392  -0.141   6.614  0.3166  0.4384 -0.0312
  750POPS   C4A11486  10.841  -0.377   6.754 -0.1336 -0.3949 -0.2348
  750POPS   C1B11487   9.916   0.516   6.064  0.0282  0.1912  0.0276
  750POPS   C2B11488   9.807   0.667   6.409 -0.2665 -0.0184 -0.0997
  750POPS   C3B11489  10.024   0.824   6.734  0.0524 -0.0794  0.0239
  750POPS   C4B11490   9.946   1.161   6.921 -0.1927  0.2607  0.1221
  751POPS   CNO11491  12.724   6.303   5.739 -0.0051  0.1797 -0.1958
  751POPS   PO411492  12.849   6.726   5.679 -0.1212  0.0125  0.1329
  751POPS   GL111493  12.787   6.695   6.024 -0.1474  0.2709  0.0264
  751POPS   GL211494  12.472   6.768   6.087 -0.4128  0.0416  0.2686
  751POPS   C1A11495  12.719   6.345   6.309  0.0380 -0.3514 -0.0939
  751POPS   D2A11496  12.624   6.352   6.806  0.1814 -0.0961  0.1054
  751POPS   C3A11497  12.287   6.074   6.855 -0.3794  0.2778 -0.2861
  751POPS   C4A11498  12.037   5.734   6.814  0.0121  0.1366 -0.3250
  751POPS   C1B11499  12.418   6.709   6.515 -0.2188 -0.2023  0.3057
  751POPS   C2B11500  12.500   6.843   6.887 -0.2745 -0.1262 -0.3613
  751POPS   C3B11501  12.632   7.020   7.325 -0.1589 -0.4131  0.1588
  751POPS   C4B11502  12.493   6.596   7.386  0.1027  0.1621  0.1212
  752POPS   CNO11503   3.958   8.708   5.677  0.2046  0.1016  0.1665
  752POPS   PO411504   4.346   8.838   5.624 -0.0195  0.0350  0.1779
  752POPS   GL111505   4.446   8.600   6.021 -0.0473 -0.0313 -0.0405
  752POPS   GL211506   4.156   8.640   6.141  0.0805  0.1682  0.0901
  752POPS   C1A11507   4.557   8.347   6.393 -0.0327  0.3386 -0.1512
  752POPS   D2A11508   4.722   8.022   6.520  0.0372 -0.2395 -0.0111
  752POPS   C3A11509   4.520   7.937   6.827 -0.1581 -0.1379 -0.3834
  752POPS   C4A11510   4.343   7.584   7.220  0.0970 -0.1632  0.0949
  752POPS   C1B11511   4.271   8.760   6.610  0.2035 -0.0573  0.0781
  752POPS   C2B11512   4.085   8.810   7.012 -0.2029  0.0338 -0.0128
  752POPS   C3B11513   4.111   8.447   7.343 -0.2986  0.0438 -0.1785
  752POPS   C4B11514   4.149   7.937   7.571 -0.3371 -0.1490  0.1293
  753POPS   CNO11515   6.737   9.260   5.346 -0.1013  0.0328 -0.0254
  753POPS   PO411516   6.764   9.245   5.810  0.1387  0.1307 -0.2183
  753POPS   GL111517   6.820   9.166   6.129  0.2156  0.0745  0.0852
  753POPS   GL211518   7.148   9.111   6.262 -0.3928  0.2073  0.0440
  753POPS   C1A11519   6.705   9.061   6.591  0.2829 -0.1141  0.1491
  753POPS   D2A11520   6.674   9.272   7.009 -0.2378 -0.1643 -0.0847
  753POPS   C3A11521   6.926   9.297   7.423  0.3264 -0.0605  0.2416
  753POPS   C4A11522   6.927   9.077   7.797  0.1219  0.0894 -0.2838
  753POPS   C1B11523   7.109   9.396   6.651  0.1942  0.1230 -0.1513
  753POPS   C2B11524   7.078   9.701   6.960 -0.0243 -0.0712 -0.4305
  753POPS   C3B11525   7.319   9.939   7.089 -0.3670 -0.2114  0.1672
  753POPS   C4B11526   7.450  10.237   6.966  0.1974  0.1488 -0.3349
  754POPS   CNO11527  12.568  15.238   6.161  0.0655 -0.2230  0.1183
  754POPS   PO411528  12.674  14.842   6.189 -0.0052 -0.0813 -0.1031
  754POPS   GL111529  12.832  15.057   6.591 -0.3686 -0.0699 -0.0213
  754POPS   GL211530  12.987  15.305   6.687 -0.0270  0.0488 -0.3849
  754POPS   C1A11531  12.637  15.029   6.964 -0.2615  0.5195  0.0656
  754POPS   D2A11532  12.679  14.702   7.232 -0.1962 -0.0583 -0.0438
  754POPS   C3A11533  12.766  14.691   7.702  0.0460 -0.1056  0.2722
  754POPS   C4A11534  12.451  14.555   8.036 -0.1596  0.3260  0.3083
  754POPS   C1B11535  12.919  15.442   7.056  0.0355  0.0320 -0.2687
  754POPS   C2B11536  13.167  15.611   7.369 -0.1317 -0.1335  0.0614
  754POPS   C3B11537  13.582  15.709   7.418 -0.0917 -0.1533  0.2876
  754POPS   C4B11538  14.037  15.749   7.614 -0.0137 -0.2893 -0.1516
  755POPS   CNO11539  14.943  17.041   6.326 -0.1162 -0.1687  0.6205
  755POPS   PO411540  15.334  17.071   6.022 -0.0953 -0.3383 -0.1731
  755POPS   GL111541  15.440  17.132   6.366 -0.2044  0.1142 -0.2316
  755POPS   GL211542  15.604  17.398   6.552  0.0180  0.1607 -0.0720
  755POPS   C1A11543  15.389  17.031   6.800  0.1187  0.2796 -0.0852
  755POPS   D2A11544  15.269  16.801   7.185  0.3107  0.4332 -0.1342
  755POPS   C3A11545  15.487  16.653   7.646  0.1463  0.1278  0.1135
  755POPS   C4A11546  15.435  16.554   8.114  0.1488  0.1658  0.1206
  755POPS   C1B11547  15.427  17.516   6.935  0.0692  0.1181  0.0589
  755POPS   C2B11548  15.388  17.295   7.284  0.0142 -0.0854 -0.0396
  755POPS   C3B11549  15.269  17.112   7.679 -0.1899  0.0469 -0.3388
  755POPS   C4B11550  15.139  16.862   7.965  0.2472  0.1712 -0.1246
  756POPS   CNO11551  11.393   6.872   5.403 -0.0048  0.0523 -0.2295
  756POPS   PO411552  10.947   6.719   5.443 -0.3137 -0.0482  0.1247
  756POPS   GL111553  11.193   6.615   5.867 -0.2528 -0.1679 -0.2049
  756POPS   GL211554  10.996   6.343   5.881  0.2104 -0.1290 -0.0449
  756POPS   C1A11555  11.304   6.730   6.179 -0.2258 -0.0540 -0.1777
  756POPS   D2A11556  11.514   6.960   6.459 -0.0103 -0.1571 -0.1066
  756POPS   C3A11557  11.676   6.764   6.831  0.1091  0.0594  0.0210
  756POPS   C4A11558  12.004   6.576   6.910 -0.3578  0.1079 -0.1674
  756POPS   C1B11559  10.627   6.289   6.131  0.2006 -0.1572 -0.0282
  756POPS   C2B11560  10.553   5.935   6.429  0.3309 -0.2300 -0.0178
  756POPS   C3B11561  10.565   5.792   6.714 -0.0499 -0.1745 -0.1435
  756POPS   C4B11562  10.593   5.773   7.181  0.1053 -0.2878 -0.1797
  757POPS   CNO11563   7.184   4.620   5.467 -0.2408 -0.0613 -0.1106
  757POPS   PO411564   7.014   4.728   5.776  0.1208 -0.0882 -0.1764
  757POPS   GL111565   7.084   4.743   6.115 -0.0070 -0.0056 -0.0459
  757POPS   GL211566   7.168   4.565   6.380 -0.1594 -0.1367 -0.1282
  757POPS   C1A11567   6.990   5.029   6.460  0.0418  0.3190 -0.1646
  757POPS   D2A11568   6.944   5.242   6.839  0.0410  0.0283  0.2384
  757POPS   C3A11569   7.080   5.667   6.984  0.0703 -0.1673  0.0055
  757POPS   C4A11570   7.174   5.838   7.328 -0.1995  0.4403  0.0841
  757POPS   C1B11571   6.984   4.500   6.763  0.2964 -0.0103 -0.2597
  757POPS   C2B11572   6.700   4.353   7.124  0.0882 -0.0521  0.1531
  757POPS   C3B11573   6.472   4.237   7.467 -0.0973 -0.1110  0.2199
  757POPS   C4B11574   6.479   3.941   7.862 -0.0513 -0.0306 -0.0156
  758POPS   CNO11575  11.908  11.918   6.159 -0.2664  0.0325  0.0873
  758POPS   PO411576  12.299  12.075   6.083 -0.0158 -0.1378 -0.1078
  758POPS   GL111577  12.231  12.205   6.524 -0.0988 -0.1633  0.2903
  758POPS   GL211578  12.006  12.456   6.493 -0.0541 -0.1189 -0.4324
  758POPS   C1A11579  12.474  12.243   6.923  0.2698  0.3012 -0.0521
  758POPS   D2A11580  12.592  12.296   7.396  0.0196 -0.0402 -0.2200
  758POPS   C3A11581  12.984  12.333   7.490 -0.0097  0.1458  0.1622
  758POPS   C4A11582  13.388  12.534   7.442  0.1007 -0.3406 -0.2701
  758POPS   C1B11583  12.103  12.521   6.927  0.0520 -0.1720 -0.1502
  758POPS   C2B11584  12.367  12.755   7.299 -0.0793 -0.0195  0.0313
  758POPS   C3B11585  12.754  12.760   7.593 -0.2053  0.0776  0.1496
  758POPS   C4B11586  12.820  12.784   8.026  0.0976 -0.1139 -0.1290
  759POPS   CNO11587  10.930   6.185   5.424  0.3380  0.2810 -0.0686
  759POPS   PO411588  10.857   5.866   5.676 -0.3135 -0.0164 -0.0049
  759POPS   GL111589  10.980   5.916   6.157  0.0503  0.0015  0.2129
  759POPS   GL211590  11.034   5.705   6.471 -0.0127 -0.0556 -0.1228
  759POPS   C1A11591  11.019   6.192   6.496  0.0325  0.0112 -0.0160
  759POPS   D2A11592  11.381   6.403   6.630  0.1582 -0.1314 -0.2423
  759POPS   C3A11593  11.380   6.394   7.032  0.1258 -0.0017 -0.0485
  759POPS   C4A11594  11.240   6.223   7.318 -0.1208 -0.3118  0.1458
  759POPS   C1B11595  10.998   5.975   6.962  0.3116  0.1136 -0.0497
  759POPS   C2B11596  10.825   6.389   7.050  0.2913  0.1771 -0.3212
  759POPS   C3B11597  11.016   6.676   7.322  0.0410  0.1317  0.0579
  759POPS   C4B11598  11.333   6.621   7.599  0.0960  0.2583  0.1254
  760POPS   CNO11599   8.522  17.751   5.946  0.1970  0.2234 -0.2821
  760POPS   PO411600   8.814  17.954   5.683 -0.0746  0.1729  0.1683
  760POPS   GL111601   8.796  18.415   5.817 -0.2410 -0.3077  0.1290
  760POPS   GL211602   8.459  18.622   5.982 -0.2163  0.0227  0.2844
  760POPS   C1A11603   9.017  18.534   6.206  0.1957  0.2119 -0.1405
  760POPS   D2A11604   9.050  18.658   6.600  0.1238  0.1132 -0.0940
  760POPS   C3A11605   9.168  18.801   7.056  0.2208 -0.2191  0.0519
  760POPS   C4A11606   9.299  18.953   7.451 -0.2543 -0.1434 -0.0308
  760POPS   C1B11607   8.542  18.346   6.282 -0.2598 -0.0417  0.2816
  760POPS   C2B11608   8.774  18.081   6.573 -0.1578  0.1724  0.0189
  760POPS   C3B11609   9.036  17.928   6.921 -0.2330 -0.1198 -0.0379
  760POPS   C4B11610   9.413  17.936   7.131  0.3769 -0.1677  0.1616
  761POPS   CNO11611   2.545   4.672   5.806 -0.1407 -0.1775  0.1032
  761POPS   PO411612   2.314   4.425   6.138  0.3673  0.2095  0.3421
  761POPS   GL111613   2.123   4.417   6.520 -0.3539  0.1925  0.1336
  761POPS   GL211614   2.373   4.098   6.580 -0.1293  0.3862  0.0805
  761POPS   C1A11615   2.254   4.390   6.993  0.2136  0.2314  0.2193
  761POPS   D2A11616   2.352   4.455   7.354  0.2574  0.0142  0.2068
  761POPS   C3A11617   2.113   4.614   7.737  0.0983 -0.0179  0.2339
  761POPS   C4A11618   2.116   4.881   7.955  0.0220  0.2030  0.2366
  761POPS   C1B11619   2.668   3.888   6.856  0.0573 -0.1017  0.1568
  761POPS   C2B11620   2.895   3.733   7.192 -0.0721  0.0104 -0.0028
  761POPS   C3B11621   2.918   3.870   7.528 -0.2566 -0.1115  0.0576
  761POPS   C4B11622   3.066   4.089   7.986  0.3874  0.0021 -0.2280
  762POPS   CNO11623   1.211   1.739   6.200  0.1555 -0.0022 -0.0411
  762POPS   PO411624   0.833   1.655   6.110 -0.2534  0.1156  0.0777
  762POPS   GL111625   0.858   2.010   6.602 -0.3212  0.0780  0.1950
  762POPS   GL211626   1.106   2.235   6.645 -0.1076 -0.2086 -0.1651
  762POPS   C1A11627   0.857   2.244   7.149  0.0423 -0.2283  0.0074
  762POPS   D2A11628   0.893   2.286   7.596 -0.0539 -0.1649 -0.1911
  762POPS   C3A11629   1.068   1.898   7.791 -0.3201  0.1126 -0.0895
  762POPS   C4A11630   0.940   1.668   8.085 -0.0586 -0.2199  0.1094
  762POPS   C1B11631   1.495   2.011   6.675  0.0348  0.0350 -0.0435
  762POPS   C2B11632   1.808   1.980   7.132 -0.2462 -0.0961  0.2065
  762POPS   C3B11633   1.824   2.057   7.528  0.1473  0.1243  0.2270
  762POPS   C4B11634   1.511   2.115   7.906 -0.0016 -0.0821  0.2300
  763POPS   CNO11635  15.219   7.166   6.146  0.0816 -0.2578 -0.0174
  763POPS   PO411636  15.248   7.644   6.036 -0.1751 -0.2767 -0.0623
  763POPS   GL111637  15.228   7.635   6.427 -0.1708 -0.0055 -0.1851
  763POPS   GL211638  15.062   7.859   6.650 -0.0470 -0.0183  0.2334
  763POPS   C1A11639  15.669   7.778   6.500 -0.0971  0.0186  0.4772
  763POPS   D2A11640  15.976   7.948   6.876 -0.1405 -0.2258  0.3621
  763POPS   C3A11641  15.866   7.820   7.300  0.0822 -0.3005  0.2722
  763POPS   C4A11642  16.021   7.709   7.727 -0.1518  0.0547 -0.3547
  763POPS   C1B11643  15.093   7.573   6.935 -0.2993  0.0579 -0.1488
  763POPS   C2B11644  15.017   7.431   7.271 -0.0177  0.1315  0.1249
  763POPS   C3B11645  14.702   7.273   7.481  0.1555  0.1696  0.0417
  763POPS   C4B11646  14.373   7.061   7.216 -0.0016 -0.3952 -0.3124
  764POPS   CNO11647  10.455   2.124   5.344 -0.4615 -0.0049 -0.3592
  764POPS   PO411648  10.784   2.093   5.611 -0.1461 -0.1082 -0.2062
  764POPS   GL111649  10.707   1.962   5.992  0.1008  0.1213  0.2605
  764POPS   GL211650  10.745   2.193   6.185 -0.3526 -0.1376  0.2173
  764POPS   C1A11651  10.448   1.679   6.281  0.1379 -0.0939 -0.2193
  764POPS   D2A11652  10.686   1.260   6.388  0.0224  0.0772  0.1636
  764POPS   C3A11653  10.691   1.057   6.774  0.4955 -0.0110 -0.2143
  764POPS   C4A11654  10.484   0.742   7.009 -0.1596  0.0402  0.1638
  764POPS   C1B11655  10.643   2.047   6.588  0.1914  0.0582 -0.0782
  764POPS   C2B11656  10.618   2.065   6.959  0.4163 -0.1076 -0.1201
  764POPS   C3B11657  10.667   1.878   7.321 -0.1646  0.3267 -0.0945
  764POPS   C4B11658  10.561   1.621   7.638 -0.1308  0.0530  0.1168
  765POPS   CNO11659  17.694  13.522   5.953 -0.0139  0.2530  0.3382
  765POPS   PO411660  17.660  13.035   6.017  0.0691 -0.1329 -0.1375
  765POPS   GL111661  17.630  12.943   6.451 -0.0186  0.1554  0.0773
  765POPS   GL211662  17.697  13.327   6.524  0.2234  0.0800  0.1286
  765POPS   C1A11663  17.910  12.906   6.793 -0.3004  0.0196 -0.0997
  765POPS   D2A11664  18.029  12.787   7.170  0.0980 -0.0276 -0.1440
  765POPS   C3A11665  17.928  13.096   7.472 -0.1736 -0.1526  0.0159
  765POPS   C4A11666  17.777  13.439   7.754  0.0105 -0.0358 -0.3192
  765POPS   C1B11667  17.880  13.371   6.944 -0.0210 -0.0785  0.0901
  765POPS   C2B11668  17.762  13.565   7.281 -0.1585  0.0220 -0.1362
  765POPS   C3B11669  17.592  13.932   7.505 -0.3012 -0.0895 -0.2602
  765POPS   C4B11670  17.113  14.067   7.524  0.1040 -0.3704 -0.1285
  766POPS   CNO11671   1.333   2.708   6.065  0.0429 -0.1407 -0.0309
  766POPS   PO411672   0.983   2.905   6.217 -0.1258  0.0539 -0.0166
  766POPS   GL111673   1.072   3.021   6.622 -0.0602  0.1815 -0.1009
  766POPS   GL211674   1.315   3.344   6.583  0.1572 -0.1595 -0.2520
  766POPS   C1A11675   0.905   3.325   6.962  0.0251 -0.0821  0.1076
  766POPS   D2A11676   0.880   3.542   7.321 -0.0076  0.0702  0.0056
  766POPS   C3A11677   0.530   3.469   7.624 -0.1797  0.4324  0.0762
  766POPS   C4A11678   0.513   3.299   8.049 -0.2887  0.1121  0.0936
  766POPS   C1B11679   1.549   2.986   6.824  0.1076  0.1483 -0.0803
  766POPS   C2B11680   1.680   2.966   7.268  0.2384  0.3619 -0.0676
  766POPS   C3B11681   1.632   3.257   7.644  0.2052 -0.1019  0.0919
  766POPS   C4B11682   1.633   3.238   8.062  0.0086 -0.2383  0.0595
  767POPS   CNO11683  17.088   9.975   5.627 -0.0719 -0.0890  0.2245
  767POPS   PO411684  16.946   9.552   5.784 -0.2561 -0.0827  0.0240
  767POPS   GL111685  16.915   9.469   6.239  0.2072  0.1775 -0.1194
  767POPS   GL211686  16.886   9.704   6.426  0.1699  0.1929  0.1982
  767POPS   C1A11687  16.673   9.207   6.534  0.3462 -0.2486  0.0196
  767POPS   D2A11688  16.709   9.091   6.916  0.4477  0.0004 -0.1460
  767POPS   C3A11689  16.794   8.736   7.254 -0.1678  0.1947 -0.1388
  767POPS   C4A11690  17.037   8.542   7.633  0.0017 -0.0057  0.2178
  767POPS   C1B11691  17.054   9.522   6.751  0.1800  0.3707 -0.1275
  767POPS   C2B11692  17.145   9.320   7.172 -0.1504 -0.0580  0.0842
  767POPS   C3B11693  17.154   9.403   7.568  0.3285 -0.1624  0.0789
  767POPS   C4B11694  17.438   9.808   7.775 -0.1917 -0.3032  0.1014
  768POPS   CNO11695   5.724  13.418   5.681  0.0241  0.2570  0.2678
  768POPS   PO411696   5.842  13.619   6.075  0.1842 -0.1022 -0.0273
  768POPS   GL111697   5.635  13.537   6.449  0.0840  0.0348  0.0255
  768POPS   GL211698   5.818  13.321   6.463  0.1595  0.1931  0.0170
  768POPS   C1A11699   5.315  13.497   6.848 -0.2382  0.0829  0.0551
  768POPS   D2A11700   5.124  13.221   7.077  0.0119 -0.3293 -0.4564
  768POPS   C3A11701   5.041  13.282   7.444  0.0089  0.1263 -0.3252
  768POPS   C4A11702   4.678  13.279   7.822 -0.0394  0.3185  0.2934
  768POPS   C1B11703   5.815  13.474   6.869  0.0527  0.2701 -0.1671
  768POPS   C2B11704   5.600  13.325   7.242  0.5154  0.2778 -0.1096
  768POPS   C3B11705   5.469  13.056   7.661 -0.0933  0.0923 -0.1423
  768POPS   C4B11706   5.130  12.953   7.946  0.2227 -0.6765  0.2816
  769POPS   CNO11707  15.090   4.214   5.601  0.0757  0.6122 -0.0672
  769POPS   PO411708  15.123   4.507   5.843  0.1831 -0.3435 -0.2144
  769POPS   GL111709  15.032   4.374   6.253  0.2184  0.0458 -0.1174
  769POPS   GL211710  15.297   4.519   6.359 -0.0224 -0.0481  0.5064
  769POPS   C1A11711  14.689   4.282   6.531 -0.1769  0.1238 -0.0269
  769POPS   D2A11712  14.354   4.552   6.517  0.1379 -0.2709  0.1518
  769POPS   C3A11713  14.350   4.779   6.831 -0.1989  0.0885 -0.0396
  769POPS   C4A11714  14.349   4.762   7.305 -0.2253  0.0393 -0.1661
  769POPS   C1B11715  15.323   4.807   6.645  0.0432 -0.0339  0.0354
  769POPS   C2B11716  15.401   4.812   7.046 -0.0424  0.2192 -0.0385
  769POPS   C3B11717  15.316   4.919   7.578 -0.0925  0.1985 -0.2651
  769POPS   C4B11718  15.115   4.885   7.976  0.0727  0.1210 -0.0768
  770POPS   CNO11719   9.759  15.161   5.606 -0.2110  0.1946  0.3212
  770POPS   PO411720   9.555  15.157   5.953  0.0529  0.1551  0.0974
  770POPS   GL111721   9.725  15.347   6.109  0.3096 -0.0119  0.2966
  770POPS   GL211722   9.868  15.068   6.318  0.0442 -0.0757 -0.0066
  770POPS   C1A11723  10.036  15.543   6.397 -0.3018  0.0612 -0.0146
  770POPS   D2A11724  10.080  15.466   6.842 -0.1806  0.2825 -0.2445
  770POPS   C3A11725  10.184  15.104   6.772 -0.2589  0.2603  0.4106
  770POPS   C4A11726   9.928  14.720   6.718  0.0663 -0.1310 -0.1093
  770POPS   C1B11727   9.654  15.241   6.636 -0.0151  0.2670  0.0408
  770POPS   C2B11728   9.552  15.480   6.855 -0.3947 -0.1823 -0.0661
  770POPS   C3B11729   9.487  15.799   6.985  0.2018 -0.1529 -0.0060
  770POPS   C4B11730   9.387  16.201   7.223 -0.1110 -0.4323 -0.0435
  771POPS   CNO11731   2.013   9.592   5.994  0.2930 -0.0675 -0.3768
  771POPS   PO411732   1.637   9.569   5.758  0.4446  0.3836  0.3852
  771POPS   GL111733   1.619   9.861   6.094  0.2525  0.1284 -0.1810
  771POPS   GL211734   1.397   9.887   6.359 -0.0879 -0.0774  0.0961
  771POPS   C1A11735   1.963   9.898   6.389 -0.0457  0.2022  0.0474
  771POPS   D2A11736   2.163   9.382   6.589 -0.0027  0.1740  0.1030
  771POPS   C3A11737   2.336   9.218   7.016 -0.2334  0.3949 -0.2586
  771POPS   C4A11738   2.366   9.238   7.517 -0.0442  0.2340 -0.1476
  771POPS   C1B11739   1.600   9.951   6.780 -0.2779  0.3224  0.0282
  771POPS   C2B11740   1.717   9.913   7.094  0.0422 -0.0780  0.1658
  771POPS   C3B11741   1.532   9.796   7.490 -0.3385  0.1581  0.1851
  771POPS   C4B11742   1.762   9.732   7.869  0.1557  0.2209  0.0224
  772POPS   CNO11743   8.981  17.473   5.548  0.1357  0.1590  0.0192
  772POPS   PO411744   8.848  17.376   5.970  0.0875 -0.1208  0.3280
  772POPS   GL111745   9.119  17.078   6.214 -0.1546  0.0598 -0.0985
  772POPS   GL211746   9.277  16.863   6.121 -0.0172  0.0350 -0.1545
  772POPS   C1A11747   9.219  16.955   6.637 -0.3459 -0.0881  0.0090
  772POPS   D2A11748   9.447  16.639   6.898  0.0397 -0.0448  0.1022
  772POPS   C3A11749   9.524  16.721   7.302 -0.0954  0.1421  0.0572
  772POPS   C4A11750   9.673  17.074   7.616  0.0436 -0.0378  0.2333
  772POPS   C1B11751   9.533  16.563   6.382  0.1166  0.1401 -0.1377
  772POPS   C2B11752   9.426  16.191   6.663 -0.0991  0.1804  0.0879
  772POPS   C3B11753   9.009  16.028   6.828  0.2661  0.1100  0.2494
  772POPS   C4B11754   8.693  15.740   6.999 -0.0508 -0.0559  0.1795
  773POPS   CNO11755  15.055   2.640   5.778 -0.1782 -0.0159 -0.3021
  773POPS   PO411756  15.430   2.755   5.832 -0.1342 -0.1695  0.0615
  773POPS   GL111757  15.468   2.794   6.257 -0.3117  0.1954 -0.0145
  773POPS   GL211758  15.769   2.784   6.385  0.1973 -0.1928  0.0491
  773POPS   C1A11759  15.232   2.864   6.547 -0.1233  0.0701  0.0776
  773POPS   D2A11760  14.846   2.945   6.700  0.1527 -0.3605 -0.0001
  773POPS   C3A11761  14.848   2.848   7.087  0.1394  0.2262  0.2697
  773POPS   C4A11762  14.715   2.461   7.290  0.0317 -0.3214  0.0473
  773POPS   C1B11763  15.675   2.775   6.760  0.2552  0.0291  0.2837
  773POPS   C2B11764  15.647   2.784   7.052 -0.1943  0.1106 -0.1797
  773POPS   C3B11765  15.769   2.652   7.473 -0.0133  0.2446 -0.5436
  773POPS   C4B11766  15.825   2.326   7.676  0.3123  0.2300  0.1197
  774POPS   CNO11767  17.886   4.431   6.180 -0.1050  0.0187 -0.0388
  774POPS   PO411768  18.225   4.192   6.153  0.1546 -0.0542  0.1631
  774POPS   GL111769  18.411   4.115   6.494 -0.3908 -0.3813  0.1193
  774POPS   GL211770  18.353   3.887   6.663 -0.3204 -0.1167  0.1912
  774POPS   C1A11771  18.216   4.303   6.919 -0.0921  0.1122 -0.1780
  774POPS   D2A11772  18.174   4.648   7.150 -0.0352  0.0504 -0.0866
  774POPS   C3A11773  18.083   4.623   7.619  0.3161 -0.2600 -0.2361
  774POPS   C4A11774  18.358   4.845   7.945  0.2124  0.0233 -0.1048
  774POPS   C1B11775  18.053   3.768   7.016 -0.0587 -0.0977  0.1969
  774POPS   C2B11776  17.733   3.556   7.264 -0.3138 -0.0822 -0.0774
  774POPS   C3B11777  17.297   3.670   7.335  0.0458 -0.0566  0.2378
  774POPS   C4B11778  17.001   3.347   7.404  0.1294 -0.2870  0.3074
  775POPS   CNO11779   2.622   6.907   5.358  0.0915 -0.1454  0.3124
  775POPS   PO411780   2.396   7.033   5.779  0.0889 -0.1502 -0.3830
  775POPS   GL111781   2.252   6.972   6.232 -0.1082  0.0288  0.1546
  775POPS   GL211782   2.101   7.207   6.244 -0.0469 -0.1606 -0.0961
  775POPS   C1A11783   2.276   6.871   6.715 -0.1589 -0.3281 -0.0830
  775POPS   D2A11784   2.038   7.149   6.928 -0.0211  0.0517 -0.1606
  775POPS   C3A11785   1.810   7.223   7.246  0.2348 -0.2278  0.0747
  775POPS   C4A11786   1.878   7.076   7.637  0.2294  0.0073 -0.1788
  775POPS   C1B11787   1.841   7.393   6.494  0.1253  0.0325 -0.2414
  775POPS   C2B11788   1.599   7.888   6.652 -0.1236  0.1766 -0.0820
  775POPS   C3B11789   1.167   8.048   6.806 -0.2739  0.0059  0.1436
  775POPS   C4B11790   0.802   8.346   6.955 -0.3241 -0.2443  0.1770
  776POPS   CNO11791  15.347  12.184   5.845 -0.3181  0.2349  0.1854
  776POPS   PO411792  14.969  12.380   6.055 -0.0401 -0.0525 -0.1900
  776POPS   GL111793  15.135  12.161   6.352 -0.0035  0.3361 -0.4327
  776POPS   GL211794  14.918  11.780   6.356 -0.2184 -0.0335  0.0629
  776POPS   C1A11795  15.273  12.292   6.747  0.2277 -0.2485 -0.0013
  776POPS   D2A11796  15.250  12.070   7.143 -0.2134 -0.0153  0.0257
  776POPS   C3A11797  15.298  12.357   7.520  0.0128 -0.0945 -0.3789
  776POPS   C4A11798  15.507  12.418   7.973  0.1340 -0.2132  0.3276
  776POPS   C1B11799  14.946  11.797   6.788 -0.3733 -0.1269  0.2130
  776POPS   C2B11800  14.916  11.700   7.180  0.0301 -0.0622 -0.0137
  776POPS   C3B11801  14.870  11.629   7.537 -0.2613  0.2692  0.0191
  776POPS   C4B11802  14.834  11.529   7.893 -0.1719 -0.1049 -0.2559
  777POPS   CNO11803   4.707  15.258   5.763  0.1023  0.0705  0.2497
  777POPS   PO411804   4.889  15.174   6.081 -0.1373  0.1104  0.2540
  777POPS   GL111805   4.931  15.144   6.532 -0.0115 -0.5102  0.0644
  777POPS   GL211806   5.046  15.454   6.634 -0.0789 -0.3848 -0.1982
  777POPS   C1A11807   5.037  15.114   7.019 -0.0662 -0.0498  0.0110
  777POPS   D2A11808   5.316  14.800   7.248 -0.1312  0.2855 -0.0973
  777POPS   C3A11809   5.167  14.437   7.547 -0.3172  0.1973 -0.0460
  777POPS   C4A11810   4.823  14.090   7.722 -0.2508  0.0980 -0.1530
  777POPS   C1B11811   5.021  15.651   7.048  0.0467  0.0908  0.6952
  777POPS   C2B11812   5.341  15.897   7.270  0.1240 -0.1319  0.0227
  777POPS   C3B11813   5.341  16.114   7.640 -0.0380 -0.3214  0.2173
  777POPS   C4B11814   5.010  16.370   7.786  0.1638  0.2539 -0.1891
  778POPS   CNO11815  18.181  14.256   5.964 -0.1117 -0.0181  0.2893
  778POPS   PO411816  17.820  14.596   5.905 -0.1437  0.2053  0.1481
  778POPS   GL111817  18.074  14.674   6.363 -0.1903 -0.1903 -0.0116
  778POPS   GL211818  18.454  14.744   6.385 -0.1696  0.1265 -0.1904
  778POPS   C1A11819  18.016  14.909   6.752 -0.0912 -0.1529  0.0909
  778POPS   D2A11820  18.180  14.932   7.267 -0.0099 -0.1426 -0.1887
  778POPS   C3A11821  18.106  15.260   7.569  0.0859 -0.0743 -0.1757
  778POPS   C4A11822  17.919  15.635   7.810  0.0759  0.0500 -0.1707
  778POPS   C1B11823  18.530  15.116   6.742 -0.3165 -0.0377  0.1019
  778POPS   C2B11824  18.358  15.275   7.010 -0.2159 -0.1495  0.3770
  778POPS   C3B11825  17.878  15.293   7.079  0.0713  0.0805  0.4483
  778POPS   C4B11826  17.629  15.499   7.392 -0.0565 -0.2904  0.3950
  779POPS   CNO11827  17.386  16.141   6.116  0.0704  0.1193 -0.1430
  779POPS   PO411828  17.193  15.771   5.979  0.2313  0.0102 -0.2034
  779POPS   GL111829  17.106  15.746   6.371 -0.0297  0.0103  0.1719
  779POPS   GL211830  17.364  15.574   6.446 -0.2298 -0.1456 -0.0807
  779POPS   C1A11831  16.940  15.548   6.762 -0.1753 -0.0156  0.1701
  779POPS   D2A11832  17.213  15.569   7.063 -0.1940 -0.0141 -0.1470
  779POPS   C3A11833  17.142  15.486   7.455 -0.1830  0.1078 -0.1724
  779POPS   C4A11834  17.469  15.252   7.799  0.2421 -0.0127  0.0490
  779POPS   C1B11835  17.506  15.886   6.718  0.3840 -0.3662  0.0092
  779POPS   C2B11836  17.422  16.326   6.837  0.1476 -0.1213 -0.1737
  779POPS   C3B11837  17.563  16.495   7.225 -0.0502  0.0876  0.1783
  779POPS   C4B11838  17.554  16.458   7.667 -0.0364  0.0104  0.0858
  780POPS   CNO11839  13.079  15.236   6.199  0.0425  0.1327  0.0258
  780POPS   PO411840  13.448  14.983   6.065 -0.0063 -0.3050 -0.1733
  780POPS   GL111841  13.376  14.885   6.555  0.0163 -0.0012  0.1634
  780POPS   GL211842  13.447  15.213   6.688  0.0428  0.1552  0.0570
  780POPS   C1A11843  13.175  14.761   6.900 -0.0127  0.3819 -0.2008
  780POPS   D2A11844  13.158  14.493   7.237  0.0046 -0.0120  0.0173
  780POPS   C3A11845  13.329  14.650   7.671  0.0475  0.1249 -0.1657
  780POPS   C4A11846  13.579  14.919   7.887 -0.0860 -0.1115 -0.1777
  780POPS   C1B11847  13.474  15.606   6.926 -0.0297 -0.1544 -0.4575
  780POPS   C2B11848  13.425  15.994   6.621 -0.1065 -0.0756 -0.0140
  780POPS   C3B11849  13.173  16.337   6.629  0.0247 -0.1904 -0.3061
  780POPS   C4B11850  12.756  16.367   6.874  0.0486 -0.0247 -0.4397
  781POPS   CNO11851  16.883   7.866   6.110  0.0940  0.2028 -0.1592
  781POPS   PO411852  16.419   7.824   6.177  0.1786 -0.1829 -0.0574
  781POPS   GL111853  16.531   7.657   6.561 -0.0144  0.1824  0.3167
  781POPS   GL211854  16.793   7.430   6.493  0.0774  0.0186 -0.0480
  781POPS   C1A11855  16.452   7.615   6.915 -0.2538  0.0961 -0.2159
  781POPS   D2A11856  16.367   7.862   7.308 -0.1455  0.2074  0.2687
  781POPS   C3A11857  16.574   7.961   7.657  0.1827  0.5268 -0.0601
  781POPS   C4A11858  16.836   7.973   8.004 -0.2932 -0.1115  0.1900
  781POPS   C1B11859  16.540   7.175   6.706 -0.1365  0.4521 -0.3783
  781POPS   C2B11860  16.194   7.277   7.076  0.0638  0.5072  0.2257
  781POPS   C3B11861  15.894   7.280   7.328  0.2227 -0.4976  0.2554
  781POPS   C4B11862  15.548   7.471   7.421 -0.1958  0.1894  0.2196
  782POPS   CNO11863   0.404   4.905   5.977  0.1902 -0.3050 -0.0339
  782POPS   PO411864   0.827   5.009   5.972 -0.1411 -0.2381 -0.3615
  782POPS   GL111865   0.895   4.939   6.324  0.1880  0.2102 -0.4931
  782POPS   GL211866   0.702   4.624   6.318  0.1312  0.4776  0.1758
  782POPS   C1A11867   1.217   4.791   6.663 -0.0075  0.0445  0.1912
  782POPS   D2A11868   1.576   4.550   6.599  0.1887  0.0982  0.3180
  782POPS   C3A11869   1.837   4.636   6.909  0.2928  0.0778  0.0480
  782POPS   C4A11870   1.886   4.761   7.289  0.0876 -0.0784  0.2124
  782POPS   C1B11871   0.731   4.641   6.772 -0.1309 -0.1784  0.1605
  782POPS   C2B11872   0.795   4.472   7.236 -0.0836  0.0432  0.3074
  782POPS   C3B11873   0.944   4.535   7.692 -0.0072 -0.1010  0.0109
  782POPS   C4B11874   1.249   4.483   8.034  0.0370  0.1180 -0.3268
  783POPS   CNO11875   2.794   2.613   5.102  0.1220  0.0020 -0.2648
  783POPS   PO411876   2.879   2.473   5.614  0.4447  0.0432 -0.2678
  783POPS   GL111877   2.931   2.321   6.086 -0.3418 -0.2420 -0.0393
  783POPS   GL211878   2.901   2.502   6.286 -0.2896  0.4742  0.0759
  783POPS   C1A11879   3.238   2.211   6.490  0.1908  0.1472  0.0426
  783POPS   D2A11880   3.707   2.353   6.540  0.0036  0.0154 -0.2974
  783POPS   C3A11881   3.770   2.384   6.956  0.0898  0.1130 -0.0211
  783POPS   C4A11882   3.911   2.393   7.351 -0.3231 -0.0593  0.1049
  783POPS   C1B11883   3.012   2.573   6.763 -0.1528 -0.3162  0.2162
  783POPS   C2B11884   2.985   2.717   7.173 -0.3691 -0.0810 -0.0584
  783POPS   C3B11885   3.185   2.912   7.455 -0.2440  0.0375 -0.3412
  783POPS   C4B11886   3.079   3.004   7.852 -0.0305 -0.0635 -0.0843
  784POPS   CNO11887  15.154   0.526   5.607  0.2377  0.4512  0.0013
  784POPS   PO411888  15.006   0.308   5.938  0.2149 -0.0660 -0.0379
  784POPS   GL111889  15.121   0.311   6.387 -0.1135  0.3345  0.2449
  784POPS   GL211890  15.335   0.102   6.427  0.0068 -0.0781 -0.1517
  784POPS   C1A11891  14.976   0.519   6.653 -0.0713 -0.0582 -0.0070
  784POPS   D2A11892  14.808   0.910   6.815  0.0719 -0.0940 -0.2503
  784POPS   C3A11893  14.772   1.016   7.298 -0.0817 -0.0840  0.0459
  784POPS   C4A11894  14.917   0.768   7.573  0.1070 -0.0169 -0.0218
  784POPS   C1B11895  15.437   0.245   6.769 -0.4031 -0.1243  0.0656
  784POPS   C2B11896  15.275   0.178   7.177  0.1482  0.1353 -0.0951
  784POPS   C3B11897  14.918   0.259   7.477 -0.0801 -0.0637 -0.3515
  784POPS   C4B11898  14.475   0.211   7.352  0.0920  0.2064 -0.0086
  785POPS   CNO11899  18.258   6.472   5.551  0.0886 -0.0288  0.2631
  785POPS   PO411900  18.123   6.389   6.001 -0.4129 -0.0859  0.1110
  785POPS   GL111901  17.925   6.429   6.366 -0.2838 -0.1749 -0.0758
  785POPS   GL211902  17.599   6.490   6.412 -0.0394  0.4180  0.2596
  785POPS   C1A11903  18.077   6.098   6.653  0.2130 -0.2159 -0.1760
  785POPS   D2A11904  18.272   5.864   7.123 -0.2556 -0.2086 -0.1755
  785POPS   C3A11905  18.067   5.654   7.342  0.1001 -0.3279  0.1958
  785POPS   C4A11906  17.721   5.632   7.710  0.0045 -0.0358 -0.2150
  785POPS   C1B11907  17.720   6.491   6.818  0.0014 -0.0866  0.0553
  785POPS   C2B11908  17.755   6.576   7.243 -0.0294  0.1218 -0.0789
  785POPS   C3B11909  17.931   6.406   7.621 -0.1761 -0.1081  0.1303
  785POPS   C4B11910  18.023   6.068   7.743 -0.0436 -0.0049  0.0425
  786POPS   CNO11911  10.186   5.114   5.260  0.1333 -0.0250  0.1171
  786POPS   PO411912   9.896   5.165   5.466 -0.0832  0.2853 -0.2046
  786POPS   GL111913  10.240   5.058   5.746  0.0045 -0.1197  0.1391
  786POPS   GL211914  10.491   5.231   5.947  0.0149  0.1038 -0.2256
  786POPS   C1A11915  10.282   4.875   6.250 -0.2029  0.3276  0.1187
  786POPS   D2A11916  10.665   4.575   6.389  0.0264 -0.0169 -0.0624
  786POPS   C3A11917  10.447   4.326   6.699  0.2313  0.2649  0.3020
  786POPS   C4A11918  10.116   4.420   6.994  0.1643  0.1698 -0.0872
  786POPS   C1B11919  10.744   5.165   6.311 -0.0291 -0.3550  0.0113
  786POPS   C2B11920  10.692   4.933   6.695  0.2349 -0.0624 -0.0949
  786POPS   C3B11921  10.342   4.856   6.774  0.0453  0.1811  0.2020
  786POPS   C4B11922   9.948   5.090   6.622  0.3096  0.4627  0.1268
  787POPS   CNO11923   2.277  11.300   5.919 -0.0549  0.0060  0.1149
  787POPS   PO411924   1.837  11.285   6.108  0.3235 -0.0329 -0.1668
  787POPS   GL111925   1.782  11.413   6.525  0.2130  0.0623 -0.3432
  787POPS   GL211926   1.591  11.642   6.520  0.0932 -0.1922  0.0544
  787POPS   C1A11927   1.635  11.407   7.026 -0.1483 -0.0302  0.2045
  787POPS   D2A11928   1.695  11.857   7.076  0.0567 -0.1266 -0.0624
  787POPS   C3A11929   1.433  12.161   7.263  0.0881 -0.1678 -0.1400
  787POPS   C4A11930   0.987  12.373   7.089  0.1143  0.3420 -0.0460
  787POPS   C1B11931   1.232  11.866   6.701  0.2704  0.2026  0.2276
  787POPS   C2B11932   1.224  12.366   6.674 -0.1180 -0.0950  0.1376
  787POPS   C3B11933   1.137  12.719   6.787 -0.1695  0.2280  0.0276
  787POPS   C4B11934   1.162  13.184   6.710  0.0078  0.1757  0.0655
  788POPS   CNO11935   9.034  10.944   5.884  0.0845  0.1049  0.1320
  788POPS   PO411936   9.169  10.728   6.281 -0.2936 -0.1488 -0.4159
  788POPS   GL111937   8.964  10.706   6.599  0.0046 -0.1494  0.0257
  788POPS   GL211938   8.607  10.858   6.523 -0.2154 -0.0191 -0.1054
  788POPS   C1A11939   8.847  10.684   6.971  0.3854 -0.0253  0.0052
  788POPS   D2A11940   8.816  10.779   7.338 -0.1367 -0.0430  0.2030
  788POPS   C3A11941   9.054  10.570   7.741 -0.1104 -0.1281  0.1818
  788POPS   C4A11942   9.475  10.573   7.954 -0.0326 -0.1960  0.0779
  788POPS   C1B11943   8.403  10.623   6.814  0.1189  0.0858  0.0600
  788POPS   C2B11944   8.377  10.630   7.206 -0.1778  0.0796 -0.5305
  788POPS   C3B11945   8.572  10.412   7.549  0.0112 -0.1141 -0.0006
  788POPS   C4B11946   8.659  10.240   7.953 -0.0972 -0.0035  0.0611
  789POPS   CNO11947   2.505   8.658   5.380  0.1572  0.2954  0.3409
  789POPS   PO411948   2.918   8.682   5.490  0.1108  0.0331  0.0496
  789POPS   GL111949   3.170   8.809   5.923  0.1229  0.0251  0.1399
  789POPS   GL211950   2.895   8.854   6.066 -0.2035 -0.2743 -0.1497
  789POPS   C1A11951   3.136   8.744   6.475  0.0008  0.0435 -0.1620
  789POPS   D2A11952   3.073   8.686   6.879  0.0366  0.0765 -0.0058
  789POPS   C3A11953   3.251   8.840   7.372  0.2681 -0.0972  0.0283
  789POPS   C4A11954   3.238   9.138   7.649  0.2790  0.1277  0.0000
  789POPS   C1B11955   2.547   8.970   6.461 -0.2335 -0.0688 -0.1446
  789POPS   C2B11956   2.608   8.836   6.808  0.0676 -0.2858  0.0663
  789POPS   C3B11957   2.538   8.541   7.132 -0.4053  0.0290  0.2624
  789POPS   C4B11958   2.253   8.239   7.317 -0.2429 -0.2242  0.0275
  790POPS   CNO11959  10.906   3.024   5.113  0.0326 -0.0022 -0.0950
  790POPS   PO411960  10.767   3.299   5.406  0.2954  0.2344  0.0430
  790POPS   GL111961  11.025   3.388   5.826 -0.0102  0.0688  0.0330
  790POPS   GL211962  10.927   3.576   6.101 -0.2895  0.0220 -0.1002
  790POPS   C1A11963  11.060   3.187   6.312 -0.0788  0.0852 -0.0454
  790POPS   D2A11964  11.014   2.972   6.785 -0.1219  0.1860  0.3298
  790POPS   C3A11965  11.138   2.497   6.885 -0.0399  0.1029 -0.5419
  790POPS   C4A11966  11.186   2.179   6.620  0.0037 -0.0269 -0.0060
  790POPS   C1B11967  10.618   3.463   6.342  0.1072  0.0107 -0.2907
  790POPS   C2B11968  10.497   3.237   6.675 -0.1359  0.1491 -0.0669
  790POPS   C3B11969  10.608   3.020   7.114 -0.0430  0.1386 -0.1446
  790POPS   C4B11970  10.931   2.986   7.425  0.4182 -0.0014  0.1656
  791POPS   CNO11971   7.072  16.053   6.033 -0.0049 -0.3434 -0.3325
  791POPS   PO411972   7.095  16.513   5.971 -0.1920 -0.0518  0.1156
  791POPS   GL111973   7.277  16.441   6.371 -0.0768 -0.4538 -0.0449
  791POPS   GL211974   7.526  16.109   6.387  0.1556 -0.0154 -0.2067
  791POPS   C1A11975   7.356  16.475   6.745 -0.0572 -0.1216 -0.3981
  791POPS   D2A11976   7.546  16.273   7.069 -0.0925  0.4680 -0.0733
  791POPS   C3A11977   7.770  16.451   7.420  0.0910  0.0959 -0.0537
  791POPS   C4A11978   8.269  16.419   7.533  0.0514 -0.0045 -0.1003
  791POPS   C1B11979   7.809  16.167   6.599  0.3062 -0.4018  0.2061
  791POPS   C2B11980   8.030  16.203   6.825  0.0235 -0.4683  0.1391
  791POPS   C3B11981   8.160  16.068   7.198  0.0978  0.0694 -0.1222
  791POPS   C4B11982   8.302  15.789   7.477 -0.0500  0.1828 -0.1106
  792POPS   CNO11983  15.496   6.316   5.527  0.3663  0.1038  0.0450
  792POPS   PO411984  15.145   6.202   5.921  0.2058 -0.1269 -0.2132
  792POPS   GL111985  15.174   6.501   6.230  0.0534 -0.2944 -0.0770
  792POPS   GL211986  15.349   6.644   6.332 -0.3095 -0.1942 -0.2432
  792POPS   C1A11987  14.874   6.568   6.598 -0.0062 -0.2888  0.0873
  792POPS   D2A11988  14.353   6.590   6.663 -0.0240 -0.0993  0.0237
  792POPS   C3A11989  14.002   6.460   6.513  0.0459  0.1200  0.1654
  792POPS   C4A11990  13.675   6.350   6.760  0.0441  0.0025  0.1510
  792POPS   C1B11991  15.504   6.729   6.738 -0.1065 -0.0722 -0.4692
  792POPS   C2B11992  15.435   6.696   7.229 -0.1011 -0.1314 -0.0379
  792POPS   C3B11993  15.191   6.485   7.560  0.1373 -0.2996  0.1058
  792POPS   C4B11994  14.815   6.159   7.511  0.3611 -0.3348  0.0451
  793POPS   CNO11995   5.859  11.276   5.300  0.2590 -0.0555  0.0373
  793POPS   PO411996   5.812  11.311   5.716  0.2951 -0.0521  0.1257
  793POPS   GL111997   5.655  11.334   6.119  0.1727  0.2112 -0.0982
  793POPS   GL211998   5.346  11.434   6.056  0.0643 -0.1927 -0.1284
  793POPS   C1A11999   5.700  11.629   6.549  0.2357  0.2096 -0.0038
  793POPS   D2A12000   5.439  11.344   6.982  0.1451  0.1010  0.1080
  793POPS   C3A12001   5.288  11.084   7.196 -0.0072 -0.0061  0.0519
  793POPS   C4A12002   5.404  10.827   7.586  0.0587 -0.1922 -0.0102
  793POPS   C1B12003   5.283  11.342   6.493  0.0277 -0.2591  0.0648
  793POPS   C2B12004   4.976  10.989   6.633 -0.0037  0.0357  0.1071
  793POPS   C3B12005   4.943  10.745   6.976  0.0943  0.0039 -0.1719
  793POPS   C4B12006   4.890  10.979   7.443 -0.2336  0.1085  0.1190
  794POPS   CNO12007  11.606  13.879   5.816  0.2045 -0.2468 -0.3254
  794POPS   PO412008  11.829  13.771   6.199  0.0692  0.1568 -0.1623
  794POPS   GL112009  12.007  14.059   6.638 -0.1758 -0.2728  0.1516
  794POPS   GL212010  11.937  14.424   6.636 -0.1457 -0.4530 -0.1505
  794POPS   C1A12011  12.075  14.062   7.129  0.3001  0.1519 -0.0124
  794POPS   D2A12012  12.290  13.990   7.512 -0.2288  0.2455  0.0561
  794POPS   C3A12013  12.277  13.612   7.774  0.1269  0.1593  0.0270
  794POPS   C4A12014  12.580  13.481   8.005  0.3717 -0.1194  0.0089
  794POPS   C1B12015  11.557  14.301   6.993 -0.1332  0.2751 -0.0037
  794POPS   C2B12016  11.312  14.347   7.360  0.1583 -0.0073 -0.4334
  794POPS   C3B12017  11.359  14.111   7.682  0.0252  0.2211  0.4050
  794POPS   C4B12018  11.621  13.975   8.007  0.0868  0.1544  0.1306
  795POPS   CNO12019   7.003  10.654   5.900 -0.0076 -0.2306 -0.1422
  795POPS   PO412020   6.878  10.159   5.947  0.3700 -0.0102  0.0112
  795POPS   GL112021   6.650  10.320   6.270 -0.1489  0.1557  0.1582
  795POPS   GL212022   6.518  10.046   6.457 -0.1189  0.1387 -0.1702
  795POPS   C1A12023   6.551  10.604   6.628  0.3655 -0.0035  0.0668
  795POPS   D2A12024   6.759  10.732   7.031  0.0061 -0.0341  0.3482
  795POPS   C3A12025   6.645  10.592   7.435 -0.2433 -0.0646  0.0415
  795POPS   C4A12026   6.727  10.525   7.915 -0.0323 -0.1144 -0.2634
  795POPS   C1B12027   6.346  10.137   6.895 -0.1095  0.3954 -0.0009
  795POPS   C2B12028   6.380  10.124   7.392 -0.0537  0.2111 -0.0062
  795POPS   C3B12029   6.286   9.940   7.853 -0.2996 -0.2661 -0.0478
  795POPS   C4B12030   5.934  10.098   8.099  0.0080 -0.3627 -0.0664
  796POPS   CNO12031   3.023  17.302   5.751  0.1308 -0.0400  0.2278
  796POPS   PO412032   2.775  17.645   6.024 -0.2144 -0.1485 -0.0170
  796POPS   GL112033   2.666  17.624   6.407 -0.2730  0.2284  0.3515
  796POPS   GL212034   2.867  17.802   6.591 -0.1213 -0.2081 -0.0861
  796POPS   C1A12035   2.468  17.276   6.692  0.0676 -0.1282  0.2871
  796POPS   D2A12036   2.280  17.023   6.933  0.1165  0.0364 -0.0028
  796POPS   C3A12037   1.889  17.126   7.006 -0.1981  0.2106  0.0129
  796POPS   C4A12038   1.582  16.975   7.300 -0.3349 -0.1605 -0.0679
  796POPS   C1B12039   2.769  17.608   6.957  0.1208  0.0850  0.0114
  796POPS   C2B12040   2.784  17.203   7.095 -0.1776  0.0008  0.1630
  796POPS   C3B12041   2.736  16.939   7.324  0.1444 -0.0340 -0.1031
  796POPS   C4B12042   2.454  16.776   7.702 -0.0160 -0.2297  0.3180
  797POPS   CNO12043   4.068   0.962   5.671  0.0825  0.1198 -0.0366
  797POPS   PO412044   3.956   1.346   5.573 -0.0351  0.2428  0.3045
  797POPS   GL112045   4.126   1.395   6.008 -0.2986  0.0646  0.1199
  797POPS   GL212046   4.458   1.531   6.194 -0.2017 -0.0639 -0.0421
  797POPS   C1A12047   4.026   1.497   6.474 -0.0492 -0.3186  0.0513
  797POPS   D2A12048   4.101   1.416   6.913 -0.1638  0.1894 -0.0480
  797POPS   C3A12049   4.284   1.511   7.264 -0.0572 -0.0153  0.3337
  797POPS   C4A12050   4.356   1.410   7.705  0.0344 -0.2100  0.2522
  797POPS   C1B12051   4.458   1.726   6.700  0.0899 -0.1909 -0.1637
  797POPS   C2B12052   4.412   1.987   7.113  0.1158 -0.1489  0.0908
  797POPS   C3B12053   4.796   2.211   7.403 -0.1758  0.3511  0.0349
  797POPS   C4B12054   5.208   2.182   7.508  0.0762 -0.1074  0.1181
  798POPS   CNO12055   9.026   6.829   5.524 -0.3845 -0.1784 -0.0518
  798POPS   PO412056   8.755   6.536   5.367 -0.0533 -0.0462 -0.0379
  798POPS   GL112057   8.645   6.714   5.860 -0.0781  0.2123  0.2614
  798POPS   GL212058   8.907   7.058   5.963  0.1411  0.0835  0.1174
  798POPS   C1A12059   8.379   6.842   6.210 -0.0622  0.1202  0.0626
  798POPS   D2A12060   8.307   7.064   6.583  0.0134  0.1372  0.0333
  798POPS   C3A12061   8.469   6.936   6.934  0.0694  0.1295  0.3619
  798POPS   C4A12062   8.735   6.933   7.278 -0.0416 -0.0923  0.1143
  798POPS   C1B12063   8.775   7.113   6.432 -0.0064 -0.1774  0.2335
  798POPS   C2B12064   8.960   7.339   6.754  0.0609 -0.0882  0.2746
  798POPS   C3B12065   9.130   7.457   7.031 -0.0476 -0.0531  0.2009
  798POPS   C4B12066   9.324   7.605   7.269  0.0042  0.3002 -0.0323
  799POPS   CNO12067  15.455  13.593   6.197  0.2558  0.1050 -0.0924
  799POPS   PO412068  15.828  13.409   6.087  0.2021 -0.0969 -0.0506
  799POPS   GL112069  15.840  13.688   6.472  0.0067  0.1628  0.0043
  799POPS   GL212070  16.185  13.710   6.512 -0.3875  0.0402 -0.1117
  799POPS   C1A12071  15.963  14.025   6.841 -0.2233  0.0752 -0.0900
  799POPS   D2A12072  15.865  14.025   7.309  0.1978 -0.1591  0.2115
  799POPS   C3A12073  16.070  13.794   7.702 -0.3077 -0.0234  0.0356
  799POPS   C4A12074  16.464  13.646   7.808 -0.2340  0.1248  0.0923
  799POPS   C1B12075  16.100  13.386   6.847 -0.2594  0.2176  0.1632
  799POPS   C2B12076  15.988  13.063   7.090 -0.0364  0.0515  0.4398
  799POPS   C3B12077  16.225  12.815   7.509  0.3998 -0.1260  0.2347
  799POPS   C4B12078  16.484  12.737   7.808 -0.0364 -0.1284 -0.0825
  800POPS   CNO12079   9.347   7.270   5.749 -0.2977 -0.1510 -0.2241
  800POPS   PO412080   9.739   7.373   5.746  0.1246  0.0889  0.0399
  800POPS   GL112081   9.746   7.510   6.136  0.2706  0.2653  0.0247
  800POPS   GL212082   9.989   7.312   6.345  0.1154  0.0781  0.0169
  800POPS   C1A12083   9.225   7.440   6.269  0.1342  0.0575 -0.1693
  800POPS   D2A12084   8.729   7.627   6.392 -0.0892 -0.0946  0.1830
  800POPS   C3A12085   8.838   7.851   6.719 -0.5066  0.3192 -0.0393
  800POPS   C4A12086   9.104   8.000   7.082 -0.0928 -0.1670  0.3343
  800POPS   C1B12087  10.045   7.333   6.685  0.0079  0.1775  0.0908
  800POPS   C2B12088   9.876   7.296   7.084  0.1652  0.2754 -0.0537
  800POPS   C3B12089   9.892   6.951   7.326 -0.0102 -0.2036  0.1176
  800POPS   C4B12090  10.044   6.629   7.577  0.1830 -0.1094  0.0380
  801POPS   CNO12091   3.733   7.363   5.517 -0.1696  0.2400  0.5367
  801POPS   PO412092   4.042   7.354   5.817 -0.0686 -0.0355 -0.0753
  801POPS   GL112093   3.976   7.156   6.275  0.2017 -0.0702 -0.1345
  801POPS   GL212094   3.703   7.013   6.302  0.3376 -0.2285 -0.0906
  801POPS   C1A12095   3.928   7.161   6.764 -0.1114 -0.0823  0.1537
  801POPS   D2A12096   3.917   7.482   7.097 -0.0481 -0.0030  0.1171
  801POPS   C3A12097   3.917   7.505   7.559  0.0243  0.1725 -0.1193
  801POPS   C4A12098   3.761   7.590   7.952  0.2236  0.1645  0.2231
  801POPS   C1B12099   3.642   6.782   6.694 -0.0778  0.0074 -0.0597
  801POPS   C2B12100   3.844   6.748   7.136  0.0083 -0.0954  0.1771
  801POPS   C3B12101   3.911   6.540   7.605 -0.0444 -0.5705 -0.1054
  801POPS   C4B12102   3.750   6.311   8.109 -0.1685 -0.1756 -0.2861
  802POPS   CNO12103  12.048  16.980   5.289  0.0823 -0.0630 -0.2586
  802POPS   PO412104  11.874  16.897   5.668 -0.1167  0.0281 -0.0390
  802POPS   GL112105  11.782  16.872   6.087  0.0114 -0.0618 -0.0168
  802POPS   GL212106  11.984  17.034   6.278  0.3335 -0.0044 -0.3458
  802POPS   C1A12107  11.505  17.041   6.503 -0.0705 -0.2733  0.1422
  802POPS   D2A12108  11.145  16.930   6.795 -0.0642 -0.0504  0.2447
  802POPS   C3A12109  10.941  16.973   7.182  0.0139 -0.0812 -0.0760
  802POPS   C4A12110  10.595  17.249   7.402 -0.3651  0.1947  0.0667
  802POPS   C1B12111  12.010  16.910   6.650  0.0067 -0.2206 -0.0738
  802POPS   C2B12112  11.662  16.750   6.929  0.0035  0.1374 -0.3635
  802POPS   C3B12113  11.405  16.666   7.120  0.0631 -0.0179  0.1717
  802POPS   C4B12114  11.093  16.450   7.372 -0.0154 -0.2201 -0.0384
  803YOPS   CNO12115   8.644  12.811   6.211  0.1443  0.3912 -0.0915
  803YOPS   PO412116   8.246  12.480   6.290  0.1934 -0.0007 -0.0230
  803YOPS   GL112117   8.636  12.453   6.538 -0.2456 -0.0739 -0.0342
  803YOPS   GL212118   8.778  12.184   6.574 -0.0848  0.1157 -0.0939
  803YOPS   C1A12119   8.650  12.664   6.965  0.1682 -0.2270 -0.3727
  803YOPS   D2A12120   8.783  12.631   7.399  0.0752 -0.6192  0.1589
  803YOPS   C3A12121   8.577  12.789   7.837  0.0243 -0.2874  0.1342
  803YOPS   C4A12122   8.822  13.202   8.170  0.0057  0.1762  0.1659
  803YOPS   C1B12123   9.128  12.519   6.714 -0.2864  0.2879  0.1188
  803YOPS   C2B12124   9.142  12.813   7.014 -0.0042 -0.1231 -0.1671
  803YOPS   D3B12125   9.269  12.835   7.457  0.1677 -0.2352  0.1653
  803YOPS   C4B12126   9.030  13.105   7.634  0.2743  0.1530  0.3709
  804YOPS   CNO12127   5.408  13.275   6.080 -0.2569  0.3289  0.3278
  804YOPS   PO412128   4.963  13.406   6.049  0.1268  0.1970 -0.0202
  804YOPS   GL112129   4.807  13.676   6.277 -0.3694  0.3330  0.2664
  804YOPS   GL212130   4.467  13.864   6.388  0.0995 -0.1290  0.1290
  804YOPS   C1A12131   4.863  13.509   6.716 -0.1575 -0.1574  0.0464
  804YOPS   D2A12132   4.626  13.304   7.040 -0.0789  0.2838 -0.0682
  804YOPS   C3A12133   4.598  12.937   7.181  0.0345  0.2006  0.3149
  804YOPS   C4A12134   4.515  12.815   7.608 -0.2962 -0.0132  0.0785
  804YOPS   C1B12135   4.401  13.618   6.701  0.0962 -0.0050 -0.1504
  804YOPS   C2B12136   4.118  13.576   6.990  0.3655 -0.0439  0.0762
  804YOPS   D3B12137   3.698  13.639   6.997 -0.1212 -0.0975  0.0157
  804YOPS   C4B12138   3.403  13.797   6.594  0.0091 -0.0049 -0.0882
  805YOPS   CNO12139  10.164  10.877   5.769  0.1407 -0.1657  0.1211
  805YOPS   PO412140  10.093  10.799   6.180  0.1696  0.1007 -0.0698
  805YOPS   GL112141   9.956  10.783   6.547  0.0221 -0.0315  0.1843
  805YOPS   GL212142  10.208  10.697   6.749 -0.3262 -0.1079 -0.1692
  805YOPS   C1A12143   9.689  10.672   6.876  0.2545  0.1398 -0.0323
  805YOPS   D2A12144   9.368  10.885   7.028 -0.1756 -0.0249  0.3266
  805YOPS   C3A12145   9.264  10.926   7.524 -0.1980  0.0808 -0.0779
  805YOPS   C4A12146   8.987  11.238   7.559 -0.1311  0.4036 -0.2315
  805YOPS   C1B12147  10.148  10.454   7.066 -0.0452  0.3015 -0.3232
  805YOPS   C2B12148   9.914  10.345   7.350  0.3432 -0.1930 -0.1089
  805YOPS   D3B12149   9.830  10.299   7.707  0.4024 -0.0047  0.1597
  805YOPS   C4B12150   9.378  10.148   7.792 -0.1045 -0.0084 -0.3605
  806YOPS   CNO12151  17.012   6.989   6.057  0.2118  0.1136  0.1318
  806YOPS   PO412152  16.607   6.971   5.819  0.2984 -0.2413 -0.0034
  806YOPS   GL112153  16.514   7.010   6.229  0.0338 -0.2770  0.1481
  806YOPS   GL212154  16.784   6.821   6.422  0.0377  0.2852 -0.3485
  806YOPS   C1A12155  16.189   7.255   6.311 -0.0551 -0.2576 -0.1524
  806YOPS   D2A12156  16.054   7.460   6.615  0.2889 -0.0732 -0.2566
  806YOPS   C3A12157  15.671   7.500   6.923  0.1872 -0.0554 -0.0242
  806YOPS   C4A12158  15.388   7.141   7.053  0.0792  0.2049 -0.0439
  806YOPS   C1B12159  16.732   6.725   6.806 -0.2180 -0.1107  0.2711
  806YOPS   C2B12160  16.785   6.631   7.311  0.0045  0.0607  0.0201
  806YOPS   D3B12161  16.545   6.472   7.645 -0.3641  0.1658 -0.1804
  806YOPS   C4B12162  16.650   6.505   7.962 -0.4688  0.0694  0.0322
  807YOPS   CNO12163   3.697   4.417   5.699  0.1824  0.0023 -0.0699
  807YOPS   PO412164   3.922   4.507   6.013  0.4915  0.0230  0.0810
  807YOPS   GL112165   3.902   4.770   6.297 -0.1923 -0.1467 -0.0530
  807YOPS   GL212166   3.882   4.988   6.308 -0.1344  0.1143 -0.1043
  807YOPS   C1A12167   3.784   4.587   6.636 -0.2248  0.1058 -0.3377
  807YOPS   D2A12168   3.509   4.571   7.032  0.3036 -0.1428 -0.2137
  807YOPS   C3A12169   3.489   4.563   7.501 -0.2508 -0.1999 -0.0040
  807YOPS   C4A12170   3.281   4.319   7.621  0.3378  0.0645  0.2521
  807YOPS   C1B12171   3.844   5.198   6.667 -0.1111 -0.0887 -0.3078
  807YOPS   C2B12172   3.929   5.470   7.053 -0.2683 -0.3220  0.1678
  807YOPS   D3B12173   4.080   5.698   7.422  0.0724  0.1685  0.0759
  807YOPS   C4B12174   4.304   6.007   7.450  0.0813 -0.2214 -0.2641
  808YOPS   CNO12175   8.900  13.803   5.617  0.0181  0.1267 -0.0431
  808YOPS   PO412176   8.932  14.077   5.904  0.2102 -0.0936 -0.0444
  808YOPS   GL112177   8.883  14.350   6.204  0.2116  0.3484 -0.2087
  808YOPS   GL212178   9.053  14.585   6.291 -0.0329 -0.2712  0.1584
  808YOPS   C1A12179   8.691  14.666   6.580  0.2431 -0.0283 -0.3833
  808YOPS   D2A12180   8.900  14.782   7.008 -0.0924  0.0854  0.2217
  808YOPS   C3A12181   9.122  14.889   7.489  0.2899 -0.0951 -0.0394
  808YOPS   C4A12182   8.908  15.079   7.753 -0.1576 -0.1112  0.1596
  808YOPS   C1B12183   9.100  14.377   6.728  0.2749 -0.2497 -0.2931
  808YOPS   C2B12184   9.012  14.361   7.161  0.0922 -0.2786  0.1649
  808YOPS   D3B12185   8.770  14.059   7.317 -0.1793  0.2120 -0.1447
  808YOPS   C4B12186   8.835  13.593   7.364  0.0416  0.0487 -0.0243
  809YOPS   CNO12187  12.460   3.950   5.811 -0.0263 -0.1199 -0.1233
  809YOPS   PO412188  12.776   4.193   5.657 -0.1918  0.3915 -0.0731
  809YOPS   GL112189  12.790   4.229   6.162 -0.0633  0.2857 -0.0580
  809YOPS   GL212190  13.064   4.238   6.414 -0.1786  0.2590 -0.0626
  809YOPS   C1A12191  12.650   4.120   6.608 -0.1732 -0.2813  0.0237
  809YOPS   D2A12192  12.308   3.890   6.936  0.1775  0.1790  0.0698
  809YOPS   C3A12193  11.928   3.818   6.889 -0.3731 -0.3408  0.1229
  809YOPS   C4A12194  11.818   4.112   7.127 -0.1791 -0.6381 -0.1643
  809YOPS   C1B12195  13.315   4.463   6.596 -0.0692  0.0973  0.1220
  809YOPS   C2B12196  13.468   4.397   6.955  0.1413  0.0220 -0.0717
  809YOPS   D3B12197  13.489   4.562   7.252  0.1093 -0.2754 -0.0042
  809YOPS   C4B12198  13.138   4.336   7.428 -0.0636  0.1786  0.4934
  810YOPS   CNO12199  18.334  11.471   5.578 -0.0664 -0.0068  0.2357
  810YOPS   PO412200  18.638  11.487   5.955  0.0810  0.2293 -0.1291
  810YOPS   GL112201  18.518  11.409   6.391 -0.1136  0.1600  0.0071
  810YOPS   GL212202  18.799  11.108   6.406 -0.1286 -0.1213 -0.0238
  810YOPS   C1A12203  18.607  11.455   6.715 -0.1194  0.0408  0.3738
  810YOPS   D2A12204  18.775  11.454   7.040  0.1659 -0.1835  0.0267
  810YOPS   C3A12205  18.721  11.620   7.330 -0.5713 -0.2300 -0.2983
  810YOPS   C4A12206  18.994  11.410   7.505  0.2369 -0.0848  0.2212
  810YOPS   C1B12207  18.987  11.088   6.746  0.0217  0.2577  0.1669
  810YOPS   C2B12208  19.103  11.000   7.186 -0.0198  0.0946 -0.1182
  810YOPS   D3B12209  18.965  10.854   7.529  0.0894 -0.0770  0.1009
  810YOPS   C4B12210  19.198  10.756   7.796 -0.2502  0.2223 -0.0453
  811YOPS   CNO12211   6.293   5.972   5.563  0.0861 -0.1886 -0.0183
  811YOPS   PO412212   6.419   5.794   5.921  0.0246  0.2239  0.1131
  811YOPS   GL112213   6.343   5.902   6.328 -0.3230  0.3480  0.0544
  811YOPS   GL212214   6.042   6.027   6.406  0.1755 -0.1599 -0.2558
  811YOPS   C1A12215   6.495   5.691   6.692  0.0388  0.1703 -0.2698
  811YOPS   D2A12216   6.570   5.482   7.084 -0.1911  0.2981  0.1498
  811YOPS   C3A12217   6.691   5.290   7.433  0.0530 -0.1149 -0.4115
  811YOPS   C4A12218   6.506   5.152   7.904  0.1646  0.1262  0.0071
  811YOPS   C1B12219   6.044   5.857   6.799  0.0398 -0.1538 -0.0698
  811YOPS   C2B12220   6.208   5.770   7.164 -0.0412 -0.0884 -0.0290
  811YOPS   D3B12221   6.653   5.959   7.163 -0.0070  0.0366 -0.4745
  811YOPS   C4B12222   6.810   6.070   7.566  0.2528  0.0318 -0.3680
  812YOPS   CNO12223  15.275  10.563   5.856  0.1351  0.3460  0.1261
  812YOPS   PO412224  15.572  10.840   5.681  0.2283  0.0060  0.2926
  812YOPS   GL112225  15.568  11.033   6.064 -0.2245  0.1016 -0.1620
  812YOPS   GL212226  15.543  10.765   6.240  0.0535 -0.0453 -0.2431
  812YOPS   C1A12227  15.710  11.276   6.486  0.2685  0.0267  0.0603
  812YOPS   D2A12228  15.720  11.219   6.910  0.0382  0.3153 -0.2804
  812YOPS   C3A12229  15.759  11.076   7.235 -0.2390 -0.1210  0.0302
  812YOPS   C4A12230  16.064  10.754   7.324 -0.0550  0.2911  0.1864
  812YOPS   C1B12231  15.073  10.963   6.414  0.1579  0.1366  0.5433
  812YOPS   C2B12232  14.852  10.771   6.769  0.0123  0.0078  0.0749
  812YOPS   D3B12233  14.755  10.609   7.255  0.1389 -0.1789 -0.0706
  812YOPS   C4B12234  14.903  10.361   7.491 -0.0430  0.1387  0.0901
  813YOPS   CNO12235   3.546   0.218   6.133  0.2257 -0.1581 -0.0160
  813YOPS   PO412236   3.573   0.529   5.840 -0.2181 -0.1705  0.1315
  813YOPS   GL112237   3.731   0.798   6.117 -0.1629  0.2001 -0.0804
  813YOPS   GL212238   3.756   1.066   6.123  0.1920 -0.0049 -0.2645
  813YOPS   C1A12239   3.747   0.656   6.550 -0.0125 -0.3884 -0.3607
  813YOPS   D2A12240   3.912   0.365   6.824 -0.2627  0.3537 -0.0651
  813YOPS   C3A12241   4.155   0.142   7.155  0.0885  0.0123 -0.1982
  813YOPS   C4A12242   4.528  -0.025   7.136 -0.1981 -0.1719 -0.0366
  813YOPS   C1B12243   4.086   1.010   6.385  0.0069 -0.1045  0.0012
  813YOPS   C2B12244   4.134   0.923   6.805 -0.0743 -0.1044 -0.3094
  813YOPS   D3B12245   4.236   0.677   7.078 -0.0431  0.0170 -0.4798
  813YOPS   C4B12246   3.881   0.510   7.419 -0.2595 -0.3402  0.2488
  814YOPS   CNO12247   2.737  13.458   5.289  0.0792  0.3029  0.0646
  814YOPS   PO412248   2.732  13.160   5.521  0.2560  0.3219  0.0703
  814YOPS   GL112249   2.808  13.093   6.009 -0.3951  0.1561 -0.2007
  814YOPS   GL212250   2.631  13.409   6.150 -0.1460 -0.0214 -0.2964
  814YOPS   C1A12251   2.913  13.089   6.403 -0.0173  0.1489  0.0815
  814YOPS   D2A12252   2.964  12.913   6.827 -0.1546  0.1313 -0.0965
  814YOPS   C3A12253   2.878  12.500   7.011  0.0427 -0.2826 -0.1693
  814YOPS   C4A12254   3.018  12.129   6.869 -0.2610  0.1173 -0.0428
  814YOPS   C1B12255   3.030  13.546   6.376  0.0023  0.1544  0.0146
  814YOPS   C2B12256   3.204  13.420   6.839 -0.0662  0.0021 -0.2564
  814YOPS   D3B12257   3.294  13.249   7.139  0.0586  0.1197 -0.0902
  814YOPS   C4B12258   3.211  12.868   7.255 -0.0640  0.0349  0.0644
  815YOPS   CNO12259   9.604  17.451   5.429  0.0537 -0.3177 -0.0109
  815YOPS   PO412260   9.890  17.330   5.678  0.4059 -0.1269 -0.2888
  815YOPS   GL112261  10.055  17.490   6.119 -0.1657 -0.2288  0.2956
  815YOPS   GL212262   9.988  17.458   6.422  0.2002 -0.3066 -0.0319
  815YOPS   C1A12263  10.397  17.230   6.239  0.0261  0.1236 -0.2768
  815YOPS   D2A12264  10.695  17.073   6.604  0.1500  0.2910  0.1595
  815YOPS   C3A12265  10.877  17.440   6.854  0.1134  0.1459 -0.3598
  815YOPS   C4A12266  10.547  17.663   7.081 -0.2264 -0.2182 -0.1367
  815YOPS   C1B12267  10.209  17.332   6.718 -0.0589 -0.0332 -0.1865
  815YOPS   C2B12268  10.269  17.240   7.086  0.2854 -0.3648 -0.2266
  815YOPS   D3B12269  10.087  17.346   7.512 -0.1082 -0.1642 -0.0081
  815YOPS   C4B12270  10.411  17.782   7.624 -0.0200  0.0738 -0.1502
  816YOPS   CNO12271   7.380  14.492   5.652 -0.2254 -0.4050 -0.0358
  816YOPS   PO412272   7.528  14.298   5.967 -0.1068  0.0644 -0.1202
  816YOPS   GL112273   7.918  14.214   6.315  0.0183  0.2215  0.1269
  816YOPS   GL212274   7.859  13.879   6.517 -0.1398  0.0118 -0.1320
  816YOPS   C1A12275   8.275  14.280   6.539 -0.0622  0.1458  0.0481
  816YOPS   D2A12276   8.425  14.341   7.028 -0.2338 -0.2782  0.0735
  816YOPS   C3A12277   8.241  14.282   7.422  0.0754  0.1009 -0.0472
  816YOPS   C4A12278   8.201  14.609   7.763  0.1015 -0.0750  0.0641
  816YOPS   C1B12279   8.167  13.958   6.887 -0.0769  0.2595 -0.1743
  816YOPS   C2B12280   8.636  13.923   6.840 -0.1828  0.2853  0.3872
  816YOPS   D3B12281   8.977  13.865   6.843 -0.0554  0.0983  0.1456
  816YOPS   C4B12282   9.312  13.735   7.170  0.0573  0.1171  0.1425
  817YOPS   CNO12283   4.196   8.070   5.256 -0.0639 -0.1609  0.1822
  817YOPS   PO412284   3.891   8.253   5.462 -0.0113 -0.1418 -0.1823
  817YOPS   GL112285   3.894   8.207   5.899  0.1789 -0.3916 -0.0195
  817YOPS   GL212286   3.656   8.095   6.003  0.1703 -0.1158 -0.0683
  817YOPS   C1A12287   4.086   8.145   6.280 -0.2380  0.1640 -0.2409
  817YOPS   D2A12288   4.155   8.249   6.683  0.1399 -0.1002  0.0339
  817YOPS   C3A12289   4.420   8.433   6.977  0.2059  0.0985  0.1933
  817YOPS   C4A12290   4.507   8.179   7.375  0.1600  0.0484  0.1108
  817YOPS   C1B12291   3.638   8.010   6.473 -0.1626 -0.1082  0.1773
  817YOPS   C2B12292   3.469   7.654   6.652  0.1264  0.0998  0.1206
  817YOPS   D3B12293   3.368   7.373   7.068 -0.0810 -0.2858 -0.0527
  817YOPS   C4B12294   3.629   7.164   7.290 -0.2374 -0.0617  0.0026
  818YOPS   CNO12295   3.663  17.004   5.853  0.0335  0.0537 -0.1467
  818YOPS   PO412296   3.387  17.148   6.219 -0.0963 -0.2687  0.1118
  818YOPS   GL112297   3.201  17.188   6.652 -0.3017 -0.0626 -0.1741
  818YOPS   GL212298   2.963  17.263   6.620  0.1694  0.1551 -0.2022
  818YOPS   C1A12299   3.252  17.126   7.055 -0.3702 -0.0450 -0.2155
  818YOPS   D2A12300   3.245  17.069   7.569 -0.1328  0.0362  0.4966
  818YOPS   C3A12301   3.287  17.206   7.927 -0.3330 -0.0323 -0.0499
  818YOPS   C4A12302   3.625  17.390   8.159 -0.1288 -0.2072  0.4476
  818YOPS   C1B12303   2.810  16.888   6.624 -0.0723 -0.0628 -0.2819
  818YOPS   C2B12304   2.614  16.617   6.851 -0.0745  0.1246 -0.2845
  818YOPS   D3B12305   2.531  16.463   7.323 -0.2083 -0.0518 -0.0467
  818YOPS   C4B12306   2.811  16.171   7.542  0.1946  0.3938 -0.3306
  819YOPS   CNO12307   2.728  12.215   5.750 -0.0548 -0.0156 -0.1465
  819YOPS   PO412308   2.531  12.048   6.110  0.3090 -0.0067  0.1444
  819YOPS   GL112309   2.671  11.942   6.474  0.0200 -0.1561 -0.2671
  819YOPS   GL212310   2.983  11.818   6.457  0.0261 -0.4866 -0.0774
  819YOPS   C1A12311   2.707  11.611   6.842  0.0033  0.0376  0.1624
  819YOPS   D2A12312   2.724  11.714   7.183 -0.2518  0.0297 -0.0054
  819YOPS   C3A12313   2.722  11.858   7.631  0.1308 -0.0095 -0.3186
  819YOPS   C4A12314   2.527  12.042   7.926 -0.2618  0.0227 -0.2039
  819YOPS   C1B12315   3.268  11.617   6.743 -0.1442 -0.0382  0.1404
  819YOPS   C2B12316   3.339  11.555   7.136 -0.0791 -0.0987 -0.2987
  819YOPS   D3B12317   3.621  11.567   7.533  0.2700 -0.0760 -0.0647
  819YOPS   C4B12318   3.338  11.359   7.863 -0.0901 -0.1228  0.0616
  820YOPS   CNO12319   6.285   9.751   5.306 -0.1581  0.0557 -0.0796
  820YOPS   PO412320   6.352   9.500   5.624 -0.2202  0.1598  0.1083
  820YOPS   GL112321   6.325   9.475   6.078  0.2198  0.1250  0.1299
  820YOPS   GL212322   6.618   9.627   6.071  0.0936  0.2765  0.4693
  820YOPS   C1A12323   6.128   9.698   6.344  0.1702  0.1374  0.1350
  820YOPS   D2A12324   5.977   9.877   6.669 -0.0512 -0.2151 -0.2165
  820YOPS   C3A12325   5.963  10.410   6.817 -0.1866  0.2881  0.1178
  820YOPS   C4A12326   6.235  10.544   7.125 -0.0770  0.1112 -0.0850
  820YOPS   C1B12327   6.635   9.581   6.498 -0.4779 -0.0786 -0.2215
  820YOPS   C2B12328   6.614   9.769   6.862  0.0560 -0.0141  0.3477
  820YOPS   D3B12329   6.695   9.717   7.306  0.0207 -0.2355 -0.1231
  820YOPS   C4B12330   6.354   9.502   7.345 -0.0521  0.0538 -0.4445
  821YOPS   CNO12331  12.928   2.334   5.417  0.0907  0.1818 -0.1010
  821YOPS   PO412332  12.916   2.039   5.716 -0.1260 -0.0146  0.1171
  821YOPS   GL112333  12.825   2.027   6.185 -0.1701 -0.0021  0.0760
  821YOPS   GL212334  12.832   2.287   6.354 -0.1402  0.1032 -0.1579
  821YOPS   C1A12335  12.817   1.708   6.529 -0.0778  0.0066 -0.1271
  821YOPS   D2A12336  13.084   1.568   6.832 -0.0727 -0.0020  0.4258
  821YOPS   C3A12337  13.036   1.525   7.141  0.0632  0.1295  0.3553
  821YOPS   C4A12338  12.788   1.817   7.344 -0.0799  0.1525 -0.2291
  821YOPS   C1B12339  12.502   2.159   6.580  0.0441 -0.3322 -0.0483
  821YOPS   C2B12340  12.477   2.071   7.002  0.3676  0.0303 -0.0490
  821YOPS   D3B12341  12.552   2.223   7.431  0.0210  0.2095  0.1958
  821YOPS   C4B12342  12.923   2.198   7.675  0.0920  0.1666  0.1774
  822YOPS   CNO12343   2.735  11.192   5.844  0.0555 -0.2975  0.2793
  822YOPS   PO412344   2.415  10.855   5.787  0.1308  0.0781  0.0757
  822YOPS   GL112345   2.264  10.844   6.211 -0.0303 -0.2341 -0.1117
  822YOPS   GL212346   2.378  11.128   6.369 -0.0056  0.3956  0.0518
  822YOPS   C1A12347   1.944  10.871   6.665  0.1360 -0.2023 -0.3431
  822YOPS   D2A12348   2.098  11.128   7.069 -0.0385  0.2421  0.0743
  822YOPS   C3A12349   2.168  11.143   7.511  0.2830  0.0829 -0.1702
  822YOPS   C4A12350   2.504  10.961   7.773  0.0861  0.2072 -0.2964
  822YOPS   C1B12351   2.497  11.212   6.745  0.0081  0.3966  0.1538
  822YOPS   C2B12352   2.579  11.133   7.281 -0.1293  0.3943 -0.2918
  822YOPS   D3B12353   2.934  11.276   7.515 -0.0560  0.0268  0.0848
  822YOPS   C4B12354   3.397  11.095   7.474 -0.2291 -0.3276 -0.2288
  823YOPS   CNO12355   2.558  14.809   5.485  0.1817 -0.3283  0.1547
  823YOPS   PO412356   2.627  14.615   5.788  0.1064  0.0950  0.0546
  823YOPS   GL112357   2.711  14.373   6.086  0.1949  0.0050 -0.0177
  823YOPS   GL212358   2.648  14.158   6.267  0.2800  0.1077  0.0400
  823YOPS   C1A12359   2.940  14.522   6.456 -0.0692 -0.1307 -0.2885
  823YOPS   D2A12360   3.035  14.480   6.912 -0.1714 -0.1840  0.1546
  823YOPS   C3A12361   3.227  14.505   7.259 -0.0725  0.2601 -0.1332
  823YOPS   C4A12362   3.209  14.967   7.317  0.1937 -0.0903 -0.3959
  823YOPS   C1B12363   2.540  13.831   6.523 -0.3088 -0.0528  0.0775
  823YOPS   C2B12364   2.672  13.657   6.828  0.0696 -0.0890  0.1181
  823YOPS   D3B12365   2.752  13.408   7.177  0.0562 -0.2199  0.0314
  823YOPS   C4B12366   2.665  12.920   7.218 -0.0467 -0.0300  0.0478
  824YOPS   CNO12367  10.647   3.786   5.655  0.3122  0.1284 -0.0037
  824YOPS   PO412368  10.718   4.142   5.872  0.2031 -0.0908 -0.2823
  824YOPS   GL112369  10.713   4.075   6.343  0.1160  0.0382 -0.0543
  824YOPS   GL212370  11.028   3.960   6.447 -0.0605  0.0271  0.1271
  824YOPS   C1A12371  10.420   3.837   6.690 -0.0232  0.1406  0.1939
  824YOPS   D2A12372  10.232   3.529   6.991 -0.0420  0.0856  0.1506
  824YOPS   C3A12373   9.875   3.392   7.235 -0.1757  0.0232 -0.2059
  824YOPS   C4A12374   9.785   3.694   7.582 -0.0271  0.1121  0.0317
  824YOPS   C1B12375  10.916   4.093   6.903  0.2243 -0.1227 -0.0316
  824YOPS   C2B12376  11.028   4.130   7.320 -0.1997 -0.0781 -0.1091
  824YOPS   D3B12377  10.884   4.400   7.656  0.4507  0.2107 -0.0559
  824YOPS   C4B12378  11.036   4.909   7.616 -0.0007 -0.0435  0.0885
  825YOPS   CNO12379   9.792   1.584   5.456  0.0858 -0.0080 -0.2237
  825YOPS   PO412380   9.656   1.385   5.719  0.2928  0.2355 -0.2251
  825YOPS   GL112381   9.525   1.344   6.119  0.0343  0.0122 -0.0976
  825YOPS   GL212382   9.423   1.647   6.229  0.0308 -0.4039  0.1728
  825YOPS   C1A12383   9.367   1.272   6.599  0.2484  0.3484  0.0919
  825YOPS   D2A12384   9.036   1.296   6.879  0.2546 -0.1260 -0.0989
  825YOPS   C3A12385   9.104   1.028   7.244 -0.1263  0.0386  0.1907
  825YOPS   C4A12386   9.290   1.088   7.638 -0.2793 -0.0699 -0.0435
  825YOPS   C1B12387   9.300   1.881   6.484  0.0921  0.1176  0.5354
  825YOPS   C2B12388   9.173   1.873   6.899 -0.2411  0.0844  0.2292
  825YOPS   D3B12389   9.137   2.135   7.206 -0.1765  0.3947 -0.0425
  825YOPS   C4B12390   9.401   2.302   7.477  0.0124  0.0004 -0.1485
  826YOPS   CNO12391   3.978   3.594   5.471  0.1704  0.0548 -0.1173
  826YOPS   PO412392   4.223   3.755   5.900  0.0380  0.1500 -0.1052
  826YOPS   GL112393   4.338   3.627   6.288  0.0449 -0.0146  0.1125
  826YOPS   GL212394   4.168   3.302   6.212 -0.2045  0.1363  0.1483
  826YOPS   C1A12395   4.536   3.589   6.780  0.3473  0.2105 -0.0749
  826YOPS   D2A12396   4.429   3.698   7.168  0.0356 -0.0423  0.0095
  826YOPS   C3A12397   4.420   4.203   7.372  0.1919 -0.0298  0.0795
  826YOPS   C4A12398   4.427   4.389   7.768 -0.0559 -0.1612  0.1512
  826YOPS   C1B12399   4.353   3.134   6.582 -0.0996 -0.1587  0.4675
  826YOPS   C2B12400   4.391   3.073   6.945 -0.1442  0.0981 -0.2851
  826YOPS   D3B12401   4.720   2.832   7.246  0.0902 -0.3157  0.2786
  826YOPS   C4B12402   5.096   3.021   7.446  0.1521 -0.1047  0.2422
  827YOPS   CNO12403   0.631  17.505   6.272  0.1667  0.2222  0.1346
  827YOPS   PO412404   0.698  17.891   6.044 -0.0040  0.2667 -0.2422
  827YOPS   GL112405   0.625  17.973   6.524 -0.1620  0.3333  0.2705
  827YOPS   GL212406   0.300  17.758   6.580 -0.0896  0.4954  0.0446
  827YOPS   C1A12407   0.631  18.312   6.834 -0.1305  0.1958 -0.4683
  827YOPS   D2A12408   0.898  18.410   7.245 -0.1481  0.0798  0.1261
  827YOPS   C3A12409   1.126  18.362   7.620  0.6713  0.0016 -0.1563
  827YOPS   C4A12410   1.082  18.621   8.089 -0.0301  0.0875  0.0525
  827YOPS   C1B12411   0.714  17.563   6.831  0.2979  0.2318 -0.0260
  827YOPS   C2B12412   1.166  17.400   7.023 -0.0455 -0.1742  0.1426
  827YOPS   D3B12413   1.384  17.403   7.462  0.0648 -0.3268 -0.2287
  827YOPS   C4B12414   1.428  17.229   7.831  0.2231 -0.1136 -0.2259
  828YOPS   CNO12415   4.927   0.889   5.745 -0.1032  0.0709 -0.0476
  828YOPS   PO412416   5.335   0.737   5.994  0.0969 -0.0339 -0.0689
  828YOPS   GL112417   5.101   0.926   6.308  0.0752 -0.0071  0.1503
  828YOPS   GL212418   4.993   0.708   6.533  0.2156 -0.2477 -0.0919
  828YOPS   C1A12419   5.103   1.092   6.839 -0.3127 -0.2066 -0.0493
  828YOPS   D2A12420   5.119   0.938   7.236  0.1286 -0.2077 -0.1148
  828YOPS   C3A12421   5.109   0.994   7.642  0.1204 -0.0940  0.2684
  828YOPS   C4A12422   5.246   1.355   7.921  0.0417  0.0068  0.0588
  828YOPS   C1B12423   5.430   0.751   6.628 -0.0719 -0.0340  0.0652
  828YOPS   C2B12424   5.551   0.237   6.756 -0.2390 -0.0194 -0.0610
  828YOPS   D3B12425   5.769   0.103   7.078 -0.1848  0.2610 -0.0676
  828YOPS   C4B12426   5.471  -0.154   7.277  0.0884  0.1827 -0.0851
  829YOPS   CNO12427  14.144   1.281   6.057 -0.1374  0.0434  0.0459
  829YOPS   PO412428  14.228   0.740   6.000 -0.0106  0.2230  0.0620
  829YOPS   GL112429  13.992   0.701   6.300  0.2562  0.3468  0.0842
  829YOPS   GL212430  13.684   0.670   6.134 -0.1718 -0.1134 -0.1341
  829YOPS   C1A12431  13.774   0.512   6.679  0.1392  0.3541 -0.2508
  829YOPS   D2A12432  13.642   0.789   7.012 -0.1177  0.1493  0.1673
  829YOPS   C3A12433  13.947   0.931   7.312  0.1966 -0.2399  0.1808
  829YOPS   C4A12434  13.934   1.336   7.268 -0.1277  0.1920 -0.1431
  829YOPS   C1B12435  13.600   1.040   6.393  0.1141 -0.2870  0.1043
  829YOPS   C2B12436  13.561   1.309   6.623 -0.0405  0.1446  0.1542
  829YOPS   D3B12437  13.555   1.630   6.933  0.0725 -0.0372  0.0265
  829YOPS   C4B12438  14.006   1.676   6.858  0.2034 -0.1314 -0.1942
  830YOPS   CNO12439  17.078  17.350   5.987  0.0275  0.3259 -0.1184
  830YOPS   PO412440  17.209  17.119   6.213  0.2408  0.0392  0.1156
  830YOPS   GL112441  17.383  17.081   6.612  0.0579 -0.0149 -0.3873
  830YOPS   GL212442  17.612  17.260   6.802  0.2194  0.0004 -0.1211
  830YOPS   C1A12443  17.371  16.873   6.989 -0.0464  0.1202  0.1882
  830YOPS   D2A12444  17.294  16.867   7.472  0.0009  0.0933  0.1791
  830YOPS   C3A12445  17.125  16.693   7.918  0.2226 -0.1107 -0.0021
  830YOPS   C4A12446  17.355  16.554   8.167 -0.0337 -0.0851  0.0104
  830YOPS   C1B12447  17.694  17.488   7.219 -0.3469  0.3703 -0.1842
  830YOPS   C2B12448  17.801  17.929   7.237  0.0395 -0.2448 -0.0379
  830YOPS   D3B12449  17.699  18.301   7.118  0.0544  0.1495  0.1457
  830YOPS   C4B12450  17.646  18.625   7.253  0.0004 -0.2000 -0.0471
  831POPE   NH312451   0.371   4.319   6.125  0.5324 -0.1234 -0.3528
  831POPE   PO412452   0.742   4.055   5.944 -0.0785 -0.0192  0.2243
  831POPE   GL112453   0.843   4.174   6.403 -0.1165  0.1320  0.1999
  831POPE   GL212454   0.557   3.959   6.517 -0.1958  0.0339  0.3748
  831POPE   C1A12455   1.098   4.285   6.738 -0.1530 -0.2034 -0.2371
  831POPE   D2A12456   1.260   4.502   7.088 -0.1957 -0.0075  0.0679
  831POPE   C3A12457   1.495   4.259   7.421  0.0889 -0.2584  0.1364
  831POPE   C4A12458   1.646   4.202   7.743  0.0480 -0.2641 -0.0443
  831POPE   C1B12459   0.655   4.128   6.876 -0.3213 -0.0859 -0.1058
  831POPE   C2B12460   1.059   4.087   7.261  0.0014 -0.1594 -0.1479
  831POPE   C3B12461   1.072   4.077   7.743 -0.0804  0.0197  0.1084
  831POPE   C4B12462   0.977   4.058   8.220  0.1364  0.0087 -0.0736
  832POPE   NH312463  12.169  10.561   6.022  0.1173 -0.0455  0.0753
  832POPE   PO412464  12.395  10.195   5.956  0.0981  0.2809  0.0632
  832POPE   GL112465  12.308  10.220   6.455 -0.2177 -0.0843 -0.2995
  832POPE   GL212466  12.549   9.999   6.549  0.0548 -0.2334 -0.2115
  832POPE   C1A12467  12.257  10.249   6.894  0.0655 -0.1934  0.4131
  832POPE   D2A12468  12.419  10.149   7.317 -0.0374 -0.1118  0.1463
  832POPE   C3A12469  11.961  10.243   7.593 -0.0344 -0.2174 -0.3113
  832POPE   C4A12470  11.666  10.202   7.955 -0.0404 -0.0831  0.0769
  832POPE   C1B12471  12.643   9.899   6.883  0.0988  0.3750  0.0693
  832POPE   C2B12472  12.710   9.614   7.172 -0.0057 -0.2215 -0.2231
  832POPE   C3B12473  12.699   9.439   7.507  0.0550  0.0344  0.4128
  832POPE   C4B12474  12.520   9.185   7.841  0.1093 -0.0149  0.0671
  833POPE   NH312475  11.584   2.301   5.504  0.0651 -0.0017  0.0911
  833POPE   PO412476  11.625   1.749   5.489 -0.1972  0.0643  0.2192
  833POPE   GL112477  11.540   1.860   5.989  0.2747  0.1014  0.2810
  833POPE   GL212478  11.310   1.643   6.083 -0.0901  0.1850  0.1964
  833POPE   C1A12479  11.605   2.024   6.379 -0.0607  0.4551 -0.0321
  833POPE   D2A12480  11.935   2.032   6.729 -0.2459 -0.0494  0.2111
  833POPE   C3A12481  11.741   1.927   7.150 -0.0864  0.1965  0.1866
  833POPE   C4A12482  11.725   1.659   7.541 -0.0005  0.1038  0.0129
  833POPE   C1B12483  10.965   1.749   6.313  0.0338  0.2331 -0.0208
  833POPE   C2B12484  10.870   1.576   6.788  0.0776  0.0889  0.2161
  833POPE   C3B12485  10.809   1.350   7.132 -0.2706 -0.4238  0.0009
  833POPE   C4B12486  10.428   1.228   7.205  0.3276  0.0753 -0.2384
  834POPE   NH312487   2.402   0.275   6.243 -0.2519 -0.0613  0.0333
  834POPE   PO412488   2.704   0.644   6.232  0.0423 -0.3859 -0.0617
  834POPE   GL112489   2.904   0.909   6.473 -0.0754  0.1240  0.1073
  834POPE   GL212490   2.677   1.180   6.527 -0.1089  0.2828 -0.0898
  834POPE   C1A12491   3.033   1.158   6.890  0.3707  0.0454  0.4249
  834POPE   D2A12492   3.141   1.243   7.268  0.0497 -0.0480 -0.3852
  834POPE   C3A12493   3.228   1.625   7.447  0.2880 -0.3068  0.1958
  834POPE   C4A12494   3.165   2.067   7.579  0.2627 -0.0898  0.0754
  834POPE   C1B12495   2.650   1.503   6.835  0.1153  0.0988 -0.1936
  834POPE   C2B12496   2.758   1.623   7.135  0.0352 -0.0555 -0.0297
  834POPE   C3B12497   2.754   1.748   7.588  0.0367  0.1038  0.0200
  834POPE   C4B12498   2.678   2.156   7.843 -0.3433 -0.0539 -0.1127
  835POPE   NH312499  15.775   2.384   6.101  0.2941  0.1910 -0.0407
  835POPE   PO412500  15.652   1.916   6.186  0.0961  0.2237 -0.2968
  835POPE   GL112501  15.735   1.822   6.546  0.1976 -0.2500 -0.1706
  835POPE   GL212502  16.065   1.719   6.569 -0.0484  0.1413 -0.3076
  835POPE   C1A12503  15.661   1.653   6.926 -0.0938 -0.0459 -0.2206
  835POPE   D2A12504  15.574   1.195   7.176 -0.2896 -0.5853  0.1161
  835POPE   C3A12505  15.317   1.167   7.539  0.2348  0.1621 -0.0587
  835POPE   C4A12506  15.205   1.139   7.984  0.0276  0.0474  0.3620
  835POPE   C1B12507  16.042   1.929   6.961 -0.1376  0.1149  0.2592
  835POPE   C2B12508  16.115   2.054   7.313 -0.2163  0.2673  0.2867
  835POPE   C3B12509  16.372   2.108   7.696  0.0327 -0.1109 -0.0089
  835POPE   C4B12510  16.156   2.298   8.068  0.0876 -0.1584  0.1618
  836POPE   NH312511   2.104   4.869   6.230 -0.1556  0.0650 -0.0525
  836POPE   PO412512   1.687   4.839   6.157 -0.2152  0.0414  0.1122
  836POPE   GL112513   1.653   5.131   6.569  0.2614 -0.4412 -0.0108
  836POPE   GL212514   1.424   5.403   6.605  0.1556  0.0159 -0.0740
  836POPE   C1A12515   1.453   5.018   7.074  0.0632  0.1403  0.0810
  836POPE   D2A12516   1.069   4.946   7.246  0.1166  0.0742  0.3195
  836POPE   C3A12517   0.880   5.113   7.591  0.0103  0.1198 -0.0466
  836POPE   C4A12518   0.774   5.581   7.807  0.0520 -0.4622 -0.0073
  836POPE   C1B12519   1.063   5.459   6.986  0.1448  0.1226 -0.2883
  836POPE   C2B12520   0.774   5.606   7.225  0.3571  0.0543 -0.1661
  836POPE   C3B12521   0.287   5.497   7.297 -0.3169  0.0383 -0.0296
  836POPE   C4B12522  -0.105   5.290   7.120 -0.2997 -0.1941  0.0394
  837POPE   NH312523  13.069  11.963   6.222 -0.0193 -0.3025  0.1148
  837POPE   PO412524  13.490  11.968   6.093  0.0985  0.0915 -0.2556
  837POPE   GL112525  13.589  11.869   6.528  0.1501  0.0776  0.0225
  837POPE   GL212526  13.419  12.071   6.685  0.1657  0.0945 -0.0478
  837POPE   C1A12527  13.500  11.381   6.677  0.1496 -0.1682 -0.2008
  837POPE   D2A12528  13.728  11.060   6.773  0.2702 -0.1169  0.0004
  837POPE   C3A12529  13.907  11.146   7.100  0.1210  0.1001 -0.2369
  837POPE   C4A12530  13.951  11.092   7.519 -0.2943 -0.0258 -0.1352
  837POPE   C1B12531  13.363  11.810   7.046  0.0089 -0.0945  0.1607
  837POPE   C2B12532  12.970  11.708   7.397  0.1409 -0.1288  0.0355
  837POPE   C3B12533  13.035  11.838   7.765  0.0065  0.0670  0.0298
  837POPE   C4B12534  13.121  11.954   8.166  0.0769  0.0730 -0.3052
  838POPE   NH312535   7.130  15.492   5.886  0.1553 -0.0597 -0.1942
  838POPE   PO412536   7.294  15.057   5.805 -0.0931 -0.1045 -0.3442
  838POPE   GL112537   7.403  15.157   6.141  0.0005  0.0354  0.2835
  838POPE   GL212538   7.014  15.102   6.261 -0.0947  0.0944  0.0807
  838POPE   C1A12539   7.541  15.037   6.462 -0.0402 -0.1491 -0.1491
  838POPE   D2A12540   7.341  14.814   6.858  0.0814  0.0068 -0.2279
  838POPE   C3A12541   7.430  14.844   7.263  0.1227  0.1734 -0.0371
  838POPE   C4A12542   7.523  15.064   7.543  0.0292  0.1071 -0.2127
  838POPE   C1B12543   6.854  15.080   6.663 -0.0715 -0.0948  0.1027
  838POPE   C2B12544   6.957  15.137   7.094  0.1329  0.3592 -0.3374
  838POPE   C3B12545   6.995  15.265   7.504 -0.0629 -0.1311  0.1442
  838POPE   C4B12546   7.095  15.082   7.809 -0.1847 -0.1326 -0.1982
  839POPE   NH312547   4.680  16.942   6.025  0.1865  0.0444  0.2517
  839POPE   PO412548   4.557  17.321   5.655  0.2579 -0.0090  0.1055
  839POPE   GL112549   4.549  17.446   6.112  0.1725  0.1049  0.0645
  839POPE   GL212550   4.468  17.733   6.376 -0.1816 -0.2336 -0.0897
  839POPE   C1A12551   4.731  17.353   6.558  0.3026 -0.1576  0.3048
  839POPE   D2A12552   4.950  17.378   6.967  0.3627 -0.4103  0.0889
  839POPE   C3A12553   4.874  17.686   7.268 -0.1873 -0.0289  0.1489
  839POPE   C4A12554   4.954  17.880   7.617  0.1053  0.3716 -0.0214
  839POPE   C1B12555   4.616  17.769   6.792  0.0655  0.1978  0.1711
  839POPE   C2B12556   4.406  17.649   7.092 -0.0396  0.1976  0.1038
  839POPE   C3B12557   4.096  17.447   7.379  0.2918 -0.1504 -0.1515
  839POPE   C4B12558   4.132  17.378   7.857 -0.0834  0.1089  0.0670
  840POPE   NH312559  17.177   9.098   5.753 -0.0255 -0.0648  0.0701
  840POPE   PO412560  17.396   9.421   6.094 -0.0462  0.0840 -0.0961
  840POPE   GL112561  17.452   9.358   6.475  0.1909 -0.0684  0.2725
  840POPE   GL212562  17.589   9.049   6.353  0.2752 -0.1826 -0.0492
  840POPE   C1A12563  17.513   9.554   6.955  0.2958 -0.0162 -0.3260
  840POPE   D2A12564  17.430   9.774   7.269 -0.1904  0.1677 -0.1996
  840POPE   C3A12565  17.065   9.844   7.427 -0.1088 -0.0432  0.0367
  840POPE   C4A12566  16.758   9.746   7.682  0.2156  0.0759 -0.1228
  840POPE   C1B12567  17.767   9.104   6.850  0.0878 -0.2289 -0.0854
  840POPE   C2B12568  17.719   9.226   7.255  0.2240  0.3162  0.2841
  840POPE   C3B12569  17.797   9.451   7.558  0.1691 -0.0846  0.1424
  840POPE   C4B12570  18.022   9.452   7.863 -0.0262  0.0254 -0.3364
  841POPE   NH312571   4.153   5.869   5.948  0.2434  0.0051  0.2030
  841POPE   PO412572   4.124   6.286   5.962  0.1138  0.2789 -0.1451
  841POPE   GL112573   4.372   6.166   6.298 -0.0844  0.0334  0.1550
  841POPE   GL212574   4.189   5.983   6.399  0.2172  0.1211 -0.1181
  841POPE   C1A12575   4.622   6.159   6.662  0.1747 -0.0155  0.2394
  841POPE   D2A12576   4.844   6.109   6.944  0.1773 -0.0599 -0.1565
  841POPE   C3A12577   4.772   6.245   7.349  0.2740 -0.4582 -0.2742
  841POPE   C4A12578   4.948   6.528   7.553 -0.0894  0.0755 -0.0610
  841POPE   C1B12579   4.143   5.945   6.866  0.1073 -0.1165 -0.0211
  841POPE   C2B12580   3.901   6.083   7.251 -0.0375  0.0524 -0.1432
  841POPE   C3B12581   3.849   6.041   7.662 -0.1386 -0.1950 -0.2590
  841POPE   C4B12582   3.766   5.752   7.983 -0.0080 -0.0472  0.0039
  842POPE   NH312583   5.104   2.111   5.717 -0.2001  0.1415 -0.2583
  842POPE   PO412584   5.524   2.231   5.994  0.2379  0.1914  0.1743
  842POPE   GL112585   5.786   2.271   6.363  0.0765  0.0815  0.0419
  842POPE   GL212586   6.123   2.104   6.426  0.0334  0.4626 -0.0812
  842POPE   C1A12587   5.978   2.579   6.696 -0.1056 -0.0298 -0.0672
  842POPE   D2A12588   6.070   2.529   7.137  0.1107  0.4489 -0.1970
  842POPE   C3A12589   6.496   2.385   7.332 -0.1290 -0.1739  0.0528
  842POPE   C4A12590   6.815   2.095   7.311 -0.1894  0.1002  0.2689
  842POPE   C1B12591   6.428   1.848   6.533 -0.3999  0.1107  0.1309
  842POPE   C2B12592   6.358   1.461   6.838  0.2974  0.2232 -0.0201
  842POPE   C3B12593   6.397   1.462   7.382 -0.5141  0.2292  0.0089
  842POPE   C4B12594   6.385   1.378   7.815  0.0894 -0.1930  0.1831
  843POPE   NH312595   6.292   7.264   5.523 -0.1767  0.2505  0.1448
  843POPE   PO412596   6.544   7.674   5.673 -0.0727  0.1095 -0.2570
  843POPE   GL112597   6.594   7.797   5.969 -0.1859 -0.3989  0.0510
  843POPE   GL212598   6.784   7.974   6.053  0.0096  0.1645  0.0390
  843POPE   C1A12599   6.461   7.918   6.413  0.0350  0.1489  0.0135
  843POPE   D2A12600   6.483   8.018   6.860 -0.3181 -0.2386  0.1096
  843POPE   C3A12601   6.212   7.927   7.092  0.0776  0.1554 -0.1137
  843POPE   C4A12602   5.820   7.801   7.056 -0.1670 -0.2038  0.0722
  843POPE   C1B12603   6.878   7.618   6.330  0.1828 -0.0537 -0.0387
  843POPE   C2B12604   6.576   7.472   6.614  0.1210  0.0931  0.0309
  843POPE   C3B12605   6.235   7.514   6.697 -0.1658 -0.0770 -0.0548
  843POPE   C4B12606   5.971   7.826   6.497  0.0616  0.1114  0.0970
  844POPE   NH312607  16.968   1.746   6.071 -0.0889  0.1956  0.1133
  844POPE   PO412608  16.929   2.190   6.257  0.1918 -0.3106 -0.0285
  844POPE   GL112609  16.917   2.186   6.630 -0.0803 -0.0400 -0.3455
  844POPE   GL212610  17.164   2.422   6.712  0.0889 -0.1238  0.2808
  844POPE   C1A12611  17.143   1.968   6.993 -0.0594 -0.0539 -0.3145
  844POPE   D2A12612  17.080   1.687   7.387 -0.1667  0.2456  0.1728
  844POPE   C3A12613  17.292   1.676   7.780  0.1601  0.1033 -0.0651
  844POPE   C4A12614  17.475   1.784   8.192 -0.2514 -0.1189 -0.2125
  844POPE   C1B12615  17.357   2.395   7.064 -0.2726  0.0897 -0.4081
  844POPE   C2B12616  17.753   2.521   7.450 -0.1251  0.0087  0.1369
  844POPE   C3B12617  17.442   2.562   7.742 -0.4806 -0.0957 -0.0463
  844POPE   C4B12618  17.369   2.278   7.968 -0.2131  0.2320  0.1190
  845POPE   NH312619   6.204  13.721   5.784  0.4526 -0.0237  0.1901
  845POPE   PO412620   6.302  13.394   6.192  0.2657  0.0340 -0.1558
  845POPE   GL112621   6.316  13.647   6.462 -0.0707 -0.0194 -0.1294
  845POPE   GL212622   6.154  13.993   6.513  0.0525  0.1377  0.1881
  845POPE   C1A12623   6.408  13.498   6.870 -0.1536  0.1610  0.0883
  845POPE   D2A12624   6.452  13.286   7.309  0.2168  0.0972 -0.0004
  845POPE   C3A12625   6.576  13.543   7.662  0.2688  0.0505 -0.2045
  845POPE   C4A12626   6.552  13.845   8.088  0.1400  0.2215  0.0424
  845POPE   C1B12627   6.134  14.075   6.923  0.2261  0.2183 -0.0308
  845POPE   C2B12628   6.169  13.688   7.223  0.1624 -0.4154 -0.2162
  845POPE   C3B12629   6.005  13.493   7.611 -0.0031  0.1712 -0.3165
  845POPE   C4B12630   6.025  13.632   8.066 -0.0644  0.0098  0.0100
  846POPE   NH312631   5.105   9.472   5.526 -0.2010  0.2646  0.0117
  846POPE   PO412632   5.485   9.742   5.537 -0.0619  0.2171 -0.1358
  846POPE   GL112633   5.387   9.722   6.003 -0.0394  0.5553  0.0701
  846POPE   GL212634   5.068   9.818   6.089 -0.1428 -0.0481  0.0117
  846POPE   C1A12635   5.567   9.710   6.382 -0.2358 -0.2811  0.2081
  846POPE   D2A12636   5.626   9.445   6.720  0.0255 -0.1041  0.0928
  846POPE   C3A12637   5.756   9.003   6.696  0.2281 -0.1043  0.0808
  846POPE   C4A12638   5.738   8.661   6.724  0.2051 -0.1954 -0.1260
  846POPE   C1B12639   4.918  10.014   6.387 -0.0381 -0.1027  0.3035
  846POPE   C2B12640   4.629   9.946   6.715  0.1364  0.0450 -0.1180
  846POPE   C3B12641   4.613  10.020   7.021 -0.1940  0.1532 -0.1279
  846POPE   C4B12642   4.771   9.912   7.434  0.1214 -0.1962 -0.2838
  847POPE   NH312643   5.434  10.173   5.802  0.1696  0.1503  0.1336
  847POPE   PO412644   5.131  10.501   5.778 -0.1657 -0.1083  0.4880
  847POPE   GL112645   5.129  10.697   6.257 -0.0756  0.0553 -0.1921
  847POPE   GL212646   5.446  10.907   6.327 -0.1345 -0.1406 -0.3144
  847POPE   C1A12647   4.808  10.433   6.608 -0.0823  0.0037 -0.0301
  847POPE   D2A12648   5.106  10.217   6.918  0.1629 -0.2407 -0.3014
  847POPE   C3A12649   5.048   9.760   6.967 -0.2951  0.2897  0.0815
  847POPE   C4A12650   5.114   9.394   7.108  0.0188 -0.0062  0.0692
  847POPE   C1B12651   5.757  11.081   6.584  0.1448 -0.1382 -0.0194
  847POPE   C2B12652   5.887  10.948   7.024  0.0479  0.1635 -0.4292
  847POPE   C3B12653   5.997  10.901   7.389  0.0327  0.2094 -0.0489
  847POPE   C4B12654   5.783  11.017   7.835 -0.2145 -0.1923  0.2894
  848POPE   NH312655  16.718   5.872   6.209  0.1248 -0.1852  0.1484
  848POPE   PO412656  16.307   5.977   6.352  0.0122 -0.0224 -0.1915
  848POPE   GL112657  16.195   6.042   6.781 -0.1347  0.2159 -0.0672
  848POPE   GL212658  15.861   5.902   6.650  0.1049 -0.2571 -0.1327
  848POPE   C1A12659  16.189   5.881   7.159 -0.1911  0.1835  0.2915
  848POPE   D2A12660  16.375   5.663   7.573  0.1199 -0.2174  0.2694
  848POPE   C3A12661  15.983   5.572   7.924 -0.2060 -0.1046  0.1659
  848POPE   C4A12662  15.611   5.713   8.061  0.2496  0.0237 -0.2868
  848POPE   C1B12663  15.666   5.828   6.906  0.3402  0.3561  0.0184
  848POPE   C2B12664  15.223   5.761   6.807  0.0755 -0.1738 -0.2662
  848POPE   C3B12665  14.858   5.721   7.100  0.1675  0.0527  0.1035
  848POPE   C4B12666  14.615   5.718   7.424 -0.0082 -0.0080 -0.1177
  849POPE   NH312667   2.592   8.542   5.844 -0.1626 -0.1669 -0.2150
  849POPE   PO412668   2.359   8.085   5.745 -0.1134  0.1668 -0.1260
  849POPE   GL112669   2.341   8.008   6.085  0.0850 -0.2309 -0.0742
  849POPE   GL212670   2.321   8.305   6.208 -0.0902 -0.0190  0.1192
  849POPE   C1A12671   2.120   7.887   6.458  0.3947 -0.2820  0.1966
  849POPE   D2A12672   1.974   7.710   6.856 -0.1407 -0.0704 -0.0275
  849POPE   C3A12673   2.115   7.642   7.269 -0.2416  0.3022 -0.2391
  849POPE   C4A12674   2.011   7.577   7.693 -0.2478  0.2064 -0.1309
  849POPE   C1B12675   2.217   8.524   6.489  0.3276  0.2226  0.2546
  849POPE   C2B12676   2.023   8.267   6.824 -0.3081  0.4276 -0.1478
  849POPE   C3B12677   1.798   8.122   7.058 -0.1730  0.0722 -0.1314
  849POPE   C4B12678   1.752   7.949   7.532  0.0111  0.5462  0.1275
  850POPE   NH312679   2.184  15.488   5.834 -0.4423 -0.1306 -0.0174
  850POPE   PO412680   1.802  15.178   5.787 -0.2697 -0.2297  0.0369
  850POPE   GL112681   1.846  15.441   6.260  0.0265 -0.1120  0.0913
  850POPE   GL212682   1.761  15.311   6.512  0.2666  0.1361 -0.0221
  850POPE   C1A12683   2.082  15.653   6.624 -0.3329  0.1250 -0.0404
  850POPE   D2A12684   2.066  15.581   7.039 -0.3343  0.2349  0.3162
  850POPE   C3A12685   2.012  15.674   7.421  0.0545 -0.1695  0.2057
  850POPE   C4A12686   2.090  15.818   7.810  0.0231 -0.1149 -0.2382
  850POPE   C1B12687   1.691  15.244   6.883  0.3565 -0.3998 -0.1179
  850POPE   C2B12688   1.783  15.161   7.364 -0.2009  0.0502  0.1424
  850POPE   C3B12689   2.005  15.273   7.743 -0.2590  0.1589 -0.1751
  850POPE   C4B12690   2.141  15.408   8.129  0.4564  0.2306  0.0577
  851POPE   NH312691   9.693  16.920   5.778  0.1636 -0.0050 -0.0978
  851POPE   PO412692   9.283  16.984   5.479 -0.1660 -0.1022 -0.0299
  851POPE   GL112693   9.361  17.330   5.866 -0.0202  0.0804 -0.3173
  851POPE   GL212694   9.567  17.695   5.934  0.1450  0.0946 -0.2082
  851POPE   C1A12695   9.414  17.390   6.338  0.2208 -0.1140  0.2206
  851POPE   D2A12696   9.439  17.617   6.691 -0.0515  0.1376 -0.0918
  851POPE   C3A12697   9.863  17.693   6.874 -0.1884 -0.1954 -0.0742
  851POPE   C4A12698  10.011  17.870   7.216 -0.4674 -0.1621 -0.0656
  851POPE   C1B12699   9.725  17.928   6.318 -0.2700  0.1977 -0.0419
  851POPE   C2B12700  10.177  17.973   6.255  0.4281 -0.4091  0.2215
  851POPE   C3B12701  10.550  17.636   6.382 -0.1077 -0.1567 -0.0281
  851POPE   C4B12702  10.873  17.424   6.224  0.1467  0.1979  0.0357
  852POPE   NH312703   2.675  15.570   5.411  0.0827  0.1435  0.0834
  852POPE   PO412704   2.626  15.346   5.730 -0.1596 -0.0565  0.1131
  852POPE   GL112705   2.684  15.270   6.104 -0.0051  0.4621  0.1416
  852POPE   GL212706   2.685  14.968   6.169 -0.0798  0.0926 -0.2073
  852POPE   C1A12707   2.606  15.520   6.545 -0.3315  0.1279 -0.1677
  852POPE   D2A12708   2.530  15.387   6.926  0.0123 -0.2142 -0.0078
  852POPE   C3A12709   2.130  15.024   6.954  0.0409 -0.0756 -0.0107
  852POPE   C4A12710   1.959  14.708   6.725  0.2464 -0.1489  0.2891
  852POPE   C1B12711   2.601  14.986   6.624 -0.1937  0.1174 -0.0281
  852POPE   C2B12712   2.733  14.814   7.061 -0.0179  0.0552 -0.0879
  852POPE   C3B12713   2.696  14.924   7.467 -0.0378 -0.2310  0.3315
  852POPE   C4B12714   2.361  14.850   7.795  0.0167 -0.1517  0.1760
  853POPE   NH312715   1.105  14.926   6.273 -0.2510 -0.0934  0.0564
  853POPE   PO412716   0.853  14.618   6.154 -0.3038  0.2117 -0.2326
  853POPE   GL112717   0.869  14.548   6.507  0.0868 -0.0466 -0.2134
  853POPE   GL212718   0.584  14.340   6.523  0.0945  0.2685 -0.2102
  853POPE   C1A12719   0.869  14.709   6.946 -0.1327 -0.3733 -0.0888
  853POPE   D2A12720   0.790  14.831   7.388 -0.0216  0.1906  0.3154
  853POPE   C3A12721   1.046  14.816   7.777  0.1843  0.1342 -0.0757
  853POPE   C4A12722   0.956  15.109   8.150 -0.0711  0.0048  0.1329
  853POPE   C1B12723   0.442  14.538   6.782  0.0450 -0.0753  0.1449
  853POPE   C2B12724   0.330  14.826   7.193  0.2631 -0.0731  0.2906
  853POPE   C3B12725   0.275  14.943   7.542 -0.0934  0.1012  0.1823
  853POPE   C4B12726   0.236  15.164   7.924  0.2012  0.2063  0.2280
  854POPE   NH312727   3.747   5.431   5.755 -0.1455 -0.0506 -0.2905
  854POPE   PO412728   4.115   5.341   5.936  0.2029  0.0543  0.2696
  854POPE   GL112729   3.873   5.557   6.295 -0.1960 -0.2321  0.3854
  854POPE   GL212730   3.609   5.419   6.267 -0.3510 -0.4726  0.0536
  854POPE   C1A12731   3.778   5.757   6.640 -0.3318  0.0878  0.2498
  854POPE   D2A12732   3.522   5.824   7.021  0.1315 -0.1582  0.0680
  854POPE   C3A12733   3.559   5.655   7.483  0.1896  0.0990  0.0442
  854POPE   C4A12734   3.855   5.329   7.709  0.2579 -0.1846  0.1922
  854POPE   C1B12735   3.381   5.495   6.617  0.1809 -0.1800 -0.2118
  854POPE   C2B12736   3.479   5.366   6.989 -0.3456  0.0255  0.0670
  854POPE   C3B12737   3.690   5.033   7.287  0.2598 -0.2337 -0.1916
  854POPE   C4B12738   3.879   4.781   7.812 -0.0764 -0.0217 -0.1741
  855POPE   NH312739  10.488  12.136   6.108  0.1145  0.1057 -0.0094
  855POPE   PO412740  10.461  12.628   6.025  0.1075  0.0452 -0.0719
  855POPE   GL112741  10.462  12.549   6.481 -0.1036 -0.1107 -0.0278
  855POPE   GL212742  10.358  12.759   6.643 -0.0595  0.0303 -0.3084
  855POPE   C1A12743  10.538  12.358   6.942 -0.2249 -0.1806 -0.1263
  855POPE   D2A12744  10.722  12.475   7.302 -0.0407 -0.1572 -0.4559
  855POPE   C3A12745  10.834  12.836   7.400 -0.0471 -0.0063 -0.2252
  855POPE   C4A12746  10.877  13.366   7.597  0.0555  0.0442  0.1945
  855POPE   C1B12747  10.373  12.802   7.034  0.2229 -0.0764 -0.0344
  855POPE   C2B12748  10.295  12.705   7.433  0.1702  0.1154  0.1141
  855POPE   C3B12749  10.515  12.698   7.761  0.0731  0.2382 -0.1277
  855POPE   C4B12750  10.630  12.908   8.025 -0.2658  0.1586 -0.0064
  856POPE   NH312751   8.085   6.287   5.423 -0.1314  0.1639 -0.1108
  856POPE   PO412752   8.267   5.866   5.614  0.0827  0.0101  0.1238
  856POPE   GL112753   8.212   5.834   6.138  0.0777 -0.1013 -0.0737
  856POPE   GL212754   7.896   5.958   6.210 -0.3080 -0.1023  0.2135
  856POPE   C1A12755   8.191   5.754   6.542  0.1824 -0.1337 -0.1449
  856POPE   D2A12756   8.005   5.609   7.022  0.1033 -0.0096  0.0975
  856POPE   C3A12757   8.018   5.395   7.434 -0.1331 -0.3357  0.2017
  856POPE   C4A12758   8.330   5.221   7.658 -0.1428  0.1585  0.1457
  856POPE   C1B12759   7.692   5.802   6.540 -0.1295 -0.2422  0.0737
  856POPE   C2B12760   7.555   5.841   6.970  0.1074 -0.0753  0.1941
  856POPE   C3B12761   7.656   5.752   7.374  0.0452 -0.1243  0.1985
  856POPE   C4B12762   7.708   5.712   7.859  0.2192  0.2389  0.2528
  857POPE   NH312763  16.607   8.314   5.999 -0.4020 -0.4022 -0.2501
  857POPE   PO412764  16.993   8.642   5.970  0.3509 -0.0801 -0.0467
  857POPE   GL112765  17.013   8.400   6.431 -0.0309  0.0773 -0.0204
  857POPE   GL212766  16.718   8.225   6.523 -0.3582  0.1279  0.2841
  857POPE   C1A12767  17.068   8.338   6.869  0.1336  0.1620 -0.0194
  857POPE   D2A12768  17.207   8.258   7.228 -0.2392 -0.0394  0.1131
  857POPE   C3A12769  17.228   7.999   7.567  0.1806  0.0812 -0.2717
  857POPE   C4A12770  17.259   7.659   7.777 -0.3998 -0.0432 -0.0284
  857POPE   C1B12771  16.475   8.149   6.836  0.0440 -0.0659 -0.1202
  857POPE   C2B12772  16.487   8.331   7.289  0.0814 -0.2001  0.1265
  857POPE   C3B12773  16.126   8.233   7.652 -0.3427  0.0017  0.3189
  857POPE   C4B12774  16.292   7.963   8.100  0.0472  0.1228 -0.0724
  858POPE   NH312775  13.271   7.083   5.687 -0.0457  0.3059  0.0638
  858POPE   PO412776  12.979   7.461   5.770  0.0275 -0.2599  0.0297
  858POPE   GL112777  13.026   7.179   6.117  0.2381  0.2840 -0.3588
  858POPE   GL212778  13.421   7.276   6.196  0.0042  0.0564 -0.1873
  858POPE   C1A12779  12.718   7.107   6.523  0.1265 -0.0043  0.0011
  858POPE   D2A12780  12.463   7.314   6.819 -0.0772 -0.1813  0.1428
  858POPE   C3A12781  12.606   7.593   7.052  0.2852 -0.1313  0.0933
  858POPE   C4A12782  12.967   7.759   7.285  0.0516  0.0205 -0.0158
  858POPE   C1B12783  13.204   7.313   6.558 -0.0246 -0.0599  0.1024
  858POPE   C2B12784  13.060   7.353   7.015  0.0651  0.0514 -0.1598
  858POPE   C3B12785  13.138   7.363   7.473  0.0496 -0.1860  0.0661
  858POPE   C4B12786  12.897   7.117   7.792 -0.1688 -0.0862  0.3086
  859YOPE   NH312787  11.183   8.203   5.977  0.0645  0.0697  0.0872
  859YOPE   PO412788  11.541   7.994   5.857 -0.1574 -0.2385  0.0263
  859YOPE   GL112789  11.448   7.906   6.255  0.2581 -0.2181  0.2578
  859YOPE   GL212790  11.612   7.681   6.412  0.0080 -0.1600 -0.1957
  859YOPE   C1A12791  11.299   8.027   6.636 -0.1365  0.3714 -0.1368
  859YOPE   D2A12792  11.156   8.115   7.034  0.2132 -0.0372 -0.0954
  859YOPE   C3A12793  11.275   7.759   7.133  0.1572  0.0437 -0.3633
  859YOPE   C4A12794  11.308   7.430   7.427 -0.0250 -0.1839  0.0167
  859YOPE   C1B12795  11.912   7.449   6.626  0.2322  0.0215 -0.3281
  859YOPE   C2B12796  12.011   7.153   6.948  0.0130  0.1518  0.2802
  859YOPE   D3B12797  12.011   6.928   7.318 -0.1937 -0.1081 -0.0679
  859YOPE   C4B12798  11.754   6.537   7.390  0.2465 -0.0790  0.4024
  860YOPE   NH312799   1.584  13.725   5.991 -0.1797  0.1509 -0.2482
  860YOPE   PO412800   1.219  13.884   5.996 -0.1130  0.1133  0.2194
  860YOPE   GL112801   1.235  14.185   6.344  0.1381  0.0511 -0.1363
  860YOPE   GL212802   0.978  14.069   6.555 -0.0447  0.2699 -0.3259
  860YOPE   C1A12803   1.307  14.421   6.797  0.0470  0.2785 -0.1331
  860YOPE   D2A12804   1.226  14.408   7.246  0.0972  0.3663  0.1410
  860YOPE   C3A12805   1.504  14.299   7.535 -0.1527  0.0753  0.1424
  860YOPE   C4A12806   1.638  13.988   7.647 -0.0969 -0.0058 -0.2478
  860YOPE   C1B12807   0.886  14.121   6.998 -0.0923  0.0106  0.1793
  860YOPE   C2B12808   0.665  14.320   7.257 -0.0591  0.1452  0.1335
  860YOPE   D3B12809   0.488  14.474   7.650  0.4262 -0.0207 -0.0788
  860YOPE   C4B12810   0.553  14.794   7.935 -0.1764  0.0196 -0.0831
  861YOPE   NH312811  16.850  11.045   5.964 -0.2348  0.1023 -0.1374
  861YOPE   PO412812  16.464  11.223   6.015 -0.1537  0.1592  0.2811
  861YOPE   GL112813  16.503  11.551   6.320  0.0641 -0.3974  0.0758
  861YOPE   GL212814  16.712  11.270   6.431 -0.2837  0.2514  0.0298
  861YOPE   C1A12815  16.608  11.696   6.724  0.0449 -0.0782  0.0483
  861YOPE   D2A12816  16.588  11.645   7.109 -0.4081  0.1210  0.0230
  861YOPE   C3A12817  16.300  11.862   7.345 -0.1675  0.0580  0.1926
  861YOPE   C4A12818  16.321  11.675   7.761  0.2327 -0.3103  0.0546
  861YOPE   C1B12819  16.817  11.068   6.829  0.1603  0.0303  0.1079
  861YOPE   C2B12820  16.911  11.104   7.265  0.0347 -0.0143  0.2228
  861YOPE   D3B12821  16.786  11.243   7.574 -0.0478 -0.1968  0.0833
  861YOPE   C4B12822  16.812  11.678   7.654 -0.0595  0.3344  0.2127
  862YOPE   NH312823  14.203   2.416   6.035 -0.0369 -0.0620 -0.3679
  862YOPE   PO412824  14.305   2.083   5.935 -0.1730  0.3054 -0.1015
  862YOPE   GL112825  14.304   1.721   6.299 -0.1804  0.1418  0.5246
  862YOPE   GL212826  14.344   1.906   6.401  0.0353 -0.0760  0.0859
  862YOPE   C1A12827  14.126   1.375   6.481 -0.0979  0.4576 -0.4341
  862YOPE   D2A12828  14.022   1.030   6.785 -0.1651  0.0396  0.0708
  862YOPE   C3A12829  14.324   1.013   6.987 -0.2490 -0.3541  0.0880
  862YOPE   C4A12830  14.420   0.692   7.361  0.0636 -0.0902 -0.0506
  862YOPE   C1B12831  14.247   2.118   6.831 -0.1433 -0.3636  0.3023
  862YOPE   C2B12832  14.122   1.859   7.311 -0.2011 -0.1820 -0.0352
  862YOPE   D3B12833  14.009   1.931   7.689 -0.2100 -0.0684  0.1742
  862YOPE   C4B12834  13.715   1.927   7.883 -0.1367 -0.0564 -0.3002
  863YOPE   NH312835   2.402  17.760   5.620  0.2775  0.0279 -0.1084
  863YOPE   PO412836   1.983  17.764   5.815  0.0220  0.0920 -0.0187
  863YOPE   GL112837   1.732  17.603   6.215  0.4289 -0.4785 -0.1137
  863YOPE   GL212838   1.938  17.712   6.419 -0.0618 -0.1002  0.1374
  863YOPE   C1A12839   1.648  17.522   6.750 -0.1146  0.2051  0.1067
  863YOPE   D2A12840   1.739  17.524   7.197 -0.0575 -0.2501 -0.1499
  863YOPE   C3A12841   1.952  17.273   7.556 -0.1325  0.2528  0.2244
  863YOPE   C4A12842   1.947  17.148   7.986  0.1113 -0.2587 -0.0736
  863YOPE   C1B12843   2.145  17.609   6.889 -0.0223 -0.1757 -0.2314
  863YOPE   C2B12844   2.305  17.514   7.238  0.2224  0.2775 -0.0784
  863YOPE   D3B12845   2.475  17.363   7.462 -0.1076  0.1120  0.1672
  863YOPE   C4B12846   2.762  17.227   7.758 -0.0459  0.1667  0.0738
  864YOPE   NH312847  13.786  11.026   5.701  0.1824 -0.3040  0.0188
  864YOPE   PO412848  13.624  10.623   6.018  0.1659 -0.0869 -0.1147
  864YOPE   GL112849  13.670  10.577   6.425  0.3137 -0.0315 -0.1240
  864YOPE   GL212850  13.369  10.599   6.563  0.0329  0.0604  0.1198
  864YOPE   C1A12851  13.825  10.592   6.801 -0.2483 -0.0752  0.2571
  864YOPE   D2A12852  13.776  10.642   7.271  0.2300  0.2895 -0.1763
  864YOPE   C3A12853  13.846  10.419   7.552  0.1759 -0.0415 -0.2866
  864YOPE   C4A12854  13.894  10.242   7.988  0.0993 -0.3434 -0.0800
  864YOPE   C1B12855  13.356  10.741   6.897 -0.0561  0.2720 -0.1108
  864YOPE   C2B12856  13.295  10.538   7.302  0.3717 -0.1269  0.1928
  864YOPE   D3B12857  12.996  10.383   7.674 -0.2962  0.0053  0.0211
  864YOPE   C4B12858  12.876  10.561   8.028 -0.0589  0.1324  0.2446
  865YOPE   NH312859  15.207  18.088   6.124 -0.2380 -0.0167 -0.0151
  865YOPE   PO412860  14.860  17.796   5.960  0.0990  0.1563  0.1233
  865YOPE   GL112861  14.744  17.940   6.358  0.3036 -0.2387 -0.1244
  865YOPE   GL212862  14.789  18.283   6.451  0.2294 -0.0689 -0.1278
  865YOPE   C1A12863  14.451  17.715   6.715  0.1897 -0.4657 -0.0490
  865YOPE   D2A12864  14.619  18.106   7.042 -0.1445 -0.0205 -0.2083
  865YOPE   C3A12865  14.727  18.477   6.905 -0.0377  0.1890  0.0466
  865YOPE   C4A12866  14.811  18.904   7.120 -0.3307 -0.0128 -0.3796
  865YOPE   C1B12867  15.017  18.000   6.733 -0.1168 -0.0833 -0.0826
  865YOPE   C2B12868  15.081  17.962   7.084  0.0497 -0.2188 -0.2119
  865YOPE   D3B12869  14.963  18.097   7.539  0.1357 -0.0475 -0.0639
  865YOPE   C4B12870  15.058  18.340   7.892 -0.2667 -0.2477 -0.0949
  866YOPE   NH312871   8.214  10.417   5.728  0.1449  0.1370 -0.2943
  866YOPE   PO412872   8.617  10.638   5.718  0.1134  0.0833 -0.1892
  866YOPE   GL112873   8.672  10.492   6.174 -0.2111 -0.1241 -0.0215
  866YOPE   GL212874   8.586  10.186   6.081  0.2544  0.3459  0.2207
  866YOPE   C1A12875   8.753  10.271   6.525 -0.1202 -0.3330  0.1559
  866YOPE   D2A12876   8.561  10.145   6.929 -0.0921  0.2122 -0.0093
  866YOPE   C3A12877   8.287  10.026   7.188 -0.0914 -0.3392  0.2185
  866YOPE   C4A12878   7.919   9.941   7.230  0.0426  0.3107  0.1697
  866YOPE   C1B12879   8.279  10.261   6.489 -0.1205  0.2490  0.3324
  866YOPE   C2B12880   8.030  10.321   6.914 -0.0361  0.0337  0.0881
  866YOPE   D3B12881   7.886  10.488   7.333  0.0245 -0.0392  0.0133
  866YOPE   C4B12882   7.766  10.487   7.778  0.0329  0.2003 -0.4143
  867YOPE   NH312883   0.464   2.970   6.395 -0.2203 -0.0103 -0.1821
  867YOPE   PO412884   0.119   3.234   6.258  0.0259 -0.0751  0.1926
  867YOPE   GL112885   0.066   3.051   6.666 -0.0128  0.2134 -0.1915
  867YOPE   GL212886  -0.220   2.921   6.695  0.2497  0.1653  0.0081
  867YOPE   C1A12887   0.057   2.967   7.124 -0.3140 -0.2000  0.1612
  867YOPE   D2A12888   0.144   3.064   7.594 -0.0919  0.3823 -0.2419
  867YOPE   C3A12889   0.215   2.867   7.920 -0.0888  0.0275  0.0571
  867YOPE   C4A12890   0.069   2.890   8.319  0.0392  0.0385  0.1572
  867YOPE   C1B12891  -0.348   3.169   6.993  0.2442 -0.1523 -0.0727
  867YOPE   C2B12892  -0.344   3.097   7.465  0.0402 -0.2085 -0.2136
  867YOPE   D3B12893  -0.486   3.394   7.773  0.0431  0.0778 -0.1409
  867YOPE   C4B12894  -0.416   3.693   8.148 -0.1129  0.1019  0.0291
  868YOPE   NH312895  13.898  16.034   6.191 -0.0525  0.1675  0.0596
  868YOPE   PO412896  14.135  15.598   6.155  0.1587  0.3805 -0.3417
  868YOPE   GL112897  14.140  15.696   6.592  0.0187  0.1249 -0.0583
  868YOPE   GL212898  13.888  15.488   6.700  0.2953  0.2277 -0.1022
  868YOPE   C1A12899  14.470  15.765   6.817 -0.1707 -0.2047  0.0808
  868YOPE   D2A12900  14.599  15.867   7.184  0.1564 -0.1889 -0.0761
  868YOPE   C3A12901  14.966  15.643   7.277 -0.0560  0.0887 -0.3029
  868YOPE   C4A12902  15.414  15.382   7.198 -0.0531  0.0510 -0.2534
  868YOPE   C1B12903  13.841  15.937   7.009 -0.0800  0.2506  0.2236
  868YOPE   C2B12904  14.228  16.189   7.145 -0.1032  0.0809  0.0028
  868YOPE   D3B12905  14.574  16.332   7.340 -0.0303 -0.0984  0.2768
  868YOPE   C4B12906  14.965  16.504   7.541 -0.0701 -0.1283  0.2111
  869YOPE   NH312907   5.945  10.916   6.001  0.2446 -0.1935 -0.1499
  869YOPE   PO412908   6.229  11.095   6.027 -0.3139  0.1483  0.0317
  869YOPE   GL112909   6.178  11.292   6.384 -0.3827 -0.3116 -0.3844
  869YOPE   GL212910   6.471  11.274   6.525 -0.0848  0.2293  0.2784
  869YOPE   C1A12911   6.085  11.475   6.788 -0.0443  0.2385  0.1675
  869YOPE   D2A12912   6.191  11.445   7.168 -0.1294  0.0632  0.0887
  869YOPE   C3A12913   5.783  11.385   7.385  0.0116  0.1938  0.0934
  869YOPE   C4A12914   5.394  11.324   7.606  0.1468 -0.1046  0.1887
  869YOPE   C1B12915   6.385  11.059   6.910 -0.0100 -0.1603 -0.1679
  869YOPE   C2B12916   6.465  11.109   7.402 -0.1044  0.0817  0.1215
  869YOPE   D3B12917   6.423  10.923   7.796  0.1237 -0.1486  0.2352
  869YOPE   C4B12918   6.234  11.126   8.192 -0.0441  0.0122 -0.0516
  870YOPE   NH312919   3.442   4.696   6.051  0.3078  0.3324 -0.0704
  870YOPE   PO412920   3.349   5.050   5.946 -0.0429 -0.1151  0.1935
  870YOPE   GL112921   3.383   5.002   6.441 -0.0745 -0.0603 -0.0369
  870YOPE   GL212922   2.970   5.044   6.409  0.2272 -0.0827  0.1703
  870YOPE   C1A12923   3.232   4.982   6.813  0.3806  0.0646 -0.0592
  870YOPE   D2A12924   3.199   4.905   7.171 -0.0640  0.1003 -0.0117
  870YOPE   C3A12925   2.949   4.908   7.691  0.1975 -0.1098 -0.0608
  870YOPE   C4A12926   2.615   4.815   7.850  0.2472 -0.0048  0.1930
  870YOPE   C1B12927   2.879   5.333   6.696  0.1500 -0.2646  0.2091
  870YOPE   C2B12928   3.016   5.355   7.153 -0.2079  0.1695 -0.2589
  870YOPE   D3B12929   3.153   5.351   7.482 -0.0275 -0.0568  0.2042
  870YOPE   C4B12930   3.440   5.054   7.719 -0.1894 -0.0702 -0.5287
  871YOPE   NH312931   6.127   4.206   6.090 -0.1065 -0.0273  0.0226
  871YOPE   PO412932   5.923   4.550   6.044 -0.0891 -0.3012 -0.2016
  871YOPE   GL112933   5.920   4.501   6.410 -0.2391  0.1020 -0.2570
  871YOPE   GL212934   5.788   4.156   6.520  0.2285  0.1944 -0.1470
  871YOPE   C1A12935   5.783   4.689   6.790 -0.4070  0.1007  0.2959
  871YOPE   D2A12936   5.683   5.110   7.098 -0.0579 -0.4400 -0.1886
  871YOPE   C3A12937   5.800   5.543   7.225  0.1126  0.2791  0.3952
  871YOPE   C4A12938   5.704   5.960   7.439  0.1429  0.3281  0.0145
  871YOPE   C1B12939   5.868   4.220   7.005 -0.1457 -0.4091  0.1071
  871YOPE   C2B12940   5.982   4.291   7.458  0.1643  0.0701  0.2650
  871YOPE   D3B12941   6.198   4.330   7.896 -0.1801  0.0544 -0.0502
  871YOPE   C4B12942   6.077   4.707   8.094  0.0924  0.1248 -0.1224
  872YOPE   NH312943   5.940   5.818   5.901  0.3356 -0.1495 -0.2506
  872YOPE   PO412944   5.587   5.463   5.831 -0.1536  0.0941 -0.1725
  872YOPE   GL112945   5.555   5.699   6.189  0.3883  0.1692 -0.1834
  872YOPE   GL212946   5.815   5.593   6.409 -0.3336 -0.5021 -0.2078
  872YOPE   C1A12947   5.532   5.994   6.513 -0.1540  0.2302  0.1984
  872YOPE   D2A12948   5.709   6.324   6.670 -0.4421  0.2555  0.0780
  872YOPE   C3A12949   5.797   6.304   7.030 -0.2812  0.0512  0.0798
  872YOPE   C4A12950   5.980   6.404   7.473  0.0739 -0.1582 -0.0178
  872YOPE   C1B12951   5.989   5.317   6.743 -0.0435  0.0218  0.0763
  872YOPE   C2B12952   6.185   5.158   7.106 -0.2989 -0.2046  0.2017
  872YOPE   D3B12953   6.200   5.327   7.492  0.2610 -0.2303 -0.0338
  872YOPE   C4B12954   6.105   5.760   7.687 -0.1010 -0.0984 -0.3924
  873YOPE   NH312955  15.612   0.344   5.866 -0.0001  0.0510 -0.1831
  873YOPE   PO412956  15.696  -0.074   6.146 -0.0404  0.0705  0.0931
  873YOPE   GL112957  15.969  -0.134   6.467 -0.1011 -0.0294  0.1848
  873YOPE   GL212958  15.924   0.117   6.732  0.1265 -0.1962 -0.2783
  873YOPE   C1A12959  16.111  -0.353   6.872 -0.0128 -0.1819  0.0417
  873YOPE   D2A12960  16.286  -0.453   7.395 -0.3301 -0.3093  0.0948
  873YOPE   C3A12961  16.624  -0.295   7.423 -0.0518 -0.0366  0.0619
  873YOPE   C4A12962  16.807   0.072   7.485 -0.3177  0.2265 -0.0623
  873YOPE   C1B12963  15.795   0.216   7.159 -0.0728  0.3082  0.1977
  873YOPE   C2B12964  16.089   0.466   7.477 -0.2096 -0.1170  0.0175
  873YOPE   D3B12965  16.169   0.707   7.820 -0.0838  0.0913 -0.3917
  873YOPE   C4B12966  16.119   1.100   7.985 -0.1122  0.1582 -0.1824
  874YOPE   NH312967  17.657  17.452   6.318 -0.1696 -0.2439 -0.1985
  874YOPE   PO412968  17.349  17.796   6.247  0.2733  0.0822  0.1545
  874YOPE   GL112969  17.164  17.514   6.560  0.3107 -0.1544  0.0081
  874YOPE   GL212970  16.830  17.594   6.606 -0.1952  0.2412  0.1921
  874YOPE   C1A12971  17.225  17.444   7.090  0.1473 -0.1151 -0.2364
  874YOPE   D2A12972  17.165  17.305   7.508 -0.1141 -0.1226  0.0756
  874YOPE   C3A12973  17.307  17.143   7.889 -0.0955 -0.0736 -0.4017
  874YOPE   C4A12974  17.685  16.862   8.002 -0.2380 -0.0950 -0.1732
  874YOPE   C1B12975  16.870  17.196   6.840  0.1533 -0.1858 -0.1869
  874YOPE   C2B12976  16.878  17.021   7.202  0.3264 -0.0208  0.3854
  874YOPE   D3B12977  16.817  16.919   7.625 -0.4144 -0.2018  0.0394
  874YOPE   C4B12978  16.490  16.757   7.844 -0.3516  0.0641 -0.0665
  875YOPE   NH312979  16.175  18.007   6.048  0.4382 -0.0296  0.3396
  875YOPE   PO412980  15.810  17.754   6.171  0.0013  0.3884  0.2320
  875YOPE   GL112981  15.990  17.684   6.460  0.1730 -0.1018  0.3720
  875YOPE   GL212982  16.363  17.693   6.456  0.0088  0.1348  0.0940
  875YOPE   C1A12983  15.996  17.515   6.859  0.0859  0.0181 -0.0664
  875YOPE   D2A12984  15.945  17.535   7.225 -0.0699 -0.2628  0.1044
  875YOPE   C3A12985  15.904  17.406   7.670  0.0918 -0.0883 -0.1963
  875YOPE   C4A12986  15.982  17.361   8.124 -0.1407  0.0129 -0.1418
  875YOPE   C1B12987  16.441  17.390   6.812 -0.1303  0.3056 -0.2377
  875YOPE   C2B12988  16.346  17.153   7.131 -0.0245  0.0622 -0.0042
  875YOPE   D3B12989  16.370  17.112   7.457 -0.0660  0.1834  0.1457
  875YOPE   C4B12990  16.452  17.336   7.880 -0.0590  0.2364 -0.1232
  876YOPE   NH312991   8.692   6.044   5.563 -0.3541 -0.1061  0.2218
  876YOPE   PO412992   8.958   5.601   5.556  0.3510 -0.1870 -0.0502
  876YOPE   GL112993   8.771   5.410   5.943 -0.0975 -0.1255 -0.0456
  876YOPE   GL212994   8.655   5.679   5.948  0.0536 -0.1695 -0.0147
  876YOPE   C1A12995   8.934   5.536   6.377 -0.0580 -0.2151  0.0255
  876YOPE   D2A12996   8.654   5.839   6.602 -0.5584 -0.0640  0.1287
  876YOPE   C3A12997   8.938   6.145   6.753 -0.1142  0.0546 -0.0161
  876YOPE   C4A12998   9.226   6.148   7.135 -0.0201  0.1248 -0.1111
  876YOPE   C1B12999   8.915   5.971   6.175  0.0375 -0.3239  0.3154
  876YOPE   C2B13000   8.967   6.368   6.301 -0.4094 -0.2042 -0.0792
  876YOPE   D3B13001   8.665   6.635   6.540 -0.0997 -0.0056 -0.1816
  876YOPE   C4B13002   8.546   6.462   7.013  0.1928  0.2318  0.0421
  877YOPE   NH313003  13.375   6.189   5.256 -0.1789  0.0628 -0.2026
  877YOPE   PO413004  13.735   6.289   5.436  0.0955  0.0251  0.1050
  877YOPE   GL113005  13.875   6.134   5.877 -0.3082 -0.3857 -0.0066
  877YOPE   GL213006  14.126   6.277   6.067  0.3003  0.0742  0.0692
  877YOPE   C1A13007  13.644   6.226   6.247  0.1955 -0.1915  0.1364
  877YOPE   D2A13008  13.176   6.246   6.591 -0.1032  0.3754  0.2674
  877YOPE   C3A13009  13.247   5.940   6.906  0.0983  0.0211 -0.0360
  877YOPE   C4A13010  13.044   5.824   7.348 -0.0075 -0.1229 -0.2179
  877YOPE   C1B13011  14.386   6.116   6.403 -0.0911  0.0256  0.1128
  877YOPE   C2B13012  14.651   6.073   6.844  0.0679 -0.3821 -0.0769
  877YOPE   D3B13013  14.894   6.357   7.104 -0.1638 -0.0787  0.2396
  877YOPE   C4B13014  15.303   6.114   7.118  0.1015 -0.2056  0.1631
  878YOPE   NH313015   0.585  16.472   6.183  0.0363  0.4134 -0.0168
  878YOPE   PO413016   0.570  16.926   6.249  0.3405 -0.2532 -0.1399
  878YOPE   GL113017   0.544  17.126   6.635  0.0448 -0.0043  0.3412
  878YOPE   GL213018   0.316  17.211   6.795 -0.0478 -0.2517  0.1708
  878YOPE   C1A13019   0.779  17.093   7.028  0.3056  0.2033  0.4234
  878YOPE   D2A13020   0.853  17.375   7.408 -0.1836 -0.1756 -0.3357
  878YOPE   C3A13021   0.870  17.352   7.887  0.1707  0.0478  0.0204
  878YOPE   C4A13022   0.803  17.548   8.238 -0.3217  0.3054  0.0218
  878YOPE   C1B13023   0.361  17.329   7.195 -0.0649  0.2970  0.0149
  878YOPE   C2B13024   0.405  17.368   7.617  0.2005 -0.4916 -0.1189
  878YOPE   D3B13025   0.302  17.451   8.067 -0.2675 -0.0928  0.2865
  878YOPE   C4B13026   0.115  17.272   8.390  0.3781  0.0502 -0.1780
  879YOPE   NH313027  11.139  10.755   6.073 -0.0730  0.1059 -0.1902
  879YOPE   PO413028  11.071  11.194   6.087  0.1402 -0.4993 -0.2472
  879YOPE   GL113029  10.962  11.100   6.445  0.1092 -0.0680 -0.1161
  879YOPE   GL213030  10.818  11.286   6.684 -0.0021  0.0199  0.4164
  879YOPE   C1A13031  11.172  10.864   6.866  0.0187 -0.2699 -0.0765
  879YOPE   D2A13032  11.400  10.513   6.970 -0.2653 -0.3186 -0.0010
  879YOPE   C3A13033  11.570  10.566   7.356  0.1884  0.1073 -0.0300
  879YOPE   C4A13034  11.715  10.678   7.776  0.0751  0.2753 -0.0389
  879YOPE   C1B13035  10.805  11.299   7.094 -0.2023  0.1212 -0.2988
  879YOPE   C2B13036  11.013  11.155   7.445  0.0926  0.3654 -0.0352
  879YOPE   D3B13037  11.271  10.907   7.684 -0.0891 -0.1592  0.1709
  879YOPE   C4B13038  11.265  10.390   7.731 -0.0923 -0.2355 -0.1146
  880YOPE   NH313039   7.595   6.039   5.860  0.1777  0.0789  0.3058
  880YOPE   PO413040   7.178   6.258   5.750  0.1208 -0.0258  0.0613
  880YOPE   GL113041   7.153   6.414   6.150  0.2125  0.0078  0.0095
  880YOPE   GL213042   6.909   6.479   6.235  0.0502 -0.1066 -0.0565
  880YOPE   C1A13043   7.249   6.292   6.565 -0.0073 -0.0579 -0.3609
  880YOPE   D2A13044   7.116   6.144   6.898 -0.0855  0.0586 -0.0473
  880YOPE   C3A13045   7.410   6.268   7.181 -0.0347  0.5735  0.1754
  880YOPE   C4A13046   7.810   6.599   7.298  0.1206 -0.0005 -0.0712
  880YOPE   C1B13047   6.823   6.601   6.619 -0.1247  0.1305  0.3806
  880YOPE   C2B13048   7.163   6.623   6.949  0.4318  0.1292 -0.0575
  880YOPE   D3B13049   7.393   6.910   7.336  0.0779  0.2115 -0.3392
  880YOPE   C4B13050   7.659   7.267   7.518 -0.0507 -0.1675 -0.1723
  881YOPE   NH313051  16.250   0.283   6.432  0.3473  0.1555  0.3417
  881YOPE   PO413052  16.529  -0.179   6.318 -0.0309 -0.0440 -0.0685
  881YOPE   GL113053  16.568  -0.151   6.739 -0.0033 -0.0153 -0.2235
  881YOPE   GL213054  16.599  -0.447   6.906  0.3197  0.2634  0.2333
  881YOPE   C1A13055  16.787   0.034   7.004 -0.0820 -0.0133 -0.3102
  881YOPE   D2A13056  17.224   0.135   7.067 -0.2687  0.0982 -0.0586
  881YOPE   C3A13057  17.291   0.081   7.565  0.2538 -0.1163 -0.2555
  881YOPE   C4A13058  17.437  -0.002   7.955 -0.0753  0.0993  0.3445
  881YOPE   C1B13059  16.761  -0.751   7.200 -0.1206  0.1715 -0.2150
  881YOPE   C2B13060  16.798  -0.728   7.634  0.1140 -0.0268 -0.0976
  881YOPE   D3B13061  17.106  -0.730   8.050 -0.3202 -0.2152  0.0874
  881YOPE   C4B13062  17.252  -0.390   8.285 -0.3417 -0.0279 -0.1050
  882YOPE   NH313063   0.844  15.702   6.030 -0.1215  0.1674 -0.0314
  882YOPE   PO413064   0.847  15.220   5.945 -0.1935  0.1204 -0.0023
  882YOPE   GL113065   0.927  15.378   6.376  0.1513 -0.2412  0.0492
  882YOPE   GL213066   1.244  15.428   6.554 -0.4993  0.0968 -0.2275
  882YOPE   C1A13067   0.680  15.443   6.756  0.0682  0.1695 -0.3612
  882YOPE   D2A13068   0.615  15.427   7.162 -0.1758  0.0824  0.4186
  882YOPE   C3A13069   0.318  15.428   7.474  0.2965  0.0444 -0.1151
  882YOPE   C4A13070   0.094  15.691   7.735 -0.3035 -0.1172  0.0451
  882YOPE   C1B13071   1.251  15.613   6.992 -0.1705  0.1943 -0.0100
  882YOPE   C2B13072   1.456  15.711   7.349 -0.0296  0.2293 -0.2299
  882YOPE   D3B13073   1.624  16.035   7.603 -0.1825 -0.0128 -0.1050
  882YOPE   C4B13074   1.747  16.352   7.910  0.3845  0.5226 -0.1226
  883YOPE   NH313075   5.448  14.218   5.734 -0.0164  0.1193 -0.1914
  883YOPE   PO413076   5.448  14.408   6.036 -0.0659  0.3171 -0.1381
  883YOPE   GL113077   5.430  14.689   6.340 -0.1224  0.0029  0.0161
  883YOPE   GL213078   5.392  14.972   6.329  0.3401 -0.1482  0.2211
  883YOPE   C1A13079   5.197  14.743   6.741  0.0737 -0.0401 -0.0648
  883YOPE   D2A13080   5.045  14.419   6.980  0.0256  0.0968 -0.2482
  883YOPE   C3A13081   5.246  14.074   7.132  0.1137  0.1814 -0.2115
  883YOPE   C4A13082   5.134  13.735   7.328 -0.2215  0.2391 -0.4271
  883YOPE   C1B13083   5.430  15.165   6.696  0.0582 -0.3302 -0.0616
  883YOPE   C2B13084   5.519  15.477   7.091 -0.0744  0.4373  0.2242
  883YOPE   D3B13085   5.484  15.480   7.476  0.2987  0.2491 -0.1374
  883YOPE   C4B13086   5.414  15.161   7.745 -0.3409 -0.0702  0.2946
  884YOPE   NH313087   6.347   0.904   5.607  0.2775  0.1715 -0.0089
  884YOPE   PO413088   6.643   0.863   5.825  0.1754  0.0036  0.0657
  884YOPE   GL113089   6.535   1.123   6.167 -0.0839  0.1250  0.1404
  884YOPE   GL213090   6.263   1.229   5.964  0.0223 -0.0208 -0.2151
  884YOPE   C1A13091   6.652   1.352   6.477  0.2156  0.0134  0.1773
  884YOPE   D2A13092   6.935   1.553   6.783 -0.0203  0.2260 -0.1146
  884YOPE   C3A13093   6.824   1.643   7.155  0.2436 -0.3488  0.1928
  884YOPE   C4A13094   6.666   1.770   7.654 -0.0528  0.1904  0.1209
  884YOPE   C1B13095   6.164   1.395   6.356  0.0168  0.1585 -0.2023
  884YOPE   C2B13096   5.977   1.657   6.609 -0.4184  0.1983 -0.1652
  884YOPE   D3B13097   5.897   1.608   7.060  0.1151 -0.0324  0.0228
  884YOPE   C4B13098   5.665   1.830   7.374 -0.0991 -0.0210  0.1039
  885YOPE   NH313099   9.106   3.410   5.623 -0.2414 -0.1486 -0.1428
  885YOPE   PO413100   8.699   3.350   5.637  0.0001 -0.0619  0.1079
  885YOPE   GL113101   8.719   3.135   6.009 -0.2807  0.1029  0.1008
  885YOPE   GL213102   8.384   3.057   5.970 -0.0735 -0.0523  0.1100
  885YOPE   C1A13103   8.885   3.122   6.400  0.0919 -0.4678 -0.0095
  885YOPE   D2A13104   8.996   3.101   6.829 -0.1631 -0.1283 -0.3554
  885YOPE   C3A13105   9.036   2.847   7.289 -0.1002  0.1513 -0.1315
  885YOPE   C4A13106   9.035   2.670   7.600 -0.1539 -0.1135 -0.0674
  885YOPE   C1B13107   8.058   3.286   6.247  0.0660  0.0602 -0.0648
  885YOPE   C2B13108   7.935   3.581   6.535 -0.3823  0.1578 -0.1711
  885YOPE   D3B13109   7.997   3.551   7.059 -0.0605 -0.0960  0.0043
  885YOPE   C4B13110   8.521   3.627   7.183  0.0431  0.1690  0.0956
  886YOPE   NH313111   1.007   0.734   6.254  0.0470  0.3700  0.0049
  886YOPE   PO413112   1.373   0.612   6.193  0.0828  0.1269  0.1111
  886YOPE   GL113113   1.314   0.675   6.641  0.0773  0.0433 -0.2459
  886YOPE   GL213114   1.425   0.297   6.648 -0.0006  0.1782  0.2408
  886YOPE   C1A13115   1.049   0.760   7.056  0.1393 -0.1194 -0.1447
  886YOPE   D2A13116   1.002   1.009   7.568 -0.1339 -0.1851 -0.5056
  886YOPE   C3A13117   0.631   0.881   7.884 -0.0024 -0.0944  0.2244
  886YOPE   C4A13118   0.414   0.528   8.115 -0.0466  0.4026  0.2099
  886YOPE   C1B13119   1.576   0.494   7.134  0.3248  0.0930  0.3936
  886YOPE   C2B13120   1.372   0.504   7.496  0.0500  0.0599 -0.0359
  886YOPE   D3B13121   1.235   0.705   7.899  0.2328 -0.0914 -0.0670
  886YOPE   C4B13122   0.985   0.757   8.209  0.1622 -0.2293  0.1459
  887YOPE   NH313123  11.193  17.525   5.244  0.0033 -0.2072  0.0723
  887YOPE   PO413124  10.797  17.604   5.380  0.1571 -0.4506 -0.0943
  887YOPE   GL113125  10.726  17.941   5.723  0.2459 -0.0304  0.2617
  887YOPE   GL213126  10.926  17.865   5.979  0.1692  0.2251 -0.1474
  887YOPE   C1A13127  10.488  18.241   5.735 -0.3151 -0.0276 -0.0460
  887YOPE   D2A13128  10.531  18.692   5.736 -0.2119 -0.3789  0.0990
  887YOPE   C3A13129  10.451  19.029   6.015  0.1594  0.0066  0.3803
  887YOPE   C4A13130  10.382  19.169   6.422 -0.0545 -0.1078  0.1630
  887YOPE   C1B13131  10.613  18.182   6.181  0.0715  0.5378 -0.1544
  887YOPE   C2B13132  10.441  18.592   6.265 -0.1879 -0.5682  0.0241
  887YOPE   D3B13133  10.251  18.706   6.713  0.1072  0.0605  0.0519
  887YOPE   C4B13134  10.024  18.757   7.113  0.2032 -0.0649 -0.4191
  888YOPE   NH313135  16.231  16.953   5.985 -0.2194 -0.0816  0.2181
  888YOPE   PO413136  15.789  16.762   6.024  0.1010 -0.1719  0.1789
  888YOPE   GL113137  15.899  16.602   6.404  0.0386 -0.0937  0.2183
  888YOPE   GL213138  15.868  16.316   6.422  0.2465 -0.1177 -0.0738
  888YOPE   C1A13139  15.616  16.533   6.770 -0.4209 -0.1864  0.0204
  888YOPE   D2A13140  15.706  16.362   7.243 -0.1149 -0.3215 -0.0701
  888YOPE   C3A13141  15.941  16.489   7.536 -0.2793 -0.0627 -0.0615
  888YOPE   C4A13142  16.001  16.379   7.948 -0.3557 -0.0924  0.0387
  888YOPE   C1B13143  16.054  16.141   6.874 -0.0261  0.0582  0.2249
  888YOPE   C2B13144  16.206  16.208   7.202 -0.1012 -0.1281  0.0626
  888YOPE   D3B13145  16.097  16.039   7.528  0.0326  0.1394 -0.2675
  888YOPE   C4B13146  16.334  15.903   7.778 -0.0252  0.1016 -0.2169
  889YOPE   NH313147   8.162  11.999   6.331 -0.0654  0.1543 -0.1133
  889YOPE   PO413148   7.930  11.638   6.205 -0.2105  0.0805 -0.3258
  889YOPE   GL113149   7.731  11.718   6.557 -0.0147  0.1171 -0.1000
  889YOPE   GL213150   7.900  11.887   6.728 -0.3042 -0.4560  0.1587
  889YOPE   C1A13151   7.396  11.920   6.780 -0.0049 -0.0781  0.0784
  889YOPE   D2A13152   7.260  12.080   7.092  0.0989  0.1598 -0.3163
  889YOPE   C3A13153   7.465  12.513   7.128  0.2699  0.1937 -0.0027
  889YOPE   C4A13154   7.215  12.915   7.161 -0.2423  0.0760 -0.1277
  889YOPE   C1B13155   7.894  12.137   7.071 -0.0214  0.1147  0.0753
  889YOPE   C2B13156   7.927  12.132   7.536  0.0835  0.0591 -0.0579
  889YOPE   D3B13157   7.834  12.115   7.944 -0.0941 -0.1221 -0.0249
  889YOPE   C4B13158   7.887  11.982   8.314 -0.0022  0.2090  0.0522
  890YOPE   NH313159   3.963   9.143   5.871  0.1276 -0.1903  0.4369
  890YOPE   PO413160   4.141   9.541   5.920  0.1447 -0.1242 -0.0576
  890YOPE   GL113161   3.928   9.383   6.312  0.1334  0.3224  0.0109
  890YOPE   GL213162   4.086   9.104   6.329 -0.1985 -0.2109  0.0343
  890YOPE   C1A13163   3.854   9.406   6.797  0.1202  0.1297 -0.0506
  890YOPE   D2A13164   4.136   9.298   7.192 -0.1925 -0.7166  0.0314
  890YOPE   C3A13165   4.157   9.046   7.565  0.1801 -0.0083 -0.1053
  890YOPE   C4A13166   4.177   8.811   7.813 -0.0612 -0.1107 -0.3394
  890YOPE   C1B13167   4.305   9.261   6.707  0.1956  0.1625 -0.1125
  890YOPE   C2B13168   4.600   9.541   7.044  0.0015  0.1222  0.1563
  890YOPE   D3B13169   4.737   9.404   7.522  0.2669  0.2168  0.5415
  890YOPE   C4B13170   4.717   9.680   7.905  0.1693  0.1740 -0.0166
  891YOPE   NH313171  10.238  14.012   5.718 -0.1630  0.0548 -0.3395
  891YOPE   PO413172  10.090  14.371   5.835  0.1407  0.4243  0.2227
  891YOPE   GL113173   9.975  14.401   6.273 -0.0432  0.0268  0.3572
  891YOPE   GL213174  10.106  14.114   6.381 -0.1850 -0.3718 -0.0225
  891YOPE   C1A13175   9.689  14.336   6.515  0.0948  0.0006 -0.0415
  891YOPE   D2A13176   9.552  14.038   6.846 -0.3609  0.0408 -0.3275
  891YOPE   C3A13177   9.785  13.808   6.954 -0.0349 -0.2726 -0.4778
  891YOPE   C4A13178  10.184  13.864   7.201 -0.1966  0.4543  0.3625
  891YOPE   C1B13179  10.121  14.306   6.719 -0.1539 -0.0435  0.2219
  891YOPE   C2B13180   9.883  14.359   7.086 -0.1693  0.1326 -0.2269
  891YOPE   D3B13181   9.584  14.212   7.307  0.0525 -0.3882  0.2832
  891YOPE   C4B13182   9.286  14.351   7.591  0.3560 -0.3283  0.1563
  892YOPE   NH313183   6.905  17.350   6.155  0.1024  0.0270 -0.1367
  892YOPE   PO413184   6.463  17.380   6.108 -0.1126 -0.0996  0.2018
  892YOPE   GL113185   6.558  17.367   6.533 -0.0023 -0.1430 -0.0108
  892YOPE   GL213186   6.872  17.233   6.731  0.1340 -0.3688  0.0038
  892YOPE   C1A13187   6.413  17.045   6.922 -0.1824  0.0841 -0.0411
  892YOPE   D2A13188   6.178  16.857   7.229  0.0862  0.0837 -0.2994
  892YOPE   C3A13189   5.959  16.574   7.077  0.1382  0.2726  0.1991
  892YOPE   C4A13190   5.663  16.378   7.235  0.0086  0.0652 -0.1697
  892YOPE   C1B13191   6.791  17.338   7.149  0.3149 -0.1905  0.0666
  892YOPE   C2B13192   6.805  17.083   7.493 -0.0795  0.3678  0.0505
  892YOPE   D3B13193   6.853  16.788   7.779  0.2618 -0.0817  0.0310
  892YOPE   C4B13194   6.864  16.516   8.092  0.0146  0.0912  0.0770
  893YOPE   NH313195  13.559  16.445   6.021 -0.1561  0.1115  0.2000
  893YOPE   PO413196  13.652  16.888   6.042  0.7239  0.2751 -0.0131
  893YOPE   GL113197  13.648  17.064   6.467 -0.1660  0.4317 -0.3119
  893YOPE   GL213198  13.736  17.333   6.464  0.0715  0.2126 -0.4017
  893YOPE   C1A13199  13.899  17.000   6.871  0.1188 -0.2269 -0.2865
  893YOPE   D2A13200  13.859  16.622   7.143 -0.0917 -0.1361  0.0696
  893YOPE   C3A13201  14.051  16.587   7.433  0.0558  0.0539 -0.1303
  893YOPE   C4A13202  14.494  16.705   7.739 -0.1114  0.1209  0.0806
  893YOPE   C1B13203  13.507  17.403   6.851  0.1191 -0.1707  0.1969
  893YOPE   C2B13204  13.442  17.540   7.359 -0.3607 -0.1878 -0.0644
  893YOPE   D3B13205  13.408  17.933   7.660  0.0173 -0.1029  0.0429
  893YOPE   C4B13206  13.212  18.179   7.974 -0.4020  0.0696  0.1062
  894YOPE   NH313207  16.127   5.467   5.982 -0.3129 -0.2747  0.2733
  894YOPE   PO413208  16.599   5.396   5.993 -0.4862  0.1324  0.0871
  894YOPE   GL113209  16.615   5.451   6.420  0.2772 -0.2724 -0.2711
  894YOPE   GL213210  16.502   5.651   6.650 -0.0519 -0.3411  0.0931
  894YOPE   C1A13211  16.844   5.191   6.679 -0.2082  0.0723 -0.1312
  894YOPE   D2A13212  16.960   4.843   6.915 -0.1603  0.1321 -0.0882
  894YOPE   C3A13213  16.722   4.771   7.429  0.0577 -0.1953  0.0952
  894YOPE   C4A13214  16.542   4.665   7.909 -0.1292  0.0933 -0.0250
  894YOPE   C1B13215  16.620   5.630   7.106  0.3983  0.0703 -0.0849
  894YOPE   C2B13216  16.838   5.423   7.338  0.0183 -0.1349  0.0173
  894YOPE   D3B13217  16.831   5.454   7.731  0.0935 -0.1687 -0.1866
  894YOPE   C4B13218  16.497   5.529   8.052  0.0523  0.3122 -0.2538
  895YOPE   NH313219   7.021   7.793   5.663  0.2308  0.1636  0.2607
  895YOPE   PO413220   7.400   7.643   5.575  0.4373  0.1901 -0.1354
  895YOPE   GL113221   7.412   7.607   6.031 -0.0832 -0.0102  0.0815
  895YOPE   GL213222   7.464   7.242   5.993 -0.0173  0.1800 -0.1091
  895YOPE   C1A13223   7.351   7.831   6.338 -0.1247 -0.1011 -0.3067
  895YOPE   D2A13224   7.133   7.744   6.741 -0.1655  0.2954  0.1701
  895YOPE   C3A13225   7.412   7.893   7.083  0.1501 -0.1978 -0.2120
  895YOPE   C4A13226   7.222   7.852   7.443 -0.1726  0.0542  0.0905
  895YOPE   C1B13227   7.229   7.321   6.398 -0.2911 -0.1139  0.0319
  895YOPE   C2B13228   7.006   7.268   6.757  0.1911  0.1162  0.0658
  895YOPE   D3B13229   6.952   7.026   7.089  0.1276  0.1520  0.1503
  895YOPE   C4B13230   6.852   6.911   7.508 -0.2806  0.1523 -0.0731
  896YOPE   NH313231   3.029   0.263   6.271  0.1239  0.0722 -0.1125
  896YOPE   PO413232   2.673  -0.133   6.303 -0.0301 -0.0431  0.1155
  896YOPE   GL113233   2.705   0.128   6.683 -0.1187 -0.2432 -0.1529
  896YOPE   GL213234   2.890   0.383   6.766 -0.3409  0.0685 -0.3457
  896YOPE   C1A13235   2.748   0.216   7.193  0.0399  0.0486  0.2051
  896YOPE   D2A13236   2.785   0.164   7.632  0.1125 -0.2605 -0.0133
  896YOPE   C3A13237   3.120  -0.003   7.638 -0.2005 -0.4066  0.2526
  896YOPE   C4A13238   3.521  -0.338   7.717  0.0311 -0.1575 -0.5846
  896YOPE   C1B13239   3.028   0.646   7.204  0.0595  0.4484 -0.0843
  896YOPE   C2B13240   3.235   0.878   7.589  0.0250 -0.0064  0.1205
  896YOPE   D3B13241   3.501   1.198   7.731  0.1214 -0.0440 -0.0233
  896YOPE   C4B13242   3.525   1.306   8.181 -0.4290 -0.2132 -0.1319
  897YOPE   NH313243   8.960   9.957   5.895 -0.2553  0.1538  0.2751
  897YOPE   PO413244   9.327   9.683   6.030  0.1130 -0.0685 -0.4966
  897YOPE   GL113245   9.122   9.990   6.362  0.5896 -0.0257 -0.1778
  897YOPE   GL213246   9.359  10.207   6.456 -0.1404  0.3068  0.1240
  897YOPE   C1A13247   8.963   9.902   6.821 -0.2635 -0.1233  0.1327
  897YOPE   D2A13248   8.715   9.665   7.101  0.0399  0.2635 -0.2937
  897YOPE   C3A13249   8.418   9.259   7.121  0.0047 -0.0894 -0.0809
  897YOPE   C4A13250   8.049   9.438   7.231 -0.1023  0.0758 -0.0118
  897YOPE   C1B13251   9.208  10.403   6.875 -0.4944 -0.2050 -0.4841
  897YOPE   C2B13252   8.982  10.271   7.204 -0.1441 -0.1219  0.1288
  897YOPE   D3B13253   8.967   9.953   7.400  0.3052  0.2015 -0.1705
  897YOPE   C4B13254   8.927   9.844   7.864  0.2401 -0.1364 -0.0214
  898YOPE   NH313255  11.265  13.654   6.247  0.1356 -0.1688  0.0005
  898YOPE   PO413256  10.897  13.820   6.138 -0.1931 -0.4514 -0.0576
  898YOPE   GL113257  10.859  13.683   6.606 -0.0072 -0.0120  0.0942
  898YOPE   GL213258  10.649  13.544   6.551 -0.2519 -0.1497 -0.2876
  898YOPE   C1A13259  10.940  13.433   7.028 -0.1390 -0.2528  0.3651
  898YOPE   D2A13260  11.311  13.535   7.129  0.0118 -0.1206 -0.0894
  898YOPE   C3A13261  11.529  13.877   7.226 -0.3016  0.2405 -0.0428
  898YOPE   C4A13262  11.825  13.842   7.549 -0.1714 -0.0995 -0.1586
  898YOPE   C1B13263  10.662  13.175   6.706 -0.0502 -0.1094  0.3152
  898YOPE   C2B13264  10.869  12.796   6.885 -0.1523  0.0915  0.0605
  898YOPE   D3B13265  11.215  12.581   7.122  0.0826  0.2160 -0.3702
  898YOPE   C4B13266  11.460  12.616   7.535 -0.2935  0.1084  0.0109
  899YOPE   NH313267  13.858   9.284   5.845 -0.1032  0.1389  0.3706
  899YOPE   PO413268  13.926   8.826   5.841 -0.0092 -0.4470 -0.1240
  899YOPE   GL113269  13.801   8.836   6.181 -0.1855 -0.0567  0.0825
  899YOPE   GL213270  13.548   8.670   6.293  0.1779  0.0391  0.0659
  899YOPE   C1A13271  13.972   8.885   6.565 -0.1061 -0.3199  0.2570
  899YOPE   D2A13272  13.929   8.983   6.971  0.2531 -0.3298 -0.2395
  899YOPE   C3A13273  13.524   9.112   7.173 -0.1307 -0.2385  0.1012
  899YOPE   C4A13274  13.096   9.264   7.257 -0.2469  0.0245 -0.4771
  899YOPE   C1B13275  13.560   8.677   6.682 -0.1955 -0.0137  0.0669
  899YOPE   C2B13276  13.608   8.619   7.136 -0.2172  0.0500 -0.0799
  899YOPE   D3B13277  13.680   8.469   7.590 -0.1329 -0.1007 -0.0740
  899YOPE   C4B13278  13.845   8.562   7.971  0.0119  0.1110 -0.0781
  900YOPE   NH313279   1.879  10.789   5.883  0.0160 -0.0423 -0.2353
  900YOPE   PO413280   1.538  10.499   5.868  0.2355 -0.0856 -0.2890
  900YOPE   GL113281   1.454  10.445   6.337 -0.0490  0.1801 -0.1342
  900YOPE   GL213282   1.212  10.365   6.385 -0.1193  0.1790 -0.2264
  900YOPE   C1A13283   1.590  10.410   6.838 -0.1766  0.1445 -0.0969
  900YOPE   D2A13284   1.808  10.528   7.173  0.0534  0.0309  0.0464
  900YOPE   C3A13285   1.762  10.942   7.301  0.0485  0.1356  0.2348
  900YOPE   C4A13286   1.630  11.233   7.576  0.0509 -0.1248 -0.3319
  900YOPE   C1B13287   1.121  10.252   6.921  0.0583  0.3873 -0.1880
  900YOPE   C2B13288   1.373  10.216   7.241 -0.1964  0.1395  0.2327
  900YOPE   D3B13289   1.337  10.250   7.654 -0.1691 -0.0252 -0.0490
  900YOPE   C4B13290   1.182  10.373   8.026  0.0068  0.0250 -0.1468
  901YOPE   NH313291   2.635   1.291   5.604  0.0475  0.0682 -0.3638
  901YOPE   PO413292   2.426   1.163   5.991 -0.4006 -0.0945 -0.0801
  901YOPE   GL113293   2.261   1.349   6.385  0.4076  0.3024 -0.0887
  901YOPE   GL213294   2.200   1.675   6.408  0.2346 -0.0467 -0.0374
  901YOPE   C1A13295   2.167   1.131   6.766 -0.1018 -0.0075  0.2216
  901YOPE   D2A13296   1.855   0.952   6.975 -0.1986 -0.0555  0.1624
  901YOPE   C3A13297   2.084   0.892   7.403  0.2100 -0.1397 -0.0430
  901YOPE   C4A13298   2.263   0.913   7.756  0.1018  0.1181 -0.1193
  901YOPE   C1B13299   2.118   1.728   6.854  0.2775  0.1726 -0.1406
  901YOPE   C2B13300   2.145   1.704   7.273  0.0998  0.4018 -0.2716
  901YOPE   D3B13301   2.262   1.783   7.605 -0.5304  0.0318 -0.4000
  901YOPE   C4B13302   2.224   1.960   8.028 -0.4394  0.0178  0.0453
  902YOPE   NH313303  11.202  17.883   5.560  0.1309  0.1684 -0.3719
  902YOPE   PO413304  11.496  18.117   5.744  0.0437  0.4106 -0.0470
  902YOPE   GL113305  11.531  18.257   6.169 -0.1070 -0.1089  0.0772
  902YOPE   GL213306  11.223  18.295   6.148 -0.1489 -0.0969 -0.0084
  902YOPE   C1A13307  11.830  17.948   6.270  0.1334  0.2878  0.0375
  902YOPE   D2A13308  11.799  17.480   6.324 -0.1008  0.2194  0.1884
  902YOPE   C3A13309  11.793  17.346   6.768  0.0131 -0.1765  0.0403
  902YOPE   C4A13310  11.635  17.221   7.116 -0.0288  0.0816 -0.3991
  902YOPE   C1B13311  11.250  18.225   6.599  0.0942  0.1578 -0.3010
  902YOPE   C2B13312  11.218  18.292   7.113  0.2681  0.2712 -0.1687
  902YOPE   D3B13313  11.524  18.605   7.313 -0.0130 -0.6522 -0.1917
  902YOPE   C4B13314  11.838  18.934   7.312 -0.2359  0.3200 -0.1656
  903YOPE   NH313315  17.355  10.788   5.850 -0.3794  0.0684  0.0553
  903YOPE   PO413316  16.915  10.568   5.832 -0.4953 -0.1775 -0.0287
  903YOPE   GL113317  17.021  10.340   6.206 -0.2576 -0.2175 -0.1977
  903YOPE   GL213318  16.723  10.257   6.390 -0.1930 -0.2094  0.0617
  903YOPE   C1A13319  17.129  10.115   6.605  0.0203 -0.2445  0.0761
  903YOPE   D2A13320  17.205  10.094   6.967 -0.0547  0.2359 -0.2019
  903YOPE   C3A13321  17.421  10.293   7.176 -0.1292  0.4028  0.2126
  903YOPE   C4A13322  17.493  10.252   7.645  0.0244 -0.0190 -0.1181
  903YOPE   C1B13323  16.722  10.123   6.831 -0.0742 -0.2481 -0.1385
  903YOPE   C2B13324  16.680  10.127   7.229 -0.3025 -0.0156  0.1572
  903YOPE   D3B13325  16.585  10.194   7.687  0.2390 -0.2424  0.1062
  903YOPE   C4B13326  16.172  10.179   7.992 -0.4009  0.0437  0.0359
  904YOPE   NH313327   7.526   0.696   5.809  0.0544 -0.0972  0.2355
  904YOPE   PO413328   7.014   0.543   5.797 -0.1808 -0.1831  0.0346
  904YOPE   GL113329   7.210   0.363   6.134  0.3111 -0.3242 -0.3793
  904YOPE   GL213330   7.531   0.474   6.268  0.2785  0.3158  0.0532
  904YOPE   C1A13331   7.162   0.466   6.644 -0.0752  0.2261  0.3261
  904YOPE   D2A13332   6.902   0.670   6.931 -0.2945  0.2288  0.0260
  904YOPE   C3A13333   7.010   0.829   7.274 -0.2633  0.3731  0.0679
  904YOPE   C4A13334   7.099   0.482   7.710  0.0122 -0.0042 -0.1275
  904YOPE   C1B13335   7.736   0.879   6.467  0.0372  0.1061  0.2428
  904YOPE   C2B13336   7.726   0.714   6.848 -0.2243 -0.3093 -0.0782
  904YOPE   D3B13337   7.820   0.662   7.232 -0.2117  0.0470  0.2080
  904YOPE   C4B13338   8.096   0.498   7.495 -0.0585  0.1761  0.1109
  905YOPE   NH313339  13.236   6.332   5.773 -0.0018  0.2728  0.2215
  905YOPE   PO413340  13.040   5.883   5.514 -0.2635 -0.0972 -0.1972
  905YOPE   GL113341  13.025   5.886   5.978 -0.0487 -0.1445  0.3946
  905YOPE   GL213342  12.732   5.804   6.066 -0.1437 -0.0553  0.0166
  905YOPE   C1A13343  13.375   5.751   6.263  0.1953 -0.0704 -0.2347
  905YOPE   D2A13344  13.853   5.720   6.258 -0.2610 -0.4673  0.1654
  905YOPE   C3A13345  14.227   5.667   6.574 -0.0727  0.1567  0.1233
  905YOPE   C4A13346  14.709   5.673   6.620 -0.0216  0.1180  0.0141
  905YOPE   C1B13347  12.884   5.570   6.385  0.4855  0.1128  0.0952
  905YOPE   C2B13348  12.832   5.168   6.552  0.1865  0.0110  0.1000
  905YOPE   D3B13349  12.618   5.126   6.930  0.0150 -0.0560  0.1370
  905YOPE   C4B13350  12.442   4.823   7.245  0.0231 -0.3688  0.0327
  906YOPE   NH313351  11.961  15.226   6.037 -0.2011  0.0803  0.0421
  906YOPE   PO413352  11.775  14.748   6.022 -0.2445  0.2019 -0.1028
  906YOPE   GL113353  11.720  14.950   6.383  0.1724 -0.0425 -0.2142
  906YOPE   GL213354  11.637  15.265   6.452  0.0360  0.1094 -0.1836
  906YOPE   C1A13355  11.667  14.853   6.831  0.1853 -0.0874  0.0053
  906YOPE   D2A13356  11.474  14.794   7.273 -0.0296 -0.3944 -0.3420
  906YOPE   C3A13357  11.775  14.839   7.581 -0.0533  0.0488  0.1755
  906YOPE   C4A13358  12.085  14.867   7.848  0.1890 -0.0446  0.3394
  906YOPE   C1B13359  11.367  15.282   6.720 -0.0259  0.1519 -0.0337
  906YOPE   C2B13360  11.180  15.143   7.113 -0.1043 -0.1304  0.2884
  906YOPE   D3B13361  10.981  14.907   7.328  0.0535  0.0874  0.0173
  906YOPE   C4B13362  10.853  14.960   7.748 -0.1355  0.2930 -0.2749
  907YOPE   NH313363   3.767   3.414   5.919  0.3591 -0.1248  0.1802
  907YOPE   PO413364   3.740   2.933   5.944  0.1326  0.4221  0.1955
  907YOPE   GL113365   3.996   2.795   6.366 -0.0088  0.0447 -0.0698
  907YOPE   GL213366   4.177   2.516   6.419 -0.2171 -0.1244 -0.1420
  907YOPE   C1A13367   3.886   2.872   6.739  0.0784  0.1351 -0.1115
  907YOPE   D2A13368   4.036   2.805   7.185  0.1498  0.1481 -0.1715
  907YOPE   C3A13369   4.167   2.958   7.543 -0.0720 -0.3386  0.0380
  907YOPE   C4A13370   4.607   3.044   7.768 -0.2843  0.5392 -0.2010
  907YOPE   C1B13371   4.202   2.355   6.741 -0.0900  0.0106 -0.3323
  907YOPE   C2B13372   4.431   2.486   7.159 -0.0053 -0.1141  0.0591
  907YOPE   D3B13373   4.389   2.500   7.594  0.1213  0.0163 -0.0039
  907YOPE   C4B13374   4.110   2.407   7.858 -0.5569 -0.0268 -0.2594
  908YOPE   NH313375   9.017  15.235   5.945  0.0260 -0.0846 -0.3071
  908YOPE   PO413376   8.549  15.369   5.921  0.0467 -0.1626 -0.1168
  908YOPE   GL113377   8.413  15.234   6.324 -0.2981  0.1967  0.3801
  908YOPE   GL213378   8.100  15.182   6.279  0.0660  0.0274  0.0658
  908YOPE   C1A13379   8.278  14.966   6.669  0.2516  0.0017 -0.2934
  908YOPE   D2A13380   8.344  14.834   6.960  0.4094  0.3069  0.0703
  908YOPE   C3A13381   8.478  14.761   7.332  0.2263  0.1023 -0.0826
  908YOPE   C4A13382   8.703  14.602   7.572  0.2177  0.0687  0.0572
  908YOPE   C1B13383   7.845  15.470   6.559  0.0590  0.3961  0.0091
  908YOPE   C2B13384   7.632  15.757   6.862 -0.0901 -0.0516  0.2292
  908YOPE   D3B13385   7.723  15.783   7.272 -0.0165 -0.0435  0.1079
  908YOPE   C4B13386   7.846  15.906   7.606 -0.3460  0.0289 -0.3472
  909YOPE   NH313387   2.663  12.911   5.111 -0.0248 -0.1371  0.0311
  909YOPE   PO413388   2.520  12.683   5.558 -0.0488 -0.1430 -0.4503
  909YOPE   GL113389   2.586  12.651   6.084  0.1264  0.2576  0.1680
  909YOPE   GL213390   2.799  12.467   6.184 -0.1714 -0.0439 -0.0272
  909YOPE   C1A13391   2.374  12.968   6.329 -0.2918 -0.4120 -0.1413
  909YOPE   D2A13392   2.495  13.156   6.654 -0.0359  0.0778 -0.1582
  909YOPE   C3A13393   2.291  13.203   7.013 -0.0721  0.0872 -0.1825
  909YOPE   C4A13394   2.235  13.068   7.538  0.2048 -0.3129 -0.0710
  909YOPE   C1B13395   2.638  12.623   6.608  0.3763 -0.0234  0.1301
  909YOPE   C2B13396   2.277  12.686   6.845 -0.1154  0.1221  0.3344
  909YOPE   D3B13397   2.040  12.315   7.076  0.0120 -0.3067  0.1474
  909YOPE   C4B13398   2.102  12.222   7.580  0.0039  0.1774  0.0718
  910YOPE   NH313399   0.640  13.928   6.169  0.3038  0.3069  0.1464
  910YOPE   PO413400   0.377  13.923   5.864  0.1864 -0.0706  0.2700
  910YOPE   GL113401   0.157  13.961   6.283  0.0331 -0.1700  0.2224
  910YOPE   GL213402   0.359  13.925   6.560 -0.1075 -0.1576 -0.0975
  910YOPE   C1A13403   0.002  14.280   6.562  0.1519 -0.0493  0.0821
  910YOPE   D2A13404  -0.034  14.555   6.892 -0.0990  0.0530  0.2868
  910YOPE   C3A13405   0.063  14.377   7.265 -0.1595  0.0857 -0.0869
  910YOPE   C4A13406   0.108  14.190   7.663 -0.0715 -0.0914 -0.0517
  910YOPE   C1B13407   0.347  14.074   6.944 -0.1886 -0.3239 -0.3801
  910YOPE   C2B13408   0.410  13.908   7.390  0.0874 -0.0890  0.0717
  910YOPE   D3B13409   0.740  13.525   7.719  0.0674 -0.2899 -0.2122
  910YOPE   C4B13410   1.130  13.147   7.788  0.1781 -0.0675  0.0822
  911YOPE   NH313411   4.863  15.660   6.194  0.1151  0.3860  0.1669
  911YOPE   PO413412   4.488  15.790   6.156  0.0132  0.1206 -0.0006
  911YOPE   GL113413   4.426  15.607   6.512 -0.1994 -0.1611  0.0904
  911YOPE   GL213414   4.488  15.294   6.363 -0.0721 -0.1168 -0.3176
  911YOPE   C1A13415   4.534  15.366   6.941 -0.1707  0.2483  0.1122
  911YOPE   D2A13416   4.590  15.448   7.312  0.0633 -0.1076 -0.2351
  911YOPE   C3A13417   4.330  15.588   7.673 -0.2412 -0.3712  0.0206
  911YOPE   C4A13418   3.880  15.418   7.693  0.0831  0.0333  0.0930
  911YOPE   C1B13419   4.253  15.034   6.712  0.1062 -0.0828 -0.0232
  911YOPE   C2B13420   4.138  14.871   7.056 -0.0426  0.0002  0.1839
  911YOPE   D3B13421   3.810  14.614   7.292 -0.3540  0.0872  0.2404
  911YOPE   C4B13422   3.667  14.352   7.669 -0.1174 -0.0642  0.3211
  912YOPE   NH313423  10.217   7.488   5.777  0.0294  0.2545  0.1568
  912YOPE   PO413424   9.967   7.889   5.824  0.1311  0.4628 -0.0386
  912YOPE   GL113425  10.072   7.841   6.243  0.0805  0.0324  0.0188
  912YOPE   GL213426  10.084   8.159   6.350  0.0031 -0.0774 -0.0537
  912YOPE   C1A13427  10.340   7.727   6.577 -0.3572  0.0610 -0.1092
  912YOPE   D2A13428  10.372   7.693   7.031  0.0042 -0.1292  0.3367
  912YOPE   C3A13429  10.267   7.321   7.404 -0.0981 -0.1561 -0.1764
  912YOPE   C4A13430  10.026   7.235   7.705 -0.0359 -0.0561 -0.3988
  912YOPE   C1B13431   9.925   8.274   6.604 -0.0731  0.2719  0.1737
  912YOPE   C2B13432   9.700   8.337   6.936 -0.1479 -0.0644 -0.0467
  912YOPE   D3B13433   9.494   8.152   7.356  0.3550  0.2151 -0.2632
  912YOPE   C4B13434   9.480   7.845   7.663  0.1672 -0.2250  0.1371
  913YOPE   NH313435  17.955   5.923   6.069  0.0079 -0.1700 -0.1294
  913YOPE   PO413436  17.612   6.215   5.979 -0.1835 -0.0537 -0.3107
  913YOPE   GL113437  17.488   6.027   6.397  0.0975 -0.0501  0.3240
  913YOPE   GL213438  17.705   5.771   6.529 -0.1916 -0.5202  0.0012
  913YOPE   C1A13439  17.539   6.010   6.899  0.1086  0.3602  0.2338
  913YOPE   D2A13440  17.795   6.033   7.290  0.0454  0.0103  0.1916
  913YOPE   C3A13441  17.496   6.114   7.706  0.0150 -0.2776  0.2202
  913YOPE   C4A13442  17.431   5.991   8.140 -0.1925  0.0711  0.3260
  913YOPE   C1B13443  17.886   5.676   6.887  0.1917 -0.3670  0.0900
  913YOPE   C2B13444  17.598   5.565   7.180  0.1527 -0.4037  0.2583
  913YOPE   D3B13445  17.281   5.638   7.400  0.0635 -0.0687  0.2642
  913YOPE   C4B13446  17.072   5.834   7.834 -0.1309 -0.0508 -0.2895
  914YOPE   NH313447  14.072  17.135   6.131 -0.0648 -0.0465 -0.2211
  914YOPE   PO413448  13.920  17.536   6.047  0.1280 -0.0445  0.1745
  914YOPE   GL113449  14.099  17.749   6.304  0.1869 -0.0113 -0.2035
  914YOPE   GL213450  14.233  17.994   6.261  0.0961  0.0250  0.0100
  914YOPE   C1A13451  13.916  17.844   6.744 -0.1611 -0.1311  0.1443
  914YOPE   D2A13452  13.798  17.764   7.037  0.2198  0.0970  0.0811
  914YOPE   C3A13453  13.917  17.805   7.460  0.1185 -0.0080  0.2787
  914YOPE   C4A13454  13.925  17.944   7.904 -0.1131 -0.0190 -0.2028
  914YOPE   C1B13455  14.282  18.233   6.701 -0.4094  0.0263  0.2051
  914YOPE   C2B13456  14.137  18.198   7.152 -0.2210 -0.0308 -0.2544
  914YOPE   D3B13457  14.068  18.377   7.540  0.3092 -0.0531  0.2367
  914YOPE   C4B13458  14.168  18.797   7.764 -0.0283 -0.0243  0.2663
  915YOPE   NH313459   1.042   5.568   6.301 -0.1703 -0.2451 -0.2184
  915YOPE   PO413460   1.072   6.096   6.252  0.4042  0.1776  0.0089
  915YOPE   GL113461   1.009   5.972   6.703  0.2727  0.1736 -0.1314
  915YOPE   GL213462   0.829   6.374   6.715 -0.0812  0.2028 -0.1018
  915YOPE   C1A13463   1.175   5.917   7.185 -0.0231 -0.1311  0.1271
  915YOPE   D2A13464   1.066   5.918   7.517  0.2008  0.0109 -0.1821
  915YOPE   C3A13465   1.255   6.143   7.924 -0.2554 -0.0345 -0.3056
  915YOPE   C4A13466   1.507   6.387   8.262 -0.1004  0.0585  0.1704
  915YOPE   C1B13467   0.715   6.191   7.132 -0.0871 -0.2549  0.1566
  915YOPE   C2B13468   0.380   6.027   7.306  0.0500  0.1348 -0.0942
  915YOPE   D3B13469   0.249   5.847   7.684  0.1067 -0.2551 -0.0784
  915YOPE   C4B13470  -0.136   5.630   7.874 -0.4786  0.1725  0.0811
  916YOPE   NH313471  11.583   1.255   5.555  0.1532 -0.1272 -0.1384
  916YOPE   PO413472  11.448   0.767   5.554 -0.2681 -0.2023 -0.0425
  916YOPE   GL113473  11.588   0.779   5.897 -0.1047  0.0462 -0.3474
  916YOPE   GL213474  11.430   0.569   6.104  0.2160  0.3387 -0.0764
  916YOPE   C1A13475  11.456   1.032   6.299 -0.1607  0.1790  0.0840
  916YOPE   D2A13476  11.196   1.346   6.459  0.2458  0.3486 -0.0489
  916YOPE   C3A13477  11.438   1.358   6.830  0.0604  0.2567  0.2489
  916YOPE   C4A13478  11.339   1.588   7.173 -0.0359  0.3053  0.1131
  916YOPE   C1B13479  11.411   0.379   6.522  0.1653 -0.0869 -0.0602
  916YOPE   C2B13480  11.261   0.402   6.902  0.1715  0.1888 -0.1090
  916YOPE   D3B13481  11.102   0.477   7.352 -0.1161  0.1533  0.1180
  916YOPE   C4B13482  11.216   0.428   7.786  0.0886 -0.1432  0.2464
  917YOPE   NH313483  14.626   7.214   5.662 -0.0819  0.0206  0.1144
  917YOPE   PO413484  14.286   7.153   5.899  0.1363 -0.0649 -0.1038
  917YOPE   GL113485  14.241   7.357   6.235 -0.3462 -0.1067 -0.0391
  917YOPE   GL213486  13.878   7.334   6.294  0.0126  0.0820 -0.1461
  917YOPE   C1A13487  14.123   7.719   6.656 -0.2081  0.1687  0.2522
  917YOPE   D2A13488  14.086   7.894   6.987  0.0842 -0.0856 -0.1121
  917YOPE   C3A13489  14.422   8.170   7.271 -0.0151 -0.4964 -0.1385
  917YOPE   C4A13490  14.677   8.292   7.508 -0.2142 -0.1053  0.2341
  917YOPE   C1B13491  13.697   7.322   6.645 -0.1931 -0.1953  0.1915
  917YOPE   C2B13492  13.985   7.358   7.005 -0.0867  0.0347  0.3064
  917YOPE   D3B13493  14.178   7.557   7.405 -0.2414 -0.0195  0.0147
  917YOPE   C4B13494  14.371   7.875   7.743  0.0401  0.3404  0.0366
  918YOPE   NH313495  11.590  10.007   5.833 -0.1714  0.1336 -0.3360
  918YOPE   PO413496  11.594  10.493   5.885  0.0602 -0.3076 -0.0361
  918YOPE   GL113497  11.387  10.330   6.252 -0.1278  0.0512 -0.1627
  918YOPE   GL213498  11.102  10.432   6.449  0.1347  0.1616  0.2352
  918YOPE   C1A13499  11.388  10.029   6.668  0.1356 -0.2738  0.0268
  918YOPE   D2A13500  11.389   9.793   7.079  0.1972  0.1385  0.3278
  918YOPE   C3A13501  11.663   9.428   7.266  0.4838  0.3561  0.1814
  918YOPE   C4A13502  12.019   9.242   7.566 -0.1342  0.0415 -0.1314
  918YOPE   C1B13503  11.016  10.198   6.894 -0.0548 -0.0031 -0.0708
  918YOPE   C2B13504  10.968  10.131   7.275  0.1085 -0.0742  0.1120
  918YOPE   D3B13505  10.941   9.750   7.515 -0.1628 -0.3793 -0.0331
  918YOPE   C4B13506  10.709   9.844   7.947 -0.0910 -0.0593  0.0016
  919YOPE   NH313507   0.628  10.846   5.993  0.1114 -0.1037 -0.0986
  919YOPE   PO413508   0.662  10.387   5.989  0.1722  0.3533 -0.2216
  919YOPE   GL113509   0.687  10.514   6.410  0.5350 -0.1271 -0.0269
  919YOPE   GL213510   0.445  10.516   6.558  0.1461 -0.0519 -0.0270
  919YOPE   C1A13511   0.793  10.605   6.901  0.0411 -0.5049 -0.0770
  919YOPE   D2A13512   0.937  10.466   7.322  0.0892  0.0608 -0.0904
  919YOPE   C3A13513   0.866  10.289   7.631  0.0013  0.0701  0.0847
  919YOPE   C4A13514   0.751  10.044   8.012  0.2495 -0.2197  0.1031
  919YOPE   C1B13515   0.284  10.478   6.861  0.1266  0.0105  0.0553
  919YOPE   C2B13516   0.386  10.583   7.204 -0.1664 -0.1380  0.1742
  919YOPE   D3B13517   0.371  10.343   7.502  0.1226  0.2289 -0.1156
  919YOPE   C4B13518   0.110  10.077   7.773 -0.2227 -0.1282  0.1710
  920YOPE   NH313519  13.859   8.355   5.975 -0.4293  0.0283 -0.2111
  920YOPE   PO413520  14.303   8.303   6.004 -0.3066 -0.1352  0.1121
  920YOPE   GL113521  14.360   8.721   6.156 -0.0609 -0.2257 -0.3924
  920YOPE   GL213522  14.273   9.072   6.108 -0.0120  0.1136 -0.1694
  920YOPE   C1A13523  14.813   8.824   6.309  0.2813 -0.1509  0.2396
  920YOPE   D2A13524  15.166   8.891   6.440  0.0922 -0.0317  0.1391
  920YOPE   C3A13525  15.364   8.497   6.591 -0.0890 -0.3483  0.3359
  920YOPE   C4A13526  15.483   8.091   6.822  0.1833 -0.0531  0.2535
  920YOPE   C1B13527  14.292   9.331   6.482 -0.2810 -0.0623  0.2821
  920YOPE   C2B13528  14.464   9.448   6.987  0.1268  0.0767  0.2508
  920YOPE   D3B13529  14.240   9.233   7.302  0.1639  0.3365  0.0450
  920YOPE   C4B13530  13.913   8.965   7.484  0.0263  0.4081  0.2449
  921YOPE   NH313531   0.152  10.267   5.943 -0.2898 -0.3839  0.0154
  921YOPE   PO413532   0.178  10.606   6.116  0.1392 -0.1239 -0.1067
  921YOPE   GL113533  -0.066  10.379   6.495 -0.3066 -0.2849 -0.2173
  921YOPE   GL213534  -0.216  10.090   6.263 -0.2042 -0.0382 -0.1615
  921YOPE   C1A13535  -0.153  10.275   6.796  0.0808  0.2092 -0.1094
  921YOPE   D2A13536  -0.346  10.273   7.261  0.0680  0.2207 -0.1179
  921YOPE   C3A13537  -0.401   9.934   7.492  0.0563 -0.0318  0.3485
  921YOPE   C4A13538  -0.302   9.921   7.967  0.3711  0.1660  0.0138
  921YOPE   C1B13539  -0.052   9.637   6.423 -0.0156  0.2063  0.2313
  921YOPE   C2B13540  -0.007   9.379   6.705 -0.0295 -0.0084  0.1297
  921YOPE   D3B13541   0.010   8.901   6.839  0.0419 -0.4955  0.0184
  921YOPE   C4B13542   0.054   8.774   7.234 -0.4811  0.1516 -0.1665
  922YOPE   NH313543   5.656  15.743   5.935 -0.0369 -0.0575 -0.1450
  922YOPE   PO413544   5.234  16.028   6.106 -0.1526 -0.1005 -0.3421
  922YOPE   GL113545   4.986  16.166   6.540  0.0319  0.1979 -0.3217
  922YOPE   GL213546   4.672  16.049   6.549  0.3086  0.1194  0.2240
  922YOPE   C1A13547   4.947  16.151   6.996 -0.0045 -0.0238  0.1254
  922YOPE   D2A13548   4.814  16.046   7.328 -0.0665  0.2780 -0.0213
  922YOPE   C3A13549   4.983  15.637   7.588  0.1896  0.0086 -0.1358
  922YOPE   C4A13550   5.226  15.698   7.973 -0.1827  0.1235 -0.1815
  922YOPE   C1B13551   4.556  15.849   6.945 -0.1261  0.0947  0.1495
  922YOPE   C2B13552   4.302  15.981   7.235 -0.0230 -0.2371 -0.0487
  922YOPE   D3B13553   3.973  15.902   7.434 -0.1288  0.0719 -0.4453
  922YOPE   C4B13554   3.584  15.778   7.807 -0.0480  0.1008  0.1085
  923YOPE   NH313555  10.206  16.082   5.941 -0.2095 -0.1212 -0.0681
  923YOPE   PO413556   9.951  16.501   5.935 -0.1669  0.1706 -0.1812
  923YOPE   GL113557  10.016  16.376   6.328 -0.1884 -0.1459  0.0998
  923YOPE   GL213558  10.054  16.049   6.412 -0.2846 -0.2870  0.0997
  923YOPE   C1A13559   9.931  16.463   6.744 -0.0161  0.1713  0.2422
  923YOPE   D2A13560  10.007  16.644   7.224  0.0974  0.0527  0.2325
  923YOPE   C3A13561  10.248  16.835   7.477 -0.1282  0.4749  0.1833
  923YOPE   C4A13562  10.323  17.056   7.986  0.3711 -0.1361  0.0030
  923YOPE   C1B13563   9.872  15.922   6.773  0.0531  0.0320  0.0539
  923YOPE   C2B13564   9.944  16.007   7.235 -0.2108  0.1212 -0.3596
  923YOPE   D3B13565  10.045  16.235   7.697  0.0551  0.0558  0.0976
  923YOPE   C4B13566   9.749  16.402   7.586 -0.1776 -0.0321  0.1512
  924YOPE   NH313567  11.092  16.420   5.890 -0.4414  0.0916 -0.3473
  924YOPE   PO413568  11.473  16.455   6.162  0.1446  0.2174  0.0453
  924YOPE   GL113569  11.876  16.472   6.502  0.0863 -0.3753 -0.1798
  924YOPE   GL213570  12.025  16.140   6.369  0.0340 -0.1364 -0.1216
  924YOPE   C1A13571  11.776  16.276   6.889 -0.1457 -0.1579  0.1220
  924YOPE   D2A13572  11.805  16.273   7.342 -0.1739 -0.2014  0.0929
  924YOPE   C3A13573  11.548  16.428   7.634  0.0401 -0.0179 -0.0471
  924YOPE   C4A13574  11.249  16.555   8.036  0.1848 -0.0702  0.0953
  924YOPE   C1B13575  12.210  16.102   6.659 -0.0904 -0.1421  0.0760
  924YOPE   C2B13576  12.287  16.318   6.980  0.0183 -0.0951 -0.2001
  924YOPE   D3B13577  12.148  16.613   7.280  0.1462 -0.0310 -0.2251
  924YOPE   C4B13578  12.156  16.961   7.193  0.1773 -0.0199  0.3585
  925POPC   NC313579  14.780   0.813   5.929 -0.3159 -0.0813  0.3815
  925POPC   PO413580  14.836   1.268   6.051  0.2089  0.2954  0.1969
  925POPC   GL113581  14.752   1.502   6.380  0.3152 -0.1048 -0.1078
  925POPC   GL213582  14.831   1.775   6.473  0.1960 -0.1590  0.0728
  925POPC   C1A13583  14.488   1.433   6.791 -0.1425  0.0564  0.0807
  925POPC   D2A13584  14.434   1.457   7.199  0.2562  0.0424  0.0232
  925POPC   C3A13585  14.353   1.228   7.514  0.1100 -0.2089  0.1298
  925POPC   C4A13586  14.014   0.974   7.820  0.2543 -0.0449  0.2610
  925POPC   C1B13587  14.735   1.857   6.916  0.1483 -0.0123 -0.1407
  925POPC   C2B13588  14.609   1.931   7.295 -0.3116  0.1315 -0.1269
  925POPC   C3B13589  14.493   1.732   7.600  0.1581  0.1899 -0.3760
  925POPC   C4B13590  14.283   1.461   7.930 -0.0402 -0.1926 -0.1816
  926POPC   NC313591   0.009   5.178   5.836 -0.1580  0.3480  0.2403
  926POPC   PO413592  -0.194   5.467   6.215 -0.1416  0.3045  0.2750
  926POPC   GL113593  -0.408   5.313   6.517 -0.2539 -0.0587 -0.1342
  926POPC   GL213594  -0.623   5.037   6.395 -0.0692 -0.1910  0.4795
  926POPC   C1A13595  -0.519   5.044   6.915  0.2012 -0.1269 -0.1094
  926POPC   D2A13596  -0.491   4.966   7.308  0.1044  0.2921 -0.1159
  926POPC   C3A13597  -0.112   5.202   7.600  0.3284 -0.0597 -0.1121
  926POPC   C4A13598   0.346   5.259   7.800 -0.2803  0.3700  0.2112
  926POPC   C1B13599  -0.958   4.911   6.671 -0.1718 -0.1430 -0.1525
  926POPC   C2B13600  -0.912   4.812   7.062 -0.0103  0.3110  0.1991
  926POPC   C3B13601  -1.168   4.615   7.315  0.0655 -0.0423  0.0856
  926POPC   C4B13602  -1.188   4.571   7.801  0.0721 -0.4183  0.1037
  927POPC   NC313603   0.849   3.183   5.740 -0.1713  0.0091  0.0974
  927POPC   PO413604   0.632   3.436   5.879  0.0316  0.1264  0.2135
  927POPC   GL113605   0.634   3.419   6.415  0.2103  0.2209 -0.1076
  927POPC   GL213606   0.425   3.471   6.609 -0.0060 -0.4298 -0.1405
  927POPC   C1A13607   0.941   3.673   6.545 -0.2821 -0.0479  0.3347
  927POPC   D2A13608   1.169   3.832   6.878  0.0870 -0.1058 -0.1166
  927POPC   C3A13609   1.582   4.060   6.942  0.0520 -0.1918  0.1091
  927POPC   C4A13610   1.915   4.187   7.297 -0.0000 -0.0030  0.0255
  927POPC   C1B13611   0.092   3.450   6.982 -0.0244  0.0562 -0.0558
  927POPC   C2B13612  -0.062   3.470   7.381 -0.1909  0.1775 -0.2396
  927POPC   C3B13613  -0.256   3.819   7.526  0.2865  0.0619 -0.0975
  927POPC   C4B13614  -0.280   4.203   7.380 -0.1030  0.1727 -0.1800
  928POPC   NC313615   2.168   3.172   5.249 -0.2844 -0.1416 -0.0075
  928POPC   PO413616   2.245   3.063   5.717  0.1067 -0.1412  0.2354
  928POPC   GL113617   2.159   2.962   6.233 -0.1459  0.2938  0.0058
  928POPC   GL213618   2.034   2.649   6.439  0.0113  0.0648 -0.0242
  928POPC   C1A13619   2.167   3.149   6.582  0.0696  0.0288 -0.3303
  928POPC   D2A13620   2.105   3.042   7.030  0.2322  0.2736 -0.1834
  928POPC   C3A13621   2.007   3.393   7.301  0.0125 -0.2019  0.1525
  928POPC   C4A13622   1.868   3.702   7.424  0.2528  0.3810  0.1423
  928POPC   C1B13623   2.151   2.608   6.830  0.2502  0.1064 -0.1638
  928POPC   C2B13624   2.411   2.629   7.109 -0.4244  0.5694  0.0373
  928POPC   C3B13625   2.444   2.976   7.420  0.0102  0.0921  0.3287
  928POPC   C4B13626   2.107   3.089   7.648 -0.1488  0.2179 -0.2056
  929POPC   NC313627  13.776  14.180   5.921 -0.0874 -0.1042  0.0737
  929POPC   PO413628  14.095  14.313   6.189  0.0608 -0.1965 -0.0630
  929POPC   GL113629  14.114  14.171   6.634  0.2753  0.1752 -0.0534
  929POPC   GL213630  14.036  14.299   6.807 -0.5537 -0.1081  0.2010
  929POPC   C1A13631  14.260  13.858   6.992  0.1665  0.0200  0.0764
  929POPC   D2A13632  14.372  13.697   7.378 -0.2143 -0.1429  0.2357
  929POPC   C3A13633  14.717  13.571   7.558  0.0754 -0.1338  0.0672
  929POPC   C4A13634  15.109  13.397   7.757  0.2206  0.0641 -0.2891
  929POPC   C1B13635  14.085  14.282   7.248 -0.1001  0.1268 -0.0032
  929POPC   C2B13636  14.187  14.064   7.661  0.0110 -0.1228  0.2418
  929POPC   C3B13637  14.493  13.945   7.904 -0.2183  0.0868 -0.0380
  929POPC   C4B13638  14.610  14.177   8.319  0.1724  0.2295 -0.2634
  930POPC   NC313639   7.781  16.142   5.362 -0.3227  0.0480 -0.2970
  930POPC   PO413640   7.969  16.363   5.631  0.2416  0.0048 -0.0811
  930POPC   GL113641   7.942  16.577   5.933 -0.1284 -0.1286  0.0464
  930POPC   GL213642   7.758  16.558   6.213  0.0743  0.2339  0.0695
  930POPC   C1A13643   8.033  16.906   6.280 -0.0448 -0.1949  0.0010
  930POPC   D2A13644   8.049  17.187   6.566 -0.0461 -0.0896 -0.2199
  930POPC   C3A13645   7.922  17.256   6.956  0.0746  0.3752  0.2400
  930POPC   C4A13646   7.697  17.244   7.250 -0.0168 -0.1551 -0.1761
  930POPC   C1B13647   7.781  16.683   6.667  0.1314  0.0933  0.2897
  930POPC   C2B13648   7.659  16.770   7.062  0.1282 -0.1387  0.0385
  930POPC   C3B13649   7.447  16.925   7.520 -0.1042 -0.1865 -0.2376
  930POPC   C4B13650   7.532  16.992   7.891 -0.1732 -0.1333  0.1037
  931POPC   NC313651  17.631   0.881   6.245  0.1161 -0.4002  0.2141
  931POPC   PO413652  17.966   0.933   6.457 -0.0757 -0.0177 -0.4250
  931POPC   GL113653  17.820   0.735   6.792  0.1169  0.2227 -0.1033
  931POPC   GL213654  18.045   0.501   6.938 -0.0592 -0.3332  0.0620
  931POPC   C1A13655  17.434   0.673   6.961 -0.2777  0.1587  0.1793
  931POPC   D2A13656  17.244   0.877   7.355  0.2737 -0.1530  0.1232
  931POPC   C3A13657  17.394   0.943   7.729  0.1695 -0.2454  0.5461
  931POPC   C4A13658  17.544   1.301   8.010 -0.0490  0.1169 -0.2047
  931POPC   C1B13659  18.317   0.502   7.244  0.1830 -0.0424 -0.2844
  931POPC   C2B13660  18.550   0.260   7.519 -0.0318 -0.0682 -0.3067
  931POPC   C3B13661  18.367   0.126   7.945 -0.3862 -0.0207  0.1663
  931POPC   C4B13662  18.219   0.166   8.322 -0.1900 -0.1171 -0.3716
  932POPC   NC313663   1.630   2.194   5.337  0.0152  0.1417 -0.0214
  932POPC   PO413664   1.777   2.367   5.721 -0.2149  0.1645 -0.0777
  932POPC   GL113665   1.676   2.408   6.139  0.1745  0.1633 -0.0372
  932POPC   GL213666   1.442   2.164   6.149 -0.0633  0.3723 -0.2047
  932POPC   C1A13667   1.558   2.476   6.606 -0.2172  0.1380 -0.1626
  932POPC   D2A13668   1.231   2.603   7.021  0.1417 -0.1036 -0.0604
  932POPC   C3A13669   0.885   2.813   7.263 -0.1357  0.4183 -0.1665
  932POPC   C4A13670   0.554   3.079   7.299  0.1337 -0.0969 -0.2268
  932POPC   C1B13671   1.755   1.819   6.319 -0.0288  0.0058 -0.0493
  932POPC   C2B13672   1.722   1.506   6.654 -0.0989  0.0843  0.0413
  932POPC   C3B13673   1.701   1.478   7.149  0.2377 -0.0372  0.4416
  932POPC   C4B13674   1.814   1.480   7.617  0.0968  0.0414  0.0005
  933POPC   NC313675   4.543  10.253   5.884  0.0369 -0.1203  0.1401
  933POPC   PO413676   4.142  10.436   6.097  0.1334  0.1776  0.1027
  933POPC   GL113677   4.265  10.514   6.506 -0.2447 -0.0072 -0.0011
  933POPC   GL213678   4.317  10.284   6.699  0.0683  0.0552 -0.2078
  933POPC   C1A13679   4.347  10.693   6.924 -0.1583  0.2542 -0.3268
  933POPC   D2A13680   4.581  10.540   7.295  0.1777 -0.1714 -0.0812
  933POPC   C3A13681   5.072  10.393   7.404 -0.0789  0.0197  0.0001
  933POPC   C4A13682   5.274  10.049   7.343  0.0840  0.1228 -0.0768
  933POPC   C1B13683   3.987  10.419   7.124  0.0587 -0.2818  0.0046
  933POPC   C2B13684   3.704  10.556   7.444 -0.2419  0.0033  0.1303
  933POPC   C3B13685   3.414  10.557   7.741  0.1660 -0.1818 -0.1942
  933POPC   C4B13686   3.061  10.789   7.701  0.0036 -0.1127 -0.4331
  934POPC   NC313687  10.990   7.237   5.355  0.0869 -0.0576  0.2675
  934POPC   PO413688  11.077   7.157   5.768 -0.3184 -0.2148 -0.2435
  934POPC   GL113689  11.148   7.366   6.154 -0.0217  0.0287 -0.0514
  934POPC   GL213690  10.966   7.753   6.221  0.0916 -0.1898 -0.3741
  934POPC   C1A13691  11.258   7.377   6.605  0.1685  0.1573 -0.2351
  934POPC   D2A13692  11.547   7.358   6.894 -0.2877 -0.1579 -0.0842
  934POPC   C3A13693  11.764   7.749   7.015 -0.0150  0.1053  0.2797
  934POPC   C4A13694  12.144   7.601   7.178 -0.2066 -0.2746 -0.3377
  934POPC   C1B13695  10.856   7.709   6.585  0.3575  0.4992  0.1544
  934POPC   C2B13696  10.872   7.428   6.943  0.1750  0.2442 -0.2024
  934POPC   C3B13697  10.869   7.158   7.371  0.0112  0.0545 -0.0222
  934POPC   C4B13698  10.633   7.172   7.804 -0.1146 -0.0505  0.2181
  935POPC   NC313699  17.843  17.121   5.831  0.0376  0.0719  0.1837
  935POPC   PO413700  18.139  16.720   5.996 -0.0398  0.2953 -0.0416
  935POPC   GL113701  18.365  16.434   6.340  0.3698 -0.0748 -0.0067
  935POPC   GL213702  18.488  16.655   6.668 -0.2979 -0.0056  0.0075
  935POPC   C1A13703  18.207  16.239   6.652  0.0432 -0.0222  0.1149
  935POPC   D2A13704  17.926  16.212   6.984  0.1483  0.0073  0.0211
  935POPC   C3A13705  17.988  16.387   7.404  0.1895 -0.0136 -0.1015
  935POPC   C4A13706  18.074  16.673   7.766 -0.0115  0.0666 -0.0645
  935POPC   C1B13707  18.770  16.745   7.112 -0.0059  0.0457  0.1014
  935POPC   C2B13708  18.840  16.898   7.521  0.2186 -0.3221 -0.0078
  935POPC   C3B13709  18.776  16.935   7.987  0.0713  0.1641 -0.1340
  935POPC   C4B13710  18.951  17.093   8.401  0.2351 -0.0577 -0.1241
  936POPC   NC313711   3.857  10.468   5.623  0.1539  0.1390  0.2390
  936POPC   PO413712   3.414  10.678   5.598  0.1386  0.3918  0.3779
  936POPC   GL113713   3.363  10.720   6.005 -0.2559  0.2062 -0.1898
  936POPC   GL213714   3.640  10.694   6.183 -0.0228 -0.1147  0.0447
  936POPC   C1A13715   3.217  10.977   6.400 -0.1663  0.0602  0.1563
  936POPC   D2A13716   3.217  10.720   6.816 -0.2878  0.0739 -0.0199
  936POPC   C3A13717   3.005  10.358   7.005  0.0394 -0.0064 -0.0236
  936POPC   C4A13718   2.624  10.119   6.989  0.1478  0.2312  0.2551
  936POPC   C1B13719   3.759  10.698   6.690 -0.4706 -0.2096  0.0487
  936POPC   C2B13720   3.928  10.897   7.068 -0.0652  0.4189  0.1796
  936POPC   C3B13721   4.080  11.256   7.241  0.2947  0.0730 -0.2957
  936POPC   C4B13722   4.214  11.436   7.607 -0.0071 -0.0124  0.0651
  937POPC   NC313723   5.320  18.270   5.951 -0.0868  0.0830 -0.0260
  937POPC   PO413724   4.903  18.237   6.019  0.0501  0.0880  0.1845
  937POPC   GL113725   4.801  18.154   6.474  0.0032 -0.1856 -0.1969
  937POPC   GL213726   4.816  18.518   6.632 -0.2341  0.0298 -0.2214
  937POPC   C1A13727   4.940  18.083   6.873 -0.2052  0.0693  0.1440
  937POPC   D2A13728   4.970  18.320   7.315  0.0591  0.2167  0.1938
  937POPC   C3A13729   4.592  18.342   7.668 -0.1029  0.1791  0.1055
  937POPC   C4A13730   4.457  18.183   8.095 -0.1045 -0.0671  0.0479
  937POPC   C1B13731   5.113  18.659   6.974 -0.1030 -0.0534 -0.1245
  937POPC   C2B13732   5.382  18.694   7.302  0.0838 -0.1626  0.1431
  937POPC   C3B13733   5.798  18.630   7.542  0.0846  0.1188 -0.1099
  937POPC   C4B13734   6.188  18.517   7.724  0.1231 -0.4185 -0.6436
  938POPC   NC313735   6.730   3.722   5.868  0.2472  0.2773  0.2012
  938POPC   PO413736   6.723   4.074   6.037  0.0369 -0.2485 -0.0187
  938POPC   GL113737   6.790   4.107   6.468  0.1589 -0.1496 -0.2408
  938POPC   GL213738   6.889   3.684   6.439  0.0423  0.1629  0.1291
  938POPC   C1A13739   6.868   3.911   6.942 -0.0888 -0.3554  0.1173
  938POPC   D2A13740   7.001   3.943   7.307 -0.1353 -0.1824 -0.1164
  938POPC   C3A13741   7.001   3.680   7.737  0.2345  0.2266  0.0869
  938POPC   C4A13742   6.912   3.349   7.978  0.0925 -0.1252 -0.0366
  938POPC   C1B13743   6.514   3.598   6.663 -0.1354  0.3053  0.0280
  938POPC   C2B13744   6.121   3.581   6.858  0.0769 -0.1843 -0.2449
  938POPC   C3B13745   5.876   3.542   7.325  0.0585  0.2304  0.0386
  938POPC   C4B13746   5.855   3.672   7.844 -0.0522 -0.0521  0.0619
  939POPC   NC313747  12.767  16.475   5.672 -0.1011  0.1085  0.3806
  939POPC   PO413748  12.419  16.627   5.818  0.0282 -0.1949  0.1533
  939POPC   GL113749  12.468  17.015   6.138  0.0531 -0.0961  0.0921
  939POPC   GL213750  12.723  17.233   6.209 -0.1812  0.3952 -0.2163
  939POPC   C1A13751  12.376  17.284   6.500  0.2166 -0.0247 -0.1725
  939POPC   D2A13752  12.274  17.357   6.910  0.2554  0.0446  0.0427
  939POPC   C3A13753  12.622  17.615   7.025  0.2283  0.1764 -0.0622
  939POPC   C4A13754  12.723  18.081   6.983  0.2956 -0.0244 -0.2545
  939POPC   C1B13755  12.891  17.425   6.642  0.0626 -0.0621  0.0866
  939POPC   C2B13756  13.066  17.312   7.051  0.0290  0.0611 -0.3296
  939POPC   C3B13757  13.080  16.961   7.304  0.1339 -0.0774  0.2800
  939POPC   C4B13758  13.052  16.566   7.265 -0.0733  0.0628 -0.1650
  940POPC   NC313759  16.558   4.833   5.858  0.0511  0.1225  0.2268
  940POPC   PO413760  16.474   4.323   5.875 -0.0313  0.0726  0.1029
  940POPC   GL113761  16.553   4.450   6.303 -0.2264  0.0559  0.1044
  940POPC   GL213762  16.470   4.186   6.595  0.2459  0.0525 -0.0624
  940POPC   C1A13763  16.568   4.740   6.599  0.0793  0.0844  0.1717
  940POPC   D2A13764  16.187   5.005   6.679  0.0912  0.1672 -0.0211
  940POPC   C3A13765  15.881   4.916   6.859 -0.1355  0.0135  0.1548
  940POPC   C4A13766  15.749   4.487   7.042  0.0369  0.1628 -0.0858
  940POPC   C1B13767  16.743   4.379   6.874  0.0235 -0.1265  0.0512
  940POPC   C2B13768  16.848   4.211   7.250  0.2757 -0.0763 -0.3282
  940POPC   C3B13769  17.084   4.178   7.561  0.1953  0.0797 -0.2464
  940POPC   C4B13770  17.021   3.865   7.775  0.2337  0.0464 -0.2624
  941POPC   NC313771   1.175  10.112   5.931 -0.0615  0.1068 -0.2176
  941POPC   PO413772   1.128   9.641   5.917  0.0479  0.3411  0.0069
  941POPC   GL113773   1.051   9.496   6.410  0.2225 -0.2366  0.3371
  941POPC   GL213774   0.784   9.512   6.511 -0.2120 -0.1605 -0.3876
  941POPC   C1A13775   1.194   9.738   6.762 -0.1573 -0.2220  0.0618
  941POPC   D2A13776   1.222   9.632   7.166  0.0003  0.0396  0.3149
  941POPC   C3A13777   1.002   9.409   7.424 -0.1867 -0.0834 -0.0646
  941POPC   C4A13778   0.821   9.387   7.809  0.0444 -0.1203  0.0730
  941POPC   C1B13779   0.407   9.647   6.568 -0.1713  0.0832 -0.1594
  941POPC   C2B13780   0.131   9.892   6.830  0.1915 -0.0956  0.1248
  941POPC   C3B13781   0.085   9.958   7.275  0.0882  0.0732 -0.2238
  941POPC   C4B13782   0.038   9.611   7.515  0.0079 -0.1702  0.1166
  942POPC   NC313783   4.999   9.161   5.061  0.2871 -0.1605 -0.0265
  942POPC   PO413784   5.165   8.961   5.445  0.1671 -0.1736  0.2360
  942POPC   GL113785   4.932   8.809   5.878  0.0918 -0.1469  0.1431
  942POPC   GL213786   4.999   9.180   5.969 -0.0278 -0.0094  0.0431
  942POPC   C1A13787   4.756   8.825   6.359  0.0487  0.0813  0.0210
  942POPC   D2A13788   4.801   8.679   6.819  0.2618 -0.0129 -0.3934
  942POPC   C3A13789   5.311   8.412   6.808  0.2095 -0.3454 -0.0553
  942POPC   C4A13790   5.607   8.086   6.724 -0.1879 -0.0628  0.0959
  942POPC   C1B13791   4.668   9.366   6.366 -0.1304 -0.0455 -0.2738
  942POPC   C2B13792   4.820   9.144   6.761 -0.0250 -0.0044 -0.0712
  942POPC   C3B13793   4.649   9.033   7.161  0.0047 -0.2049  0.3828
  942POPC   C4B13794   4.549   8.667   7.396  0.0925  0.3911  0.1498
  943POPC   NC313795  11.160   7.658   5.786 -0.4695  0.1650 -0.1240
  943POPC   PO413796  10.714   7.609   5.768  0.3213  0.0210  0.2954
  943POPC   GL113797  10.626   7.384   6.090  0.0160 -0.1546 -0.2498
  943POPC   GL213798  10.461   7.507   6.205 -0.2777  0.5610 -0.0938
  943POPC   C1A13799  10.353   7.008   6.228 -0.1435 -0.0750  0.1182
  943POPC   D2A13800  10.465   6.793   6.670 -0.0662 -0.2218 -0.1027
  943POPC   C3A13801  10.062   6.726   6.911  0.2494 -0.2489 -0.3145
  943POPC   C4A13802   9.639   6.780   6.820  0.0842 -0.0626 -0.0101
  943POPC   C1B13803  10.564   7.243   6.577  0.0643 -0.2306 -0.0798
  943POPC   C2B13804  10.450   7.123   6.990 -0.1319  0.1334  0.3616
  943POPC   C3B13805  10.493   6.717   7.207  0.0155  0.1426 -0.1041
  943POPC   C4B13806  10.570   6.656   7.634  0.0547 -0.1408 -0.0685
  944POPC   NC313807   0.388  12.120   5.804  0.3021 -0.2176 -0.0036
  944POPC   PO413808  -0.146  11.888   5.875  0.1133  0.1243  0.2574
  944POPC   GL113809  -0.330  12.143   6.229 -0.2900  0.1125  0.1678
  944POPC   GL213810  -0.362  11.872   6.476  0.1000 -0.1721  0.1608
  944POPC   C1A13811  -0.418  12.388   6.594  0.3211  0.1830  0.1443
  944POPC   D2A13812  -0.682  12.477   6.838 -0.1522  0.4226 -0.0382
  944POPC   C3A13813  -0.742  12.120   7.167  0.0250  0.2176  0.4323
  944POPC   C4A13814  -0.695  12.060   7.610 -0.1341  0.0038 -0.0990
  944POPC   C1B13815  -0.303  12.007   6.939 -0.1553 -0.2316 -0.1718
  944POPC   C2B13816  -0.280  12.020   7.375 -0.3959 -0.0241 -0.0831
  944POPC   C3B13817  -0.030  11.949   7.628 -0.2792 -0.1471  0.1883
  944POPC   C4B13818   0.167  12.044   8.061  0.0691  0.1138 -0.0863
  945POPC   NC313819   6.593  15.992   5.891 -0.2302 -0.0701 -0.4163
  945POPC   PO413820   6.148  16.028   5.917 -0.1763 -0.0280 -0.0314
  945POPC   GL113821   6.297  15.982   6.332 -0.0399  0.1661 -0.2250
  945POPC   GL213822   6.577  15.937   6.381  0.1992  0.1169 -0.2181
  945POPC   C1A13823   6.341  15.950   6.813 -0.0695 -0.0207  0.0076
  945POPC   D2A13824   6.652  16.034   7.094  0.1820  0.0580  0.0823
  945POPC   C3A13825   7.005  16.303   7.122 -0.2384  0.4217 -0.0313
  945POPC   C4A13826   7.201  16.595   7.324  0.0636  0.0520 -0.1406
  945POPC   C1B13827   6.833  16.335   6.674  0.0148 -0.3022  0.1615
  945POPC   C2B13828   6.870  16.806   6.929  0.0572 -0.0393 -0.1715
  945POPC   C3B13829   7.183  17.075   7.067  0.2468  0.1587 -0.0267
  945POPC   C4B13830   7.288  17.479   7.011  0.3936 -0.0892 -0.0272
  946POPC   NC313831   5.005   4.616   5.585 -0.2946  0.1410  0.2304
  946POPC   PO413832   4.602   4.450   5.691 -0.0924  0.1684  0.2893
  946POPC   GL113833   4.544   4.302   6.181 -0.0801  0.0883  0.4662
  946POPC   GL213834   4.128   4.171   6.238 -0.1119  0.0968 -0.3365
  946POPC   C1A13835   4.723   4.106   6.553  0.0261 -0.2454  0.0565
  946POPC   D2A13836   4.787   3.995   6.967  0.2256 -0.2767 -0.0131
  946POPC   C3A13837   4.958   4.316   7.281 -0.2771  0.0841  0.0340
  946POPC   C4A13838   5.093   4.491   7.685 -0.1412 -0.3694 -0.1440
  946POPC   C1B13839   4.285   4.459   6.569  0.3392  0.1189  0.0372
  946POPC   C2B13840   4.278   4.944   6.611  0.0799  0.1576 -0.1581
  946POPC   C3B13841   4.180   5.033   7.046  0.0759 -0.3066 -0.4672
  946POPC   C4B13842   4.404   5.109   7.537  0.1528 -0.2777 -0.0709
  947POPC   NC313843   2.786  11.380   5.378 -0.0478 -0.0720 -0.2753
  947POPC   PO413844   2.998  11.630   5.592  0.0152  0.0982  0.3193
  947POPC   GL113845   2.962  11.650   6.014 -0.1380  0.0496  0.2559
  947POPC   GL213846   2.678  11.528   6.194  0.0387 -0.3037 -0.0206
  947POPC   C1A13847   3.337  11.630   6.229  0.0160 -0.0023 -0.1642
  947POPC   D2A13848   3.781  11.636   6.464  0.0046  0.2429 -0.1200
  947POPC   C3A13849   3.791  11.685   6.909  0.0634 -0.2729  0.0814
  947POPC   C4A13850   4.055  11.759   7.204 -0.2485 -0.3419  0.2196
  947POPC   C1B13851   2.884  11.341   6.461 -0.0137  0.1276 -0.1507
  947POPC   C2B13852   3.017  11.179   6.855  0.2082  0.1832 -0.2323
  947POPC   C3B13853   3.029  10.902   7.202  0.1832  0.5233 -0.1591
  947POPC   C4B13854   3.260  10.625   7.287 -0.0582 -0.2371 -0.0053
  948POPC   NC313855   7.172  12.321   5.927  0.3791  0.0043 -0.0718
  948POPC   PO413856   6.758  12.194   6.091  0.0399  0.5421  0.0206
  948POPC   GL113857   6.520  12.176   6.432  0.4853 -0.0503  0.2938
  948POPC   GL213858   6.386  11.853   6.379 -0.2376 -0.2523  0.0897
  948POPC   C1A13859   6.700  12.314   6.803  0.0830  0.2016 -0.0192
  948POPC   D2A13860   6.936  12.404   7.181  0.1405 -0.0031 -0.0630
  948POPC   C3A13861   6.986  12.104   7.569 -0.0137  0.2339  0.4873
  948POPC   C4A13862   7.391  11.998   7.583 -0.0081  0.0062  0.0820
  948POPC   C1B13863   6.370  11.885   6.798  0.0962  0.3520  0.0426
  948POPC   C2B13864   6.085  11.950   7.230  0.2045  0.0675  0.0096
  948POPC   C3B13865   5.953  11.870   7.650  0.0756 -0.1525  0.0449
  948POPC   C4B13866   5.749  11.618   8.014  0.0889  0.1085  0.2333
  949POPC   NC313867   3.489   6.302   5.399 -0.2494  0.0704 -0.2046
  949POPC   PO413868   3.614   5.977   5.778 -0.0071 -0.0263  0.0266
  949POPC   GL113869   3.485   5.885   6.181 -0.2775  0.2213  0.0978
  949POPC   GL213870   3.748   6.079   6.268  0.0903 -0.1632  0.0605
  949POPC   C1A13871   3.271   5.977   6.508  0.0748  0.2882 -0.0028
  949POPC   D2A13872   3.001   6.348   6.729  0.0763  0.2209  0.3948
  949POPC   C3A13873   2.947   6.350   7.132 -0.0549  0.1267  0.0125
  949POPC   C4A13874   2.932   6.264   7.570  0.0041  0.0349 -0.1530
  949POPC   C1B13875   3.683   6.207   6.687  0.2030 -0.3061  0.0870
  949POPC   C2B13876   3.534   6.309   6.945  0.0376  0.0916  0.0105
  949POPC   C3B13877   3.442   6.241   7.325 -0.0963 -0.1949 -0.0746
  949POPC   C4B13878   3.307   6.064   7.770  0.1915 -0.1210 -0.0131
  950POPC   NC313879   4.617   3.295   6.020 -0.0423  0.3026 -0.2257
  950POPC   PO413880   5.126   3.409   5.915 -0.1042  0.0021 -0.0469
  950POPC   GL113881   5.113   3.412   6.373 -0.0586  0.0825 -0.1185
  950POPC   GL213882   4.829   3.222   6.545  0.0580 -0.2330  0.6329
  950POPC   C1A13883   5.084   3.712   6.704 -0.2160  0.0454 -0.0097
  950POPC   D2A13884   4.964   3.618   7.177 -0.1219  0.0223  0.0415
  950POPC   C3A13885   4.803   3.819   7.498  0.2783 -0.1044 -0.2069
  950POPC   C4A13886   4.896   4.084   7.818 -0.1235  0.1722  0.2126
  950POPC   C1B13887   4.930   3.207   6.964 -0.0042 -0.0921  0.2307
  950POPC   C2B13888   4.621   3.272   7.351  0.1697  0.1646 -0.0100
  950POPC   C3B13889   4.356   3.427   7.564 -0.2663  0.0743 -0.4253
  950POPC   C4B13890   4.268   3.412   7.991  0.0822  0.0246  0.0131
  951POPC   NC313891  14.570  12.482   5.800  0.3106 -0.3004  0.1991
  951POPC   PO413892  14.155  12.549   5.831 -0.0104 -0.0771 -0.0340
  951POPC   GL113893  14.525  12.694   6.225  0.3048 -0.3949  0.1691
  951POPC   GL213894  14.368  12.492   6.334 -0.0787 -0.0840  0.1245
  951POPC   C1A13895  14.598  12.839   6.615  0.2173  0.4530 -0.4112
  951POPC   D2A13896  14.516  12.820   7.021 -0.1041  0.1783  0.0133
  951POPC   C3A13897  14.411  12.675   7.336 -0.1851 -0.0191  0.0643
  951POPC   C4A13898  14.271  12.894   7.756  0.1115 -0.1831 -0.0501
  951POPC   C1B13899  14.263  12.475   6.779 -0.2015  0.3195 -0.0040
  951POPC   C2B13900  14.256  12.311   7.117 -0.2439  0.1679 -0.0863
  951POPC   C3B13901  14.170  12.014   7.530 -0.2210  0.0267  0.0233
  951POPC   C4B13902  14.001  11.583   7.896  0.5044 -0.0134  0.0852
  952POPC   NC313903  15.945   4.110   6.009 -0.0895 -0.2450  0.1708
  952POPC   PO413904  15.727   3.738   6.005  0.0286 -0.1317  0.0541
  952POPC   GL113905  15.795   3.599   6.384  0.1609  0.2287 -0.1778
  952POPC   GL213906  15.814   3.262   6.412 -0.5953 -0.0778  0.0951
  952POPC   C1A13907  15.622   3.565   6.792  0.1812 -0.0270  0.1554
  952POPC   D2A13908  15.585   3.478   7.283 -0.4438 -0.2264 -0.0352
  952POPC   C3A13909  15.687   3.556   7.720  0.4037  0.0010  0.0342
  952POPC   C4A13910  15.674   3.577   8.091 -0.0577  0.1327 -0.0839
  952POPC   C1B13911  15.957   3.217   6.917  0.0206 -0.1210  0.0232
  952POPC   C2B13912  15.991   3.090   7.327 -0.2877  0.3304  0.1912
  952POPC   C3B13913  15.786   3.078   7.695  0.2125  0.0848 -0.1745
  952POPC   C4B13914  15.464   3.069   7.998 -0.1267 -0.2102 -0.2514
  953POPC   NC313915  15.164  14.160   6.289  0.1494  0.1256 -0.0903
  953POPC   PO413916  14.961  13.898   6.355  0.3604  0.3314  0.2085
  953POPC   GL113917  15.086  13.867   6.738  0.0839  0.2277 -0.1379
  953POPC   GL213918  15.288  13.706   6.681  0.1852 -0.1052  0.1876
  953POPC   C1A13919  15.306  14.056   7.153  0.1326  0.1093  0.1486
  953POPC   D2A13920  15.444  14.191   7.524 -0.1488 -0.1850  0.0165
  953POPC   C3A13921  15.269  14.484   7.825  0.0684  0.1480  0.0926
  953POPC   C4A13922  15.111  14.952   7.904  0.2300 -0.1419 -0.1238
  953POPC   C1B13923  15.596  13.717   6.942 -0.1920 -0.1031  0.1973
  953POPC   C2B13924  15.790  13.525   7.191  0.0439  0.0082 -0.0005
  953POPC   C3B13925  15.964  13.297   7.592 -0.2716 -0.0677 -0.0612
  953POPC   C4B13926  15.626  13.276   7.806  0.0802  0.1917  0.1167
  954POPC   NC313927   9.434   2.902   5.489 -0.0587 -0.0149  0.1859
  954POPC   PO413928   9.043   2.897   5.706  0.1070  0.0879  0.0662
  954POPC   GL113929   9.025   2.729   6.068  0.0503 -0.0331 -0.1415
  954POPC   GL213930   8.747   2.567   6.063  0.1493  0.1983  0.4159
  954POPC   C1A13931   8.949   2.682   6.589 -0.1213  0.0374 -0.2589
  954POPC   D2A13932   8.846   2.464   7.001 -0.1207  0.1342 -0.1523
  954POPC   C3A13933   8.571   2.687   7.294  0.2418 -0.4005 -0.1957
  954POPC   C4A13934   8.561   2.873   7.624  0.3049  0.1531 -0.0099
  954POPC   C1B13935   8.501   2.728   6.358  0.0302 -0.1781 -0.0954
  954POPC   C2B13936   8.542   2.926   6.852 -0.0297 -0.3315 -0.0061
  954POPC   C3B13937   8.653   3.160   7.174  0.4394  0.2846  0.2814
  954POPC   C4B13938   8.936   3.318   7.438  0.0779 -0.2710 -0.0105
  955POPC   NC313939  14.722   9.279   5.359 -0.0179 -0.3344  0.0834
  955POPC   PO413940  14.978   9.560   5.641  0.4379 -0.3396  0.0317
  955POPC   GL113941  15.193   9.577   6.028 -0.1982  0.2046  0.4239
  955POPC   GL213942  15.038   9.793   6.208  0.4411 -0.0408 -0.1215
  955POPC   C1A13943  15.485   9.421   6.347 -0.1057 -0.0013  0.0203
  955POPC   D2A13944  15.395   9.265   6.756 -0.0236 -0.0714  0.2325
  955POPC   C3A13945  15.265   8.897   6.931  0.1101 -0.0099  0.2297
  955POPC   C4A13946  15.347   8.510   7.070  0.0880 -0.1455 -0.2751
  955POPC   C1B13947  15.011   9.418   6.410  0.1129 -0.2205 -0.1076
  955POPC   C2B13948  14.773   9.150   6.689 -0.2182 -0.1245 -0.0713
  955POPC   C3B13949  14.410   8.871   6.774 -0.2291 -0.1809  0.0803
  955POPC   C4B13950  14.225   8.560   7.034 -0.0430 -0.1358  0.3755
  956POPC   NC313951  16.153  14.153   6.211  0.0852  0.2543 -0.0860
  956POPC   PO413952  16.415  14.480   6.017  0.0294 -0.0532 -0.0330
  956POPC   GL113953  16.639  14.380   6.394 -0.1804 -0.2121  0.1484
  956POPC   GL213954  16.507  14.104   6.566 -0.2223 -0.0275  0.0900
  956POPC   C1A13955  16.618  14.504   6.820 -0.1699 -0.1554  0.0531
  956POPC   D2A13956  16.754  14.759   7.122 -0.0089  0.1915  0.0281
  956POPC   C3A13957  16.889  14.517   7.496  0.1467  0.0740 -0.0517
  956POPC   C4A13958  16.907  14.398   7.937  0.1336  0.2231 -0.2204
  956POPC   C1B13959  16.399  14.003   6.970 -0.3010  0.0689  0.2103
  956POPC   C2B13960  16.228  13.698   7.211  0.2237 -0.0502 -0.2521
  956POPC   C3B13961  16.358  13.384   7.280 -0.0736  0.2760 -0.3220
  956POPC   C4B13962  16.441  13.198   7.669 -0.1075 -0.2351  0.2541
  957POPC   NC313963  13.519   7.640   5.855 -0.2177  0.0163 -0.0877
  957POPC   PO413964  13.953   7.796   6.011  0.0889 -0.0459 -0.1255
  957POPC   GL113965  13.939   8.108   6.430 -0.0056 -0.0078 -0.1616
  957POPC   GL213966  14.068   8.421   6.474  0.3896 -0.3077 -0.3735
  957POPC   C1A13967  13.767   8.246   6.804  0.1775 -0.1753  0.1178
  957POPC   D2A13968  13.902   8.269   7.227 -0.2366  0.2144  0.1383
  957POPC   C3A13969  13.971   8.054   7.489 -0.1000  0.0257  0.0213
  957POPC   C4A13970  13.927   8.019   7.950 -0.3513 -0.0153 -0.0122
  957POPC   C1B13971  14.337   8.238   6.660 -0.0554  0.2489 -0.1698
  957POPC   C2B13972  14.576   7.918   6.852  0.3647  0.0051 -0.0048
  957POPC   C3B13973  14.933   8.057   7.111 -0.0626  0.1760  0.0852
  957POPC   C4B13974  15.284   7.944   7.321 -0.0966  0.0280 -0.2669
  958POPC   NC313975  11.921  13.302   6.091  0.1577 -0.1516  0.3187
  958POPC   PO413976  11.548  13.370   5.942 -0.3881 -0.1354  0.2372
  958POPC   GL113977  11.524  13.150   6.341  0.3327  0.2287  0.2275
  958POPC   GL213978  11.787  12.853   6.336  0.3774  0.1027  0.0046
  958POPC   C1A13979  11.328  13.009   6.819 -0.3604  0.1179 -0.0982
  958POPC   D2A13980  11.255  13.050   7.288  0.1972 -0.0446 -0.1672
  958POPC   C3A13981  11.606  13.136   7.548  0.0162  0.0270 -0.0280
  958POPC   C4A13982  11.773  13.404   7.830  0.0682  0.0819  0.0198
  958POPC   C1B13983  12.100  12.920   6.597 -0.1994  0.0903 -0.1982
  958POPC   C2B13984  12.146  13.058   6.958 -0.1476 -0.1526 -0.2217
  958POPC   C3B13985  12.088  13.220   7.401 -0.3100 -0.0249  0.1374
  958POPC   C4B13986  12.324  13.113   7.805 -0.0212  0.3025 -0.0844
  959POPC   NC313987   5.706  12.436   6.010  0.1160 -0.0414  0.2176
  959POPC   PO413988   5.356  12.360   5.805 -0.1880 -0.0814 -0.0412
  959POPC   GL113989   5.274  12.257   6.198  0.0158  0.1549 -0.2614
  959POPC   GL213990   5.209  11.990   6.299  0.1619  0.1367 -0.0447
  959POPC   C1A13991   4.933  12.350   6.459  0.0880  0.1000 -0.0202
  959POPC   D2A13992   4.495  12.124   6.609  0.0741 -0.1001 -0.0055
  959POPC   C3A13993   4.458  12.018   7.015 -0.2679 -0.0759  0.0321
  959POPC   C4A13994   4.586  11.949   7.394  0.0129 -0.1698 -0.1608
  959POPC   C1B13995   5.358  12.171   6.692 -0.0915 -0.0486  0.0614
  959POPC   C2B13996   5.598  12.530   6.893 -0.0337 -0.1939 -0.2175
  959POPC   C3B13997   6.145  12.498   6.987  0.1418  0.0021  0.1692
  959POPC   C4B13998   6.452  12.243   7.240  0.3575  0.1814 -0.1311
  960POPC   NC313999   3.963  13.513   5.866 -0.3306 -0.4035  0.1425
  960POPC   PO414000   4.377  13.426   5.959 -0.1394  0.1787 -0.0474
  960POPC   GL114001   4.507  13.242   6.338  0.0767  0.0723 -0.2389
  960POPC   GL214002   4.731  13.013   6.221 -0.2488 -0.2526  0.0326
  960POPC   C1A14003   4.339  13.122   6.678  0.1602 -0.0817 -0.0940
  960POPC   D2A14004   4.060  13.110   6.949  0.2911  0.3153 -0.0756
  960POPC   C3A14005   3.789  13.196   7.278 -0.1585  0.0145  0.1866
  960POPC   C4A14006   3.616  13.248   7.622 -0.2016  0.3368  0.3456
  960POPC   C1B14007   4.554  12.728   6.573  0.3382  0.1218  0.1081
  960POPC   C2B14008   4.350  12.547   6.891  0.3115  0.0358  0.1158
  960POPC   C3B14009   4.224  12.455   7.267  0.0792 -0.0776 -0.2051
  960POPC   C4B14010   4.030  12.378   7.675 -0.0449  0.1837 -0.3097
  961POPC   NC314011  14.913   5.772   6.036  0.0084 -0.2393  0.2243
  961POPC   PO414012  14.984   5.428   5.742  0.1924 -0.5655 -0.2037
  961POPC   GL114013  14.906   5.279   6.216 -0.3367  0.3926  0.0131
  961POPC   GL214014  14.785   4.917   6.350 -0.0183  0.2550  0.1978
  961POPC   C1A14015  15.023   5.271   6.664 -0.0966 -0.1809 -0.0485
  961POPC   D2A14016  15.031   5.135   6.996 -0.0546  0.0649  0.1066
  961POPC   C3A14017  14.953   5.316   7.409 -0.1721  0.0656  0.0706
  961POPC   C4A14018  14.717   5.352   7.773 -0.2236 -0.5174  0.2839
  961POPC   C1B14019  14.818   4.691   6.818  0.4123 -0.1502  0.0897
  961POPC   C2B14020  14.918   4.692   7.250 -0.5720 -0.2962  0.0302
  961POPC   C3B14021  14.733   4.876   7.598 -0.0531  0.1436 -0.1365
  961POPC   C4B14022  14.394   5.033   7.942 -0.1408  0.1699 -0.0040
  962POPC   NC314023   0.829   7.471   6.082 -0.2969  0.3052 -0.1413
  962POPC   PO414024   1.014   7.126   6.274  0.0881 -0.0472  0.0035
  962POPC   GL114025   0.838   7.044   6.630 -0.1288 -0.1692 -0.2636
  962POPC   GL214026   0.994   6.838   6.767  0.0503  0.0627 -0.0756
  962POPC   C1A14027   0.873   7.201   7.023 -0.1730 -0.1413  0.0855
  962POPC   D2A14028   1.196   7.261   7.305  0.1367 -0.3418 -0.1611
  962POPC   C3A14029   1.376   6.946   7.571 -0.2286 -0.0291  0.1666
  962POPC   C4A14030   1.594   6.702   7.881  0.0746  0.0330 -0.1361
  962POPC   C1B14031   0.746   6.740   7.079  0.3007 -0.3915  0.2648
  962POPC   C2B14032   0.597   6.561   7.475  0.0366  0.0541  0.1754
  962POPC   C3B14033   0.710   6.188   7.675  0.0945  0.0335 -0.0127
  962POPC   C4B14034   0.585   6.048   8.072 -0.1092 -0.0327 -0.3453
  963YOPC   NC314035  14.045   6.595   5.603 -0.2379 -0.0341  0.0131
  963YOPC   PO414036  13.622   6.709   5.590  0.2386  0.3817  0.0695
  963YOPC   GL114037  13.654   6.659   5.973  0.1935  0.2087 -0.3566
  963YOPC   GL214038  13.288   6.735   6.059 -0.2602  0.1067 -0.0080
  963YOPC   C1A14039  13.669   6.854   6.388  0.0139  0.0545 -0.2340
  963YOPC   D2A14040  13.471   6.873   6.780  0.0942  0.0882  0.2357
  963YOPC   C3A14041  13.521   7.034   7.193  0.1370 -0.0179 -0.0798
  963YOPC   C4A14042  13.282   6.913   7.569 -0.2087  0.3943 -0.1282
  963YOPC   C1B14043  13.021   6.728   6.507 -0.2268 -0.0639 -0.0163
  963YOPC   C2B14044  13.090   6.838   7.111 -0.0856 -0.2775 -0.1148
  963YOPC   D3B14045  13.438   6.521   7.269 -0.1953  0.1786  0.0498
  963YOPC   C4B14046  13.366   6.214   7.602  0.2499 -0.0149  0.2433
  964YOPC   NC314047   1.495   0.143   6.173 -0.0713  0.0556 -0.0026
  964YOPC   PO414048   1.892   0.483   6.322 -0.1663  0.2275  0.1037
  964YOPC   GL114049   2.008   0.517   6.686  0.0670 -0.0610  0.1334
  964YOPC   GL214050   2.248   0.283   6.704 -0.0500  0.2251 -0.1004
  964YOPC   C1A14051   2.103   0.485   7.162  0.5741  0.0782 -0.0236
  964YOPC   D2A14052   2.464   0.545   7.452 -0.1568 -0.1498  0.0620
  964YOPC   C3A14053   2.405   0.453   7.855  0.1171 -0.0813 -0.0240
  964YOPC   C4A14054   2.083   0.281   8.243  0.0327  0.3961 -0.0178
  964YOPC   C1B14055   2.260   0.049   7.108  0.4772  0.3223  0.0210
  964YOPC   C2B14056   2.308   0.022   7.541 -0.1454  0.2996  0.2727
  964YOPC   D3B14057   1.920  -0.162   7.789  0.0255 -0.1664 -0.0082
  964YOPC   C4B14058   1.563  -0.301   7.608  0.2397  0.3482 -0.0646
  965YOPC   NC314059   6.063   1.933   5.940  0.1032 -0.0660 -0.2397
  965YOPC   PO414060   5.942   2.258   5.589  0.0117 -0.1939  0.1435
  965YOPC   GL114061   6.048   2.448   5.944 -0.1410 -0.2406  0.1963
  965YOPC   GL214062   5.816   2.741   6.091 -0.1391 -0.0759  0.3720
  965YOPC   C1A14063   6.331   2.510   6.356 -0.0456 -0.0882  0.2433
  965YOPC   D2A14064   6.458   2.368   6.690 -0.2312 -0.2586  0.2088
  965YOPC   C3A14065   6.833   2.036   6.685  0.2054 -0.0079  0.2887
  965YOPC   C4A14066   7.272   1.972   6.661  0.1784 -0.1552 -0.3693
  965YOPC   C1B14067   5.553   2.952   6.472 -0.1454  0.1136 -0.2215
  965YOPC   C2B14068   5.109   2.826   6.635  0.0045  0.0812 -0.1469
  965YOPC   D3B14069   5.157   2.564   7.144 -0.0356 -0.0857  0.3289
  965YOPC   C4B14070   5.662   2.400   7.339  0.1225 -0.3045  0.3848
  966YOPC   NC314071   2.780   1.888   5.786  0.0916  0.1535  0.0147
  966YOPC   PO414072   2.481   2.183   5.922  0.0314 -0.0783 -0.0209
  966YOPC   GL114073   2.431   2.369   6.281 -0.4158 -0.0773  0.0973
  966YOPC   GL214074   2.148   2.184   6.368  0.1763 -0.1171 -0.2308
  966YOPC   C1A14075   2.537   2.629   6.546 -0.0478 -0.1325  0.0377
  966YOPC   D2A14076   2.672   2.969   6.805  0.3747  0.1990 -0.0755
  966YOPC   C3A14077   2.503   3.375   7.010  0.0506  0.1518 -0.4199
  966YOPC   C4A14078   2.465   3.501   7.454  0.2479  0.0201 -0.0704
  966YOPC   C1B14079   1.989   2.133   6.697  0.2324 -0.1711  0.3887
  966YOPC   C2B14080   1.723   2.462   7.070 -0.2077  0.1234  0.0212
  966YOPC   D3B14081   1.906   2.529   7.467  0.1583 -0.0371 -0.2281
  966YOPC   C4B14082   1.974   2.361   7.864 -0.0280 -0.0741 -0.0909
  967YOPC   NC314083   9.949   2.072   5.514 -0.1914 -0.0259 -0.0404
  967YOPC   PO414084   9.686   2.411   5.695  0.1076 -0.0119 -0.4151
  967YOPC   GL114085   9.979   2.297   5.937 -0.0335 -0.1980  0.2063
  967YOPC   GL214086  10.310   2.199   5.879 -0.1218 -0.0429  0.1591
  967YOPC   C1A14087  10.194   2.168   6.354 -0.0882  0.1129 -0.2076
  967YOPC   D2A14088  10.169   2.009   6.791  0.1594  0.0692  0.2829
  967YOPC   C3A14089  10.348   1.631   6.770 -0.1424  0.1467 -0.1993
  967YOPC   C4A14090  10.281   1.349   6.622 -0.3532  0.1292  0.2479
  967YOPC   C1B14091  10.363   2.563   6.126 -0.1724 -0.0485 -0.2457
  967YOPC   C2B14092  10.267   3.001   6.276 -0.3572 -0.1351 -0.2189
  967YOPC   D3B14093  10.038   3.007   6.732  0.4481 -0.3154 -0.0191
  967YOPC   C4B14094  10.101   2.977   7.137 -0.0413 -0.1435 -0.0934
  968YOPC   NC314095   5.352   5.655   5.366  0.2080 -0.1085  0.1159
  968YOPC   PO414096   5.440   5.972   5.755 -0.0281  0.1481  0.2327
  968YOPC   GL114097   5.208   6.025   6.120 -0.0199  0.2362  0.1362
  968YOPC   GL214098   5.268   6.355   6.307  0.0625  0.0646 -0.0297
  968YOPC   C1A14099   5.095   5.833   6.527  0.2059 -0.0750  0.2045
  968YOPC   D2A14100   5.087   5.385   6.925 -0.0250  0.0447 -0.3814
  968YOPC   C3A14101   5.268   5.537   7.246  0.0661 -0.2122 -0.0767
  968YOPC   C4A14102   5.254   5.629   7.607 -0.0503 -0.0602  0.1403
  968YOPC   C1B14103   5.242   6.474   6.739 -0.3075  0.0687  0.0607
  968YOPC   C2B14104   5.375   6.779   7.085  0.3030 -0.0629 -0.0411
  968YOPC   D3B14105   5.824   6.837   7.246 -0.3226  0.1086 -0.1405
  968YOPC   C4B14106   5.824   6.966   7.756  0.1561  0.2425 -0.0435
  969YOPC   NC314107  14.683  10.673   6.000 -0.3113  0.1266  0.1913
  969YOPC   PO414108  14.195  10.750   5.796  0.2700 -0.1678  0.0000
  969YOPC   GL114109  14.155  10.507   6.192 -0.0760  0.0028  0.1149
  969YOPC   GL214110  14.311  10.281   6.009  0.1994 -0.3303 -0.0949
  969YOPC   C1A14111  14.351  10.647   6.629  0.0494  0.2481 -0.0234
  969YOPC   D2A14112  14.392  10.774   7.018 -0.1698 -0.3287 -0.1140
  969YOPC   C3A14113  14.307  10.698   7.454 -0.1955 -0.1465 -0.1206
  969YOPC   C4A14114  14.465  10.642   7.780 -0.1589 -0.0797 -0.0239
  969YOPC   C1B14115  14.531  10.191   6.440  0.1976 -0.4067  0.0249
  969YOPC   C2B14116  14.887   9.992   6.644  0.1495 -0.0436  0.0307
  969YOPC   D3B14117  14.897  10.124   7.081  0.1631  0.1596  0.3541
  969YOPC   C4B14118  14.746   9.863   7.447 -0.1148 -0.3884 -0.2081
  970YOPC   NC314119  12.541   7.151   5.634  0.1756  0.2681 -0.1200
  970YOPC   PO414120  12.248   7.495   5.486  0.1347  0.3895  0.1915
  970YOPC   GL114121  12.263   7.407   5.952  0.0128 -0.1210  0.1921
  970YOPC   GL214122  12.565   7.376   6.052  0.2053  0.0885  0.0203
  970YOPC   C1A14123  12.158   7.110   6.288 -0.1424 -0.0649 -0.1906
  970YOPC   D2A14124  11.947   6.661   6.244 -0.0129 -0.3316  0.0398
  970YOPC   C3A14125  12.049   6.320   6.466 -0.1515 -0.2254 -0.1253
  970YOPC   C4A14126  11.783   6.124   6.642 -0.3420  0.0846 -0.1747
  970YOPC   C1B14127  12.672   7.612   6.503 -0.2875  0.0333 -0.0915
  970YOPC   C2B14128  12.906   7.858   6.720 -0.1155  0.0724  0.0280
  970YOPC   D3B14129  12.702   8.074   7.081  0.0147  0.1156 -0.1499
  970YOPC   C4B14130  12.444   7.921   7.453  0.1441  0.4503 -0.1581
  971YOPC   NC314131   7.516   6.877   5.668 -0.1663  0.1916 -0.0682
  971YOPC   PO414132   7.773   6.533   5.702  0.1075 -0.3397 -0.1870
  971YOPC   GL114133   8.120   6.388   5.972  0.0283 -0.1630  0.2017
  971YOPC   GL214134   8.401   6.303   5.862 -0.3655 -0.1324 -0.1506
  971YOPC   C1A14135   8.064   6.528   6.401 -0.0193  0.1395 -0.1282
  971YOPC   D2A14136   8.068   6.578   6.906 -0.2141 -0.0020 -0.1206
  971YOPC   C3A14137   8.051   6.146   7.144  0.0378 -0.1104 -0.1338
  971YOPC   C4A14138   7.927   6.164   7.579  0.2453  0.0405  0.1145
  971YOPC   C1B14139   8.507   6.270   6.267  0.6325  0.2456  0.0695
  971YOPC   C2B14140   8.288   6.166   6.699 -0.0629  0.2602  0.1908
  971YOPC   D3B14141   8.578   5.973   7.059  0.1863  0.1977 -0.2440
  971YOPC   C4B14142   8.745   5.925   7.502  0.4261 -0.1970 -0.2058
  972YOPC   NC314143  14.554  14.142   6.282  0.0939  0.0720  0.2783
  972YOPC   PO414144  14.812  14.541   6.331  0.3157 -0.2294  0.0534
  972YOPC   GL114145  14.747  14.739   6.700  0.1388  0.1243 -0.0028
  972YOPC   GL214146  14.450  14.781   6.928  0.1983  0.2483  0.0033
  972YOPC   C1A14147  14.911  14.905   7.157  0.1147  0.1455  0.4137
  972YOPC   D2A14148  14.927  14.708   7.535 -0.1341  0.2601  0.1821
  972YOPC   C3A14149  14.563  14.976   7.683 -0.0516 -0.1766 -0.2525
  972YOPC   C4A14150  14.251  15.323   7.790 -0.0479  0.3617 -0.1962
  972YOPC   C1B14151  14.496  14.604   7.337 -0.1942 -0.3991  0.0546
  972YOPC   C2B14152  14.405  14.463   7.735 -0.1393  0.1351  0.4508
  972YOPC   D3B14153  14.818  14.533   8.004  0.2610 -0.2626 -0.1147
  972YOPC   C4B14154  15.073  14.429   8.335 -0.0823 -0.1470  0.0579
  973YOPC   NC314155  10.713  16.701   5.221 -0.2229  0.0144 -0.1581
  973YOPC   PO414156  10.852  16.767   5.668 -0.1628  0.1958 -0.0275
  973YOPC   GL114157  10.661  16.701   6.115 -0.0659  0.2070 -0.1059
  973YOPC   GL214158  10.461  16.503   6.212 -0.3183 -0.1865 -0.1487
  973YOPC   C1A14159  10.846  16.624   6.522  0.0665  0.1964 -0.0899
  973YOPC   D2A14160  11.323  16.503   6.645  0.0732 -0.1095  0.0703
  973YOPC   C3A14161  11.266  16.104   6.947 -0.0253  0.1640  0.1816
  973YOPC   C4A14162  10.911  15.953   7.230  0.0384  0.2831  0.1288
  973YOPC   C1B14163  10.421  16.325   6.582  0.2426  0.0438  0.0710
  973YOPC   C2B14164  10.366  16.241   7.112 -0.0474  0.0316  0.3039
  973YOPC   D3B14165  10.566  16.484   7.342 -0.0881 -0.1819 -0.0064
  973YOPC   C4B14166  10.782  16.350   7.747  0.5689 -0.1448  0.4393
  974YOPC   NC314167   5.429   3.844   5.743  0.1597 -0.2819 -0.1567
  974YOPC   PO414168   5.411   3.763   6.165  0.0400 -0.1413 -0.1056
  974YOPC   GL114169   5.587   3.520   6.465 -0.0292  0.1483  0.1225
  974YOPC   GL214170   5.869   3.706   6.441  0.0868  0.0324  0.0839
  974YOPC   C1A14171   5.534   3.309   6.962 -0.2396 -0.2362  0.0470
  974YOPC   D2A14172   5.527   3.091   7.285  0.0070 -0.2672 -0.1239
  974YOPC   C3A14173   5.654   3.256   7.639  0.2319  0.0209 -0.0722
  974YOPC   C4A14174   5.847   3.163   8.055  0.5560 -0.1346  0.0960
  974YOPC   C1B14175   5.617   3.789   6.846  0.1380 -0.1765  0.0521
  974YOPC   C2B14176   5.424   3.787   7.209  0.0813 -0.1484  0.1704
  974YOPC   D3B14177   5.567   4.000   7.550  0.0046 -0.0640 -0.0703
  974YOPC   C4B14178   5.632   4.226   7.846  0.2210 -0.1243  0.0422
  975YOPC   NC314179  15.420  13.090   5.941 -0.0441  0.0950  0.1144
  975YOPC   PO414180  15.385  12.700   6.074  0.0816  0.1850  0.0446
  975YOPC   GL114181  15.536  12.472   6.373 -0.3324  0.1124  0.1609
  975YOPC   GL214182  15.749  12.089   6.392 -0.1603  0.1535 -0.0751
  975YOPC   C1A14183  15.731  12.242   6.873 -0.0330 -0.1556 -0.0314
  975YOPC   D2A14184  15.945  12.157   7.204 -0.2439 -0.0395  0.0400
  975YOPC   C3A14185  16.277  12.350   7.307 -0.2851 -0.0576  0.0189
  975YOPC   C4A14186  16.530  12.562   7.227  0.0887  0.0293 -0.1518
  975YOPC   C1B14187  16.013  12.446   6.518 -0.3153 -0.0599  0.4009
  975YOPC   C2B14188  16.121  12.595   6.893  0.2913  0.0753  0.2427
  975YOPC   D3B14189  16.433  12.952   6.892  0.0212 -0.0654 -0.2445
  975YOPC   C4B14190  16.747  12.941   6.736  0.0362  0.2031 -0.0028
  976YOPC   NC314191  15.784  14.500   6.418 -0.2738 -0.2528  0.0687
  976YOPC   PO414192  15.645  14.104   6.329  0.0637 -0.2636 -0.0341
  976YOPC   GL114193  15.503  14.217   6.755  0.0396  0.0564 -0.1979
  976YOPC   GL214194  15.151  14.385   6.753  0.0695  0.3465  0.0550
  976YOPC   C1A14195  15.692  14.438   7.166  0.2725 -0.0973  0.1241
  976YOPC   D2A14196  15.760  14.623   7.611  0.2158  0.0393 -0.2109
  976YOPC   C3A14197  15.874  14.269   7.819  0.0411  0.0742  0.1405
  976YOPC   C4A14198  15.954  13.969   8.162 -0.1088  0.1545 -0.1056
  976YOPC   C1B14199  15.193  14.519   7.116  0.4234  0.1514 -0.0094
  976YOPC   C2B14200  15.405  14.830   7.335  0.0522  0.0383 -0.0569
  976YOPC   D3B14201  15.073  15.207   7.518 -0.3823 -0.0691  0.1019
  976YOPC   C4B14202  14.895  15.452   7.776 -0.2159  0.0188  0.1445
  977YOPC   NC314203   0.210  17.519   5.906 -0.0391  0.3214  0.0743
  977YOPC   PO414204  -0.230  17.441   6.063 -0.1897  0.0012  0.0176
  977YOPC   GL114205  -0.170  17.458   6.539  0.0983 -0.2014  0.4001
  977YOPC   GL214206  -0.188  17.146   6.808  0.2412  0.1987 -0.0178
  977YOPC   C1A14207  -0.205  17.596   6.981  0.0339 -0.1455 -0.0851
  977YOPC   D2A14208  -0.118  17.556   7.501  0.3986  0.0805 -0.1210
  977YOPC   C3A14209   0.182  17.931   7.693  0.1344 -0.3169  0.4088
  977YOPC   C4A14210   0.546  17.934   7.845  0.3435 -0.0183  0.4227
  977YOPC   C1B14211  -0.506  16.976   7.161 -0.0288 -0.2800  0.1788
  977YOPC   C2B14212  -0.541  17.051   7.607  0.1429  0.1068 -0.1799
  977YOPC   D3B14213  -0.622  17.485   7.756  0.0194 -0.1217  0.2287
  977YOPC   C4B14214  -0.600  17.927   7.718 -0.0269 -0.1923  0.0179
  978YOPC   NC314215  12.200   3.354   5.179 -0.1495 -0.0784  0.3800
  978YOPC   PO414216  12.125   3.569   5.635  0.0948 -0.0282  0.1358
  978YOPC   GL114217  12.229   3.599   6.094  0.0916 -0.0042  0.0417
  978YOPC   GL214218  12.409   3.366   6.210 -0.0560  0.0599 -0.0116
  978YOPC   C1A14219  11.999   3.595   6.487 -0.0678 -0.0769 -0.0918
  978YOPC   D2A14220  11.587   3.565   6.689 -0.1959  0.0413  0.0849
  978YOPC   C3A14221  11.477   3.367   7.144  0.0247  0.1987  0.2012
  978YOPC   C4A14222  11.325   3.367   7.570  0.1664  0.1937  0.0020
  978YOPC   C1B14223  12.365   3.223   6.613  0.0601  0.0874 -0.1351
  978YOPC   C2B14224  12.254   2.874   6.897  0.1407 -0.0014 -0.2562
  978YOPC   D3B14225  12.208   2.548   6.720  0.0387 -0.1216  0.4627
  978YOPC   C4B14226  11.917   2.458   6.379  0.2363 -0.0832 -0.1687
  979YOPC   NC314227  10.631   0.497   5.291 -0.2991  0.0076  0.0456
  979YOPC   PO414228  11.012   0.513   5.589  0.0780 -0.1190 -0.0793
  979YOPC   GL114229  10.961   0.835   5.895 -0.0400  0.4968  0.1774
  979YOPC   GL214230  11.224   1.129   5.930  0.0916  0.1324 -0.1141
  979YOPC   C1A14231  10.973   0.865   6.301  0.0876 -0.2003 -0.1058
  979YOPC   D2A14232  11.144   0.903   6.719 -0.2123  0.1371 -0.0890
  979YOPC   C3A14233  11.128   1.025   7.094 -0.2807  0.1576  0.0247
  979YOPC   C4A14234  10.756   0.947   7.391 -0.1888  0.1803  0.1011
  979YOPC   C1B14235  10.902   1.452   5.930  0.0755  0.1307  0.1019
  979YOPC   C2B14236  10.531   1.278   5.873 -0.0860  0.0998 -0.1403
  979YOPC   D3B14237  10.123   1.301   6.067 -0.2533 -0.0381 -0.1573
  979YOPC   C4B14238   9.891   1.130   6.337 -0.0859 -0.2265 -0.2094
  980YOPC   NC314239   3.003  10.378   5.389  0.0793  0.0102  0.0141
  980YOPC   PO414240   3.284  10.098   5.670 -0.1430  0.0900 -0.2309
  980YOPC   GL114241   3.083  10.297   5.934  0.4301 -0.2133 -0.1785
  980YOPC   GL214242   2.914  10.169   6.153 -0.0660 -0.0898  0.1111
  980YOPC   C1A14243   3.255  10.456   6.442  0.4267 -0.0627 -0.0710
  980YOPC   D2A14244   3.597  10.264   6.677  0.0357 -0.1434  0.4250
  980YOPC   C3A14245   3.473  10.173   7.140  0.1680 -0.2014  0.1854
  980YOPC   C4A14246   3.374  10.143   7.464 -0.4791  0.2933 -0.1268
  980YOPC   C1B14247   2.893  10.122   6.559  0.1465  0.3873  0.1668
  980YOPC   C2B14248   2.915   9.799   6.848  0.2800  0.3344 -0.0210
  980YOPC   D3B14249   2.988   9.989   7.289  0.4677  0.0431 -0.0281
  980YOPC   C4B14250   2.951  10.030   7.688  0.3787  0.2135 -0.2028
  981YOPC   NC314251   8.037   4.120   5.837  0.0612  0.0988  0.1757
  981YOPC   PO414252   7.712   3.949   5.911 -0.3436  0.2922 -0.1063
  981YOPC   GL114253   7.479   3.495   6.231  0.0990 -0.2248  0.1168
  981YOPC   GL214254   7.393   3.535   6.474  0.0520 -0.0166  0.0432
  981YOPC   C1A14255   7.532   3.082   6.217 -0.0217 -0.4068 -0.2691
  981YOPC   D2A14256   7.265   2.955   6.394  0.0788 -0.0764  0.1774
  981YOPC   C3A14257   7.295   2.861   6.794  0.0760 -0.2298  0.0990
  981YOPC   C4A14258   7.321   2.955   7.173  0.0411 -0.0252  0.0348
  981YOPC   C1B14259   7.554   3.267   6.800 -0.6238 -0.1786 -0.0074
  981YOPC   C2B14260   7.708   3.180   7.213  0.0343  0.1064 -0.0597
  981YOPC   D3B14261   8.191   3.368   7.468  0.0100  0.2002 -0.0870
  981YOPC   C4B14262   8.238   3.735   7.760 -0.1027 -0.1856 -0.1770
  982YOPC   NC314263   1.234  14.444   5.852 -0.2062  0.0645  0.3173
  982YOPC   PO414264   1.457  14.580   6.184 -0.0585 -0.1885 -0.1582
  982YOPC   GL114265   1.486  14.837   6.663  0.0178  0.0772  0.0809
  982YOPC   GL214266   1.225  14.968   6.820 -0.1170  0.0397 -0.1783
  982YOPC   C1A14267   1.584  14.759   7.098  0.0679 -0.1232 -0.1188
  982YOPC   D2A14268   1.509  14.814   7.607  0.1966 -0.1377 -0.2776
  982YOPC   C3A14269   1.836  14.782   7.829 -0.3206  0.1043 -0.0336
  982YOPC   C4A14270   2.057  14.797   8.140 -0.2036 -0.0119  0.0218
  982YOPC   C1B14271   1.261  15.180   7.290  0.4396 -0.1323  0.1671
  982YOPC   C2B14272   1.320  15.277   7.707  0.0603 -0.0515  0.1350
  982YOPC   D3B14273   1.614  15.594   7.864 -0.0773 -0.1382 -0.1630
  982YOPC   C4B14274   1.712  15.875   8.141 -0.0464  0.0340 -0.1945
  983YOPC   NC314275   9.692  16.074   5.254  0.1721 -0.2494  0.0033
  983YOPC   PO414276   9.745  16.033   5.764 -0.0090 -0.0483  0.0200
  983YOPC   GL114277   9.621  16.038   6.121 -0.1340  0.2573 -0.0559
  983YOPC   GL214278   9.287  16.163   6.184 -0.0060 -0.2648  0.0879
  983YOPC   C1A14279   9.444  15.747   6.448  0.2619  0.2648 -0.0425
  983YOPC   D2A14280   9.003  15.570   6.565 -0.3122  0.1468 -0.1893
  983YOPC   C3A14281   8.792  15.257   6.772 -0.1579 -0.1821  0.0062
  983YOPC   C4A14282   8.773  15.242   7.196  0.2290  0.0704  0.0181
  983YOPC   C1B14283   9.054  16.521   6.505  0.2480 -0.3440  0.2267
  983YOPC   C2B14284   8.909  16.565   6.935  0.0082  0.2754  0.0847
  983YOPC   D3B14285   9.044  16.900   7.088 -0.3556 -0.1551 -0.0214
  983YOPC   C4B14286   9.153  17.056   7.529 -0.0545  0.0367  0.2010
  984YOPC   NC314287  18.108   0.718   5.569  0.0256  0.0106  0.1163
  984YOPC   PO414288  18.056   0.607   6.072 -0.0541 -0.1117 -0.2370
  984YOPC   GL114289  18.312   0.447   6.421  0.3520 -0.0935 -0.1842
  984YOPC   GL214290  18.430   0.724   6.697 -0.0271  0.2658 -0.0966
  984YOPC   C1A14291  18.502   0.236   6.798  0.1522  0.1509  0.2745
  984YOPC   D2A14292  18.354  -0.045   7.113  0.2181 -0.3230 -0.0127
  984YOPC   C3A14293  18.664  -0.340   7.114  0.1630 -0.0345 -0.0638
  984YOPC   C4A14294  18.949  -0.554   7.329 -0.0366  0.1261  0.2551
  984YOPC   C1B14295  18.313   0.953   7.017 -0.2166 -0.1262  0.1100
  984YOPC   C2B14296  18.392   1.122   7.403 -0.1140  0.1196  0.0973
  984YOPC   D3B14297  18.513   0.839   7.635 -0.1254  0.2883 -0.0067
  984YOPC   C4B14298  18.249   0.736   7.914  0.0184 -0.1027 -0.2093
  985YOPC   NC314299   7.209   4.306   5.840 -0.0963 -0.2997 -0.1438
  985YOPC   PO414300   7.557   4.590   5.911  0.2829 -0.2459  0.4553
  985YOPC   GL114301   7.609   4.332   6.268 -0.1673  0.0601 -0.2606
  985YOPC   GL214302   7.379   4.054   6.331  0.1203  0.1616  0.1009
  985YOPC   C1A14303   7.521   4.348   6.710  0.0976  0.0514  0.2493
  985YOPC   D2A14304   7.340   4.307   7.074 -0.2544 -0.1189  0.0330
  985YOPC   C3A14305   7.445   4.094   7.543 -0.1873  0.0893 -0.2828
  985YOPC   C4A14306   7.383   4.363   7.880  0.1240  0.0991  0.4238
  985YOPC   C1B14307   7.567   3.859   6.771 -0.1254 -0.0712 -0.2211
  985YOPC   C2B14308   7.400   3.628   7.125 -0.1806 -0.1699  0.2784
  985YOPC   D3B14309   6.963   3.458   7.103 -0.0107  0.2445 -0.1300
  985YOPC   C4B14310   6.612   3.300   7.056  0.0960 -0.1849 -0.0415
  986YOPC   NC314311   7.047  13.547   5.867 -0.1857 -0.2440  0.0867
  986YOPC   PO414312   7.056  13.084   5.880 -0.2933  0.0666  0.0168
  986YOPC   GL114313   6.907  13.186   6.283 -0.0690 -0.1197 -0.0938
  986YOPC   GL214314   7.173  13.252   6.550  0.0368 -0.2538  0.0044
  986YOPC   C1A14315   6.723  13.107   6.647  0.1772  0.1009  0.2044
  986YOPC   D2A14316   6.705  12.940   7.056  0.1978  0.1151 -0.0010
  986YOPC   C3A14317   6.458  12.706   7.353 -0.2518 -0.1028  0.0806
  986YOPC   C4A14318   6.673  12.507   7.560  0.3688 -0.0636 -0.3634
  986YOPC   C1B14319   7.197  13.344   6.909 -0.0819  0.1402 -0.1836
  986YOPC   C2B14320   6.943  13.332   7.301  0.0959 -0.1021  0.3636
  986YOPC   D3B14321   7.132  13.411   7.700 -0.0098  0.0320 -0.2338
  986YOPC   C4B14322   7.364  13.369   8.085 -0.2764 -0.3928  0.4623
  987YOPC   NC314323   9.265   4.294   5.506  0.0952  0.1648  0.2397
  987YOPC   PO414324   9.551   4.690   5.598  0.0953  0.3012 -0.1571
  987YOPC   GL114325   9.653   4.861   6.038  0.2407  0.0050  0.2536
  987YOPC   GL214326   9.800   5.217   5.922  0.1710 -0.2076  0.1682
  987YOPC   C1A14327   9.814   4.730   6.358  0.2918 -0.1253  0.0804
  987YOPC   D2A14328   9.932   4.266   6.523  0.0549  0.0034 -0.1990
  987YOPC   C3A14329  10.012   3.826   6.453  0.1245  0.1429 -0.0085
  987YOPC   C4A14330  10.107   3.432   6.447 -0.2979 -0.1749 -0.3608
  987YOPC   C1B14331  10.012   5.332   6.231  0.3638 -0.1832  0.0234
  987YOPC   C2B14332  10.322   5.369   6.578 -0.1411 -0.2149  0.0364
  987YOPC   D3B14333  10.104   5.509   6.946 -0.0040  0.2453  0.1155
  987YOPC   C4B14334   9.824   5.351   7.223  0.0424 -0.1986  0.1339
  988YOPC   NC314335   7.492   3.478   5.237 -0.2043  0.0496  0.0664
  988YOPC   PO414336   7.594   3.008   5.297  0.2127 -0.0849 -0.1300
  988YOPC   GL114337   7.661   2.896   5.695 -0.0528 -0.3285  0.1908
  988YOPC   GL214338   7.389   2.770   5.755  0.2666 -0.3947  0.5097
  988YOPC   C1A14339   7.990   2.799   6.092  0.0273  0.1440  0.2425
  988YOPC   D2A14340   8.131   2.438   6.256 -0.2887  0.1415  0.1662
  988YOPC   C3A14341   8.091   2.444   6.642 -0.0578 -0.2979 -0.3623
  988YOPC   C4A14342   8.286   2.384   6.958  0.0984  0.0006 -0.2523
  988YOPC   C1B14343   7.584   2.522   6.089 -0.2192  0.2201 -0.1710
  988YOPC   C2B14344   7.663   2.660   6.460  0.0308  0.0569 -0.0269
  988YOPC   D3B14345   7.968   2.944   6.632 -0.2251  0.1310 -0.0064
  988YOPC   C4B14346   8.257   3.262   6.737  0.2961 -0.2128  0.1927
  989YOPC   NC314347   7.148  14.618   6.086 -0.1370 -0.1358  0.2156
  989YOPC   PO414348   6.872  14.366   5.990  0.0666  0.2284  0.2052
  989YOPC   GL114349   7.090  14.167   6.356 -0.2332  0.0889  0.0101
  989YOPC   GL214350   7.305  13.860   6.149  0.0376 -0.1098  0.0555
  989YOPC   C1A14351   7.064  14.246   6.740  0.1567 -0.0022 -0.2606
  989YOPC   D2A14352   7.189  14.414   7.129  0.0827 -0.1008 -0.0833
  989YOPC   C3A14353   7.343  14.176   7.480 -0.1910 -0.3519 -0.2269
  989YOPC   C4A14354   7.245  14.260   7.841 -0.3117 -0.0794  0.1341
  989YOPC   C1B14355   7.308  13.804   6.674 -0.1654 -0.1122 -0.1921
  989YOPC   C2B14356   7.350  13.967   6.968 -0.1301  0.3902 -0.1008
  989YOPC   D3B14357   7.308  13.685   7.267  0.2438  0.0840  0.0404
  989YOPC   C4B14358   6.990  13.872   7.648  0.1403  0.2222 -0.2524
  990YOPC   NC314359  11.545   4.799   5.753  0.0543 -0.0449 -0.0866
  990YOPC   PO414360  11.643   5.253   5.800 -0.2630  0.0529 -0.1176
  990YOPC   GL114361  11.652   5.157   6.236  0.2517  0.2792 -0.0750
  990YOPC   GL214362  11.520   4.829   6.238  0.1125  0.2283  0.0563
  990YOPC   C1A14363  11.187   5.111   6.519  0.0286 -0.0698 -0.2231
  990YOPC   D2A14364  10.906   5.384   6.810  0.0052 -0.3097 -0.0936
  990YOPC   C3A14365  11.074   5.568   7.252 -0.1838 -0.3309  0.2282
  990YOPC   C4A14366  11.312   5.776   7.518 -0.1700 -0.3443 -0.1700
  990YOPC   C1B14367  11.638   4.595   6.576  0.2583  0.1824 -0.5650
  990YOPC   C2B14368  11.887   4.254   6.645  0.2813 -0.2605  0.0388
  990YOPC   D3B14369  12.169   4.386   6.888  0.2637 -0.1147  0.3810
  990YOPC   C4B14370  12.564   4.544   6.857  0.1015  0.1515 -0.0299
  991YOPC   NC314371  12.039  11.395   5.994 -0.1131  0.1211  0.3512
  991YOPC   PO414372  11.844  10.991   6.141 -0.0500 -0.0938 -0.1779
  991YOPC   GL114373  11.757  10.611   6.360  0.0398  0.3902 -0.2753
  991YOPC   GL214374  11.477  10.756   6.498 -0.0105  0.0260 -0.0594
  991YOPC   C1A14375  11.779  10.352   6.704  0.1838  0.1132 -0.0741
  991YOPC   D2A14376  11.826  10.213   7.140 -0.0309 -0.1760  0.0703
  991YOPC   C3A14377  11.549  10.013   7.454 -0.1112  0.1937  0.2834
  991YOPC   C4A14378  11.729   9.712   7.726  0.1256 -0.3132  0.0104
  991YOPC   C1B14379  11.656  10.917   6.843  0.1218  0.0769 -0.1126
  991YOPC   C2B14380  11.519  11.050   7.270 -0.1910  0.1110  0.0656
  991YOPC   D3B14381  11.602  11.333   7.658  0.1241 -0.2544  0.0970
  991YOPC   C4B14382  11.575  11.623   8.027 -0.2281 -0.2534 -0.2420
  992YOPC   NC314383  16.207   8.798   6.065 -0.0181  0.0452 -0.0077
  992YOPC   PO414384  16.159   9.270   6.099 -0.1310  0.0583 -0.1387
  992YOPC   GL114385  16.042   9.569   6.264 -0.1206  0.0113 -0.3272
  992YOPC   GL214386  16.381   9.712   6.373  0.1505 -0.0956  0.1785
  992YOPC   C1A14387  15.803   9.682   6.569 -0.0044 -0.0802 -0.1254
  992YOPC   D2A14388  15.726   9.584   7.020  0.1113  0.0906  0.2595
  992YOPC   C3A14389  15.560   9.226   7.243  0.0488 -0.1677  0.1653
  992YOPC   C4A14390  15.209   8.943   7.470  0.1498 -0.1246  0.2474
  992YOPC   C1B14391  16.546   9.601   6.780  0.1236 -0.2712 -0.0981
  992YOPC   C2B14392  16.672   9.644   7.161 -0.2548 -0.0823 -0.0360
  992YOPC   D3B14393  16.703   9.270   7.428  0.3020  0.1397 -0.1158
  992YOPC   C4B14394  16.791   8.944   7.746 -0.0642 -0.1298 -0.0560
  993YOPC   NC314395   5.463   6.982   5.691 -0.3293  0.0808 -0.2370
  993YOPC   PO414396   5.754   7.327   5.664  0.1006 -0.2283 -0.1020
  993YOPC   GL114397   5.698   7.322   6.068  0.0774 -0.1173  0.0623
  993YOPC   GL214398   5.500   7.356   6.395 -0.2286 -0.3265  0.3126
  993YOPC   C1A14399   6.120   7.177   6.374 -0.1883 -0.0900  0.3306
  993YOPC   D2A14400   6.476   6.973   6.735  0.0161 -0.4839 -0.2288
  993YOPC   C3A14401   6.518   7.313   7.080 -0.0122  0.0529  0.0507
  993YOPC   C4A14402   6.855   7.632   7.124  0.1737 -0.3832 -0.0069
  993YOPC   C1B14403   5.612   7.197   6.822  0.3079  0.2454  0.0225
  993YOPC   C2B14404   6.028   7.262   7.046  0.2826 -0.2262 -0.3381
  993YOPC   D3B14405   5.968   7.486   7.428  0.0164 -0.3064  0.1430
  993YOPC   C4B14406   5.938   7.931   7.542 -0.0562 -0.1378  0.2086
  994YOPC   NC314407  11.103  12.170   5.738 -0.1670 -0.1793  0.1264
  994YOPC   PO414408  11.378  12.460   5.829 -0.1131 -0.0048  0.1186
  994YOPC   GL114409  11.457  12.471   6.332 -0.1390 -0.3471  0.0702
  994YOPC   GL214410  11.197  12.591   6.465 -0.1716 -0.1846  0.3272
  994YOPC   C1A14411  11.597  12.535   6.733 -0.5126 -0.1872  0.0315
  994YOPC   D2A14412  11.718  12.831   7.171 -0.1627  0.1682 -0.1578
  994YOPC   C3A14413  11.920  12.776   7.619 -0.0683 -0.1510 -0.3335
  994YOPC   C4A14414  11.849  12.525   7.945  0.0374 -0.1578 -0.4226
  994YOPC   C1B14415  11.209  12.233   6.704 -0.1966  0.0760  0.2815
  994YOPC   C2B14416  11.452  12.056   6.985  0.1084 -0.2715  0.0968
  994YOPC   D3B14417  11.732  12.282   7.199 -0.2333  0.0096  0.0347
  994YOPC   C4B14418  12.119  12.255   7.409  0.1709  0.1180 -0.0176
  995YOPC   NC314419  18.289   1.965   5.813 -0.1078 -0.0466  0.0604
  995YOPC   PO414420  18.192   1.602   6.055 -0.0017  0.0813 -0.1182
  995YOPC   GL114421  18.186   1.499   6.491 -0.1582 -0.0374 -0.1675
  995YOPC   GL214422  18.381   1.302   6.668 -0.0273 -0.0950 -0.0651
  995YOPC   C1A14423  18.077   1.718   6.840  0.1114 -0.0037 -0.1241
  995YOPC   D2A14424  17.991   1.660   7.254 -0.4494  0.0557 -0.1255
  995YOPC   C3A14425  18.242   1.665   7.573 -0.2876  0.0844 -0.2850
  995YOPC   C4A14426  18.662   1.740   7.708  0.3082 -0.2661  0.2226
  995YOPC   C1B14427  18.417   1.449   7.079  0.1058  0.2565 -0.0824
  995YOPC   C2B14428  18.565   1.786   7.208  0.3687  0.2247  0.0669
  995YOPC   D3B14429  18.690   2.149   7.279 -0.3083 -0.2269 -0.0657
  995YOPC   C4B14430  18.309   2.507   7.497  0.5229  0.1962 -0.1463
  996YOPC   NC314431  16.303  12.420   5.780  0.1753 -0.2487  0.2441
  996YOPC   PO414432  16.757  12.517   5.911 -0.0876  0.2455 -0.1844
  996YOPC   GL114433  16.882  12.644   6.305  0.4539  0.0830 -0.1928
  996YOPC   GL214434  17.078  12.876   6.359 -0.0906 -0.0299  0.0787
  996YOPC   C1A14435  17.077  12.472   6.673 -0.1123  0.0165  0.2092
  996YOPC   D2A14436  17.101  12.431   7.088 -0.1844  0.0460  0.1850
  996YOPC   C3A14437  17.437  12.648   7.271  0.0606 -0.3963 -0.4542
  996YOPC   C4A14438  17.819  12.492   7.515 -0.1409  0.0453  0.1073
  996YOPC   C1B14439  17.210  12.931   6.872 -0.1337 -0.0752 -0.3072
  996YOPC   C2B14440  17.480  13.184   7.211  0.1113  0.0420 -0.0576
  996YOPC   D3B14441  17.330  13.335   7.585 -0.0532 -0.3008  0.1746
  996YOPC   C4B14442  17.297  13.337   8.036  0.0709 -0.1902  0.1103
  997YOPC   NC314443  16.693   0.960   6.048  0.1145  0.1273  0.0544
  997YOPC   PO414444  16.622   0.674   6.278 -0.0800 -0.0979  0.1859
  997YOPC   GL114445  16.250   0.729   6.626 -0.1590  0.1688  0.4035
  997YOPC   GL214446  16.114   0.967   6.625 -0.0545 -0.0040 -0.1351
  997YOPC   C1A14447  16.358   0.582   6.992 -0.2650  0.0726  0.0928
  997YOPC   D2A14448  16.350   0.102   7.134  0.0498 -0.0454  0.0925
  997YOPC   C3A14449  16.095  -0.049   7.588 -0.1559  0.1924 -0.0615
  997YOPC   C4A14450  16.039   0.135   7.962  0.0556 -0.1452  0.4340
  997YOPC   C1B14451  16.112   1.314   6.908 -0.0125 -0.1280 -0.2323
  997YOPC   C2B14452  16.045   1.527   7.237  0.0680  0.1484  0.0750
  997YOPC   D3B14453  16.113   1.682   7.693 -0.3885  0.0649 -0.0684
  997YOPC   C4B14454  16.049   1.538   8.136 -0.1292  0.1251 -0.3852
  998YOPC   NC314455   3.044  16.388   5.473 -0.0863 -0.0724  0.2735
  998YOPC   PO414456   2.980  15.970   5.611 -0.0895 -0.0213  0.1061
  998YOPC   GL114457   2.921  15.785   5.902 -0.0416  0.3072 -0.1156
  998YOPC   GL214458   2.684  15.973   6.155  0.3779  0.2962  0.0906
  998YOPC   C1A14459   3.150  15.632   6.196  0.2703  0.1104 -0.0138
  998YOPC   D2A14460   3.417  15.673   6.534  0.1720  0.0084 -0.0468
  998YOPC   C3A14461   3.542  15.768   7.004  0.3516 -0.0253 -0.0747
  998YOPC   C4A14462   3.509  15.512   7.413  0.0225  0.1045  0.0976
  998YOPC   C1B14463   2.904  15.855   6.505  0.2520  0.0024  0.0664
  998YOPC   C2B14464   3.048  15.650   6.823  0.3627  0.1437 -0.0477
  998YOPC   D3B14465   3.052  15.349   7.047 -0.1116 -0.2586  0.1797
  998YOPC   C4B14466   2.912  15.385   7.428 -0.0350  0.5017  0.0150
  999YOPC   NC314467   0.734   8.436   6.295 -0.2072  0.0342  0.0083
  999YOPC   PO414468   0.927   7.994   6.139 -0.1550  0.0297 -0.1824
  999YOPC   GL114469   0.895   7.777   6.475 -0.3051 -0.1646  0.1846
  999YOPC   GL214470   1.213   7.532   6.494  0.2795 -0.2970 -0.0465
  999YOPC   C1A14471   0.925   7.644   6.881  0.0126 -0.2262  0.3381
  999YOPC   D2A14472   0.960   7.784   7.265  0.0662 -0.0641  0.1585
  999YOPC   C3A14473   0.754   7.700   7.525  0.1257  0.2181  0.0446
  999YOPC   C4A14474   0.803   7.401   7.878 -0.1981 -0.0733  0.1026
  999YOPC   C1B14475   1.422   7.337   6.792  0.3582 -0.0039 -0.1010
  999YOPC   C2B14476   1.464   6.924   7.003  0.0923 -0.0708  0.0673
  999YOPC   D3B14477   1.747   6.748   6.758 -0.1996 -0.0452  0.1292
  999YOPC   C4B14478   1.996   6.527   6.487 -0.1870 -0.1422  0.0369
 1000YOPC   NC314479   9.945   6.676   5.580 -0.2088 -0.2957  0.1833
 1000YOPC   PO414480   9.566   6.481   5.570  0.0104 -0.3816  0.2408
 1000YOPC   GL114481   9.334   6.774   5.881 -0.1922  0.1054 -0.0260
 1000YOPC   GL214482   9.600   6.863   5.879  0.3651 -0.1047  0.0140
 1000YOPC   C1A14483   9.232   6.727   6.361  0.1313 -0.4209 -0.1201
 1000YOPC   D2A14484   9.161   6.921   6.643  0.1720 -0.0696 -0.1122
 1000YOPC   C3A14485   9.118   6.659   6.944 -0.1643  0.2034  0.0227
 1000YOPC   C4A14486   8.979   6.523   7.343 -0.0765 -0.3137  0.1075
 1000YOPC   C1B14487   9.597   7.027   6.260  0.0862  0.0582  0.0096
 1000YOPC   C2B14488   9.570   7.288   6.674 -0.2166  0.0088  0.1421
 1000YOPC   D3B14489   9.436   7.126   7.169  0.1464 -0.1030 -0.1536
 1000YOPC   C4B14490   9.557   7.221   7.595 -0.2418 -0.1543 -0.1725
 1001YOPC   NC314491  13.814  10.170   5.904 -0.1586  0.2183 -0.1659
 1001YOPC   PO414492  13.890   9.775   5.962  0.0719 -0.1900 -0.4501
 1001YOPC   GL114493  13.636   9.643   6.396  0.2113  0.0717  0.0550
 1001YOPC   GL214494  13.798   9.314   6.343 -0.1555  0.0508 -0.0638
 1001YOPC   C1A14495  13.466   9.641   6.717  0.2116 -0.2296  0.0845
 1001YOPC   D2A14496  13.218   9.737   7.097 -0.4087 -0.2266  0.2313
 1001YOPC   C3A14497  13.433   9.551   7.543 -0.3355 -0.0221  0.1167
 1001YOPC   C4A14498  13.764   9.358   7.610  0.2072 -0.1991  0.1999
 1001YOPC   C1B14499  13.946   9.485   6.758 -0.0169 -0.0497 -0.0115
 1001YOPC   C2B14500  13.707   9.588   7.128  0.4189  0.0875  0.0061
 1001YOPC   D3B14501  13.920   9.835   7.478 -0.1243 -0.1900  0.1979
 1001YOPC   C4B14502  14.173   9.869   7.126 -0.0137 -0.0479  0.0136
 1002YOPC   NC314503   7.687  11.199   6.177 -0.2105 -0.0453 -0.0047
 1002YOPC   PO414504   7.374  11.004   5.820  0.0632  0.0069  0.3670
 1002YOPC   GL114505   7.266  10.859   6.245 -0.1945 -0.1061 -0.2339
 1002YOPC   GL214506   7.005  11.099   6.245 -0.2206 -0.1657  0.0357
 1002YOPC   C1A14507   7.070  10.520   6.575  0.0384 -0.0599 -0.0994
 1002YOPC   D2A14508   6.892  10.171   6.845 -0.3110  0.1555 -0.3323
 1002YOPC   C3A14509   6.913  10.185   7.327  0.0078 -0.2588  0.0257
 1002YOPC   C4A14510   7.012   9.992   7.720  0.3757 -0.2779 -0.0531
 1002YOPC   C1B14511   6.931  11.082   6.680  0.1142  0.0744  0.0657
 1002YOPC   C2B14512   7.070  11.185   7.086  0.0606 -0.0721  0.1591
 1002YOPC   D3B14513   7.448  11.415   7.089  0.0401  0.0830 -0.0819
 1002YOPC   C4B14514   7.615  11.735   7.193 -0.0943  0.0658 -0.0372
 1003YOPC   NC314515   4.080  16.450   6.146 -0.1808 -0.2490 -0.1789
 1003YOPC   PO414516   4.434  16.351   6.262 -0.2916 -0.0770 -0.2670
 1003YOPC   GL114517   4.346  16.703   6.539  0.1080  0.0470  0.1300
 1003YOPC   GL214518   4.368  17.039   6.445  0.0087  0.1843 -0.3770
 1003YOPC   C1A14519   4.133  16.868   6.935 -0.1578 -0.0888 -0.0400
 1003YOPC   D2A14520   3.752  16.705   7.027 -0.1513 -0.1192  0.1086
 1003YOPC   C3A14521   3.548  16.796   7.343  0.2071  0.1778  0.1558
 1003YOPC   C4A14522   3.764  17.020   7.670  0.1217 -0.1614 -0.0806
 1003YOPC   C1B14523   4.252  17.317   6.801 -0.0735 -0.0256 -0.0914
 1003YOPC   C2B14524   4.084  17.627   6.697 -0.3377  0.4830 -0.2514
 1003YOPC   D3B14525   4.211  18.058   6.801 -0.2242 -0.1073 -0.1566
 1003YOPC   C4B14526   4.289  18.348   6.619  0.2554  0.0098 -0.1349
 1004YOPC   NC314527  14.051   3.936   5.910 -0.1653 -0.2058  0.1635
 1004YOPC   PO414528  13.733   4.145   5.669 -0.0026 -0.3159 -0.1000
 1004YOPC   GL114529  13.662   4.255   6.081 -0.1083 -0.2073  0.2319
 1004YOPC   GL214530  13.899   4.487   6.265 -0.1469  0.1527  0.2357
 1004YOPC   C1A14531  13.607   4.010   6.363  0.0214  0.0170 -0.0835
 1004YOPC   D2A14532  13.748   3.721   6.726 -0.1249 -0.2173  0.2365
 1004YOPC   C3A14533  13.656   3.964   7.111 -0.3673 -0.0161  0.3178
 1004YOPC   C4A14534  13.599   4.109   7.522 -0.0495  0.0687 -0.2563
 1004YOPC   C1B14535  13.863   4.345   6.663 -0.1607 -0.2285 -0.0372
 1004YOPC   C2B14536  14.005   4.418   7.088  0.3429  0.1618 -0.0801
 1004YOPC   D3B14537  14.474   4.367   7.025 -0.1868  0.1683 -0.0521
 1004YOPC   C4B14538  14.869   4.184   7.219  0.0330  0.1575  0.1906
 1005YOPC   NC314539  12.829  13.968   6.303  0.1359  0.1911  0.1637
 1005YOPC   PO414540  13.277  14.094   6.151  0.1642 -0.2249 -0.4064
 1005YOPC   GL114541  13.221  14.189   6.511 -0.3155 -0.2307  0.1178
 1005YOPC   GL214542  13.549  14.210   6.627 -0.1798 -0.2093 -0.0129
 1005YOPC   C1A14543  13.124  14.240   6.840  0.0230 -0.1744 -0.1467
 1005YOPC   D2A14544  13.111  13.984   7.240 -0.0839  0.0556 -0.0547
 1005YOPC   C3A14545  13.270  14.204   7.669  0.0688 -0.0920 -0.2001
 1005YOPC   C4A14546  13.432  14.028   8.035 -0.0261  0.0394 -0.2943
 1005YOPC   C1B14547  13.624  14.410   6.983  0.0134  0.0737  0.1895
 1005YOPC   C2B14548  13.605  14.389   7.365 -0.0703 -0.2617 -0.4811
 1005YOPC   D3B14549  13.889  14.699   7.525 -0.1788  0.1472 -0.2107
 1005YOPC   C4B14550  14.176  14.998   7.380 -0.2018 -0.0887  0.0784
 1006YOPC   NC314551   4.371   8.328   5.633 -0.1623 -0.0841  0.2608
 1006YOPC   PO414552   4.444   7.878   5.779 -0.1282 -0.0957  0.1005
 1006YOPC   GL114553   4.323   7.711   6.203 -0.0581  0.0847  0.0663
 1006YOPC   GL214554   4.013   7.656   6.226 -0.1285 -0.3579  0.2824
 1006YOPC   C1A14555   4.615   7.516   6.525 -0.1755 -0.1056  0.0212
 1006YOPC   D2A14556   4.811   7.438   6.987 -0.2979 -0.2697  0.1804
 1006YOPC   C3A14557   4.818   7.781   7.220  0.0021  0.0802 -0.2272
 1006YOPC   C4A14558   4.875   8.175   7.012  0.1473  0.1607 -0.0486
 1006YOPC   C1B14559   4.081   7.768   6.684 -0.1360  0.2094 -0.2337
 1006YOPC   C2B14560   3.995   7.976   7.022 -0.0942  0.1875  0.0252
 1006YOPC   D3B14561   3.613   7.925   7.065  0.1645 -0.0086  0.1033
 1006YOPC   C4B14562   3.139   7.824   6.967 -0.1250  0.0736  0.0732
 1007YOPC   NC314563   0.055  13.514   5.720  0.1614 -0.0097  0.1913
 1007YOPC   PO414564  -0.208  13.756   5.994 -0.0763  0.2104  0.3444
 1007YOPC   GL114565  -0.287  13.836   6.362  0.0401 -0.1697 -0.0339
 1007YOPC   GL214566  -0.061  13.617   6.485  0.0126  0.0392 -0.1888
 1007YOPC   C1A14567  -0.206  13.917   6.833  0.0194 -0.0796  0.0587
 1007YOPC   D2A14568  -0.386  14.168   7.209 -0.3014 -0.0980 -0.0810
 1007YOPC   C3A14569  -0.415  14.428   7.487 -0.0908  0.1056  0.1195
 1007YOPC   C4A14570  -0.912  14.464   7.579  0.2599 -0.1211  0.0900
 1007YOPC   C1B14571   0.169  13.659   7.003 -0.1882  0.2950  0.2320
 1007YOPC   C2B14572  -0.040  13.733   7.294  0.0662 -0.0826  0.0209
 1007YOPC   D3B14573  -0.017  13.513   7.636  0.0771 -0.0234 -0.2561
 1007YOPC   C4B14574  -0.205  13.163   8.019  0.1186 -0.3693 -0.0407
 1008YOPC   NC314575   3.901  12.531   5.487 -0.0081 -0.1559  0.0667
 1008YOPC   PO414576   3.466  12.425   5.596  0.1393 -0.1420 -0.0723
 1008YOPC   GL114577   3.272  12.444   6.020 -0.2727  0.1714 -0.5697
 1008YOPC   GL214578   3.130  12.103   6.051  0.1456 -0.1370  0.3368
 1008YOPC   C1A14579   3.626  12.531   6.317  0.1290 -0.1855 -0.2883
 1008YOPC   D2A14580   3.975  12.639   6.605 -0.0334 -0.2786  0.0579
 1008YOPC   C3A14581   3.817  12.631   7.020  0.0436 -0.0265  0.1177
 1008YOPC   C4A14582   3.682  12.690   7.397 -0.0818 -0.0379 -0.1701
 1008YOPC   C1B14583   3.375  12.086   6.456 -0.2536 -0.1828 -0.0030
 1008YOPC   C2B14584   3.479  12.235   6.898 -0.3382  0.0085 -0.2667
 1008YOPC   D3B14585   3.305  12.336   7.276  0.2092  0.0511  0.0313
 1008YOPC   C4B14586   3.206  11.953   7.441 -0.1583  0.0674 -0.3189
 1009YOPC   NC314587   3.183   7.637   5.512 -0.0525 -0.0232 -0.2875
 1009YOPC   PO414588   3.282   8.086   5.705 -0.1605  0.0600 -0.1094
 1009YOPC   GL114589   2.943   8.263   5.983  0.2280 -0.0605 -0.1808
 1009YOPC   GL214590   3.192   8.347   6.233  0.2345  0.1484  0.0234
 1009YOPC   C1A14591   2.819   8.025   6.312  0.0647 -0.1626  0.1712
 1009YOPC   D2A14592   2.917   7.713   6.531 -0.2280 -0.0674  0.2550
 1009YOPC   C3A14593   2.835   7.424   6.918  0.0304  0.2774 -0.1588
 1009YOPC   C4A14594   2.878   7.344   7.368 -0.1019  0.1188 -0.0795
 1009YOPC   C1B14595   3.151   8.187   6.660  0.2259  0.1428 -0.1244
 1009YOPC   C2B14596   3.044   8.286   7.130  0.0618 -0.0276  0.3413
 1009YOPC   D3B14597   3.087   7.873   7.431  0.0772  0.1150 -0.1000
 1009YOPC   C4B14598   2.997   7.802   7.825  0.0033  0.1002 -0.2088
 1010YOPC   NC314599  17.635   7.285   5.753 -0.1245 -0.1107  0.0953
 1010YOPC   PO414600  17.273   7.566   5.941  0.1112  0.0233 -0.0752
 1010YOPC   GL114601  17.291   7.513   6.312 -0.1078  0.0856 -0.0321
 1010YOPC   GL214602  17.708   7.427   6.227 -0.0045  0.1903 -0.1801
 1010YOPC   C1A14603  17.295   7.445   6.835  0.3406  0.2347  0.1659
 1010YOPC   D2A14604  16.900   7.369   6.951 -0.2331  0.1658  0.0063
 1010YOPC   C3A14605  16.703   7.163   7.351  0.0081  0.4621  0.0468
 1010YOPC   C4A14606  16.362   7.362   7.524 -0.1120 -0.1558 -0.1846
 1010YOPC   C1B14607  17.824   7.459   6.662 -0.0265  0.0828 -0.4627
 1010YOPC   C2B14608  17.901   7.798   6.992  0.2918  0.0519 -0.3766
 1010YOPC   D3B14609  17.967   7.849   7.465  0.2893 -0.0100  0.1132
 1010YOPC   C4B14610  18.117   8.014   7.841 -0.0162 -0.3380  0.0201
 1011YOPC   NC314611  16.070   7.932   5.836 -0.1443 -0.0850 -0.0079
 1011YOPC   PO414612  16.093   8.366   5.981  0.1606  0.3485  0.5855
 1011YOPC   GL114613  16.313   8.473   6.438 -0.0638  0.2221  0.4052
 1011YOPC   GL214614  16.683   8.735   6.437  0.3995  0.0470 -0.2310
 1011YOPC   C1A14615  16.042   8.436   6.746  0.1573  0.0927  0.1587
 1011YOPC   D2A14616  15.906   8.372   7.206 -0.0986 -0.0182  0.2891
 1011YOPC   C3A14617  15.649   8.653   7.446 -0.0968 -0.1133  0.0869
 1011YOPC   C4A14618  15.673   9.055   7.727  0.0024  0.1217 -0.4343
 1011YOPC   C1B14619  16.643   8.637   6.786 -0.0567  0.0365  0.0238
 1011YOPC   C2B14620  16.284   8.735   7.034  0.0755  0.2346  0.2098
 1011YOPC   D3B14621  16.309   8.840   7.456  0.1248 -0.0039  0.1477
 1011YOPC   C4B14622  16.041   8.757   7.745 -0.2170 -0.1813  0.0308
 1012YOPC   NC314623  16.436   9.622   5.872  0.3746  0.3116  0.0590
 1012YOPC   PO414624  16.162   9.975   5.919  0.3847 -0.0509 -0.0737
 1012YOPC   GL114625  16.117  10.094   6.320 -0.0921  0.2051 -0.2024
 1012YOPC   GL214626  15.831  10.232   6.469  0.0048 -0.0567 -0.1478
 1012YOPC   C1A14627  16.216  10.049   6.684  0.0030 -0.0814  0.0891
 1012YOPC   D2A14628  16.155   9.833   7.032 -0.0535  0.2503 -0.1588
 1012YOPC   C3A14629  16.263   9.850   7.429 -0.1916  0.0965 -0.0952
 1012YOPC   C4A14630  16.267   9.727   7.880  0.0505  0.1591  0.0311
 1012YOPC   C1B14631  15.674  10.075   6.931  0.1486 -0.1096  0.4138
 1012YOPC   C2B14632  15.750   9.961   7.336 -0.0904 -0.2066 -0.0102
 1012YOPC   D3B14633  15.414   9.791   7.430 -0.1809  0.0083 -0.0006
 1012YOPC   C4B14634  15.238   9.467   7.639  0.0020 -0.1888  0.1056
 1013YOPC   NC314635   2.153  14.499   5.991 -0.2107 -0.0906  0.2079
 1013YOPC   PO414636   2.189  14.212   6.091  0.0668  0.6023 -0.2876
 1013YOPC   GL114637   2.082  14.208   6.469  0.0571 -0.0425  0.0999
 1013YOPC   GL214638   1.753  14.226   6.417 -0.3849  0.0552 -0.3288
 1013YOPC   C1A14639   1.833  14.303   6.874  0.1859  0.1098 -0.2432
 1013YOPC   D2A14640   1.967  14.497   7.301  0.1383  0.2423  0.2331
 1013YOPC   C3A14641   2.191  14.805   7.357  0.0302 -0.1260 -0.2375
 1013YOPC   C4A14642   2.277  15.280   7.356 -0.0687  0.2248 -0.2010
 1013YOPC   C1B14643   1.586  13.883   6.627 -0.2488  0.2911 -0.0769
 1013YOPC   C2B14644   1.604  13.422   6.887  0.2564 -0.1107  0.0010
 1013YOPC   D3B14645   1.935  13.434   7.219  0.1623 -0.4040  0.0157
 1013YOPC   C4B14646   1.869  13.491   7.662 -0.1390 -0.2449  0.0189
 1014YOPC   NC314647   1.912  13.051   5.627  0.1147  0.1081 -0.2204
 1014YOPC   PO414648   1.879  13.378   5.760  0.0912  0.2227 -0.1507
 1014YOPC   GL114649   2.091  13.500   6.162 -0.2237  0.2425  0.1590
 1014YOPC   GL214650   2.035  13.738   6.347  0.1583 -0.1877 -0.3340
 1014YOPC   C1A14651   1.989  13.329   6.613 -0.1943  0.0730  0.3758
 1014YOPC   D2A14652   1.875  13.020   6.795  0.0212 -0.2675  0.3946
 1014YOPC   C3A14653   1.933  12.895   7.192  0.2039 -0.1473 -0.1705
 1014YOPC   C4A14654   2.294  12.621   7.391  0.0881 -0.0248  0.1895
 1014YOPC   C1B14655   2.080  13.829   6.828  0.0854  0.0848 -0.2505
 1014YOPC   C2B14656   1.847  13.956   7.228 -0.3210 -0.1447  0.0717
 1014YOPC   D3B14657   2.123  14.083   7.551  0.1478  0.2870  0.0086
 1014YOPC   C4B14658   2.195  14.397   7.812 -0.1216  0.0103 -0.2984
 1015YOPC   NC314659   6.399  12.512   6.062  0.0473 -0.1911  0.3976
 1015YOPC   PO414660   6.416  12.895   6.093  0.1008  0.1749  0.1326
 1015YOPC   GL114661   6.003  12.689   6.362 -0.0681 -0.0353  0.2643
 1015YOPC   GL214662   6.075  12.403   6.430  0.4718  0.1083 -0.0811
 1015YOPC   C1A14663   5.646  12.829   6.502  0.1624 -0.3190 -0.2278
 1015YOPC   D2A14664   5.598  13.034   6.898  0.1313 -0.1789  0.0034
 1015YOPC   C3A14665   5.432  12.791   7.245 -0.1152 -0.3302 -0.0537
 1015YOPC   C4A14666   5.038  12.758   7.512  0.2584  0.0708  0.3756
 1015YOPC   C1B14667   5.864  12.118   6.804 -0.2322 -0.2334  0.3398
 1015YOPC   C2B14668   5.665  11.802   6.970  0.4835 -0.0490  0.1705
 1015YOPC   D3B14669   5.485  11.786   7.343  0.1685  0.0711  0.2840
 1015YOPC   C4B14670   5.440  11.891   7.738  0.1283 -0.2658 -0.1110
 1016YOPC   NC314671   4.064  15.909   5.906 -0.1781 -0.0095  0.0849
 1016YOPC   PO414672   3.747  16.125   6.056  0.1796  0.2040  0.0640
 1016YOPC   GL114673   3.632  16.255   6.384 -0.0205 -0.1805  0.1709
 1016YOPC   GL214674   3.493  16.553   6.407 -0.0944 -0.0399  0.2747
 1016YOPC   C1A14675   3.596  16.277   6.780  0.1035  0.1237  0.1717
 1016YOPC   D2A14676   3.611  16.282   7.260 -0.2592  0.1047  0.5150
 1016YOPC   C3A14677   3.352  16.196   7.512 -0.0316  0.0714 -0.2137
 1016YOPC   C4A14678   3.180  16.228   7.928  0.1093  0.3360 -0.0927
 1016YOPC   C1B14679   3.223  16.635   6.858 -0.2398 -0.2125 -0.3235
 1016YOPC   C2B14680   2.966  16.525   7.213  0.0434  0.1222  0.1649
 1016YOPC   D3B14681   3.043  16.625   7.598 -0.0054  0.3095  0.3661
 1016YOPC   C4B14682   3.226  16.694   7.893 -0.0438  0.2394 -0.0315
 1017YOPC   NC314683   5.090  17.288   5.622 -0.2302  0.0403 -0.2630
 1017YOPC   PO414684   5.541  17.198   5.826  0.2207  0.1705  0.2584
 1017YOPC   GL114685   5.456  17.195   6.232 -0.3464 -0.1144  0.0864
 1017YOPC   GL214686   5.351  17.484   6.540  0.2025  0.0934  0.0868
 1017YOPC   C1A14687   5.491  16.972   6.611  0.4230  0.0195  0.1547
 1017YOPC   D2A14688   5.515  16.766   6.833 -0.0983 -0.0389 -0.1010
 1017YOPC   C3A14689   5.236  16.965   7.166  0.1162  0.0121 -0.2002
 1017YOPC   C4A14690   4.999  17.200   7.496  0.1469  0.1362 -0.1050
 1017YOPC   C1B14691   5.307  17.798   6.813 -0.0640  0.1956  0.0554
 1017YOPC   C2B14692   5.626  17.869   6.920  0.0246 -0.0212  0.2139
 1017YOPC   D3B14693   5.879  17.706   7.176  0.3445  0.0292 -0.0797
 1017YOPC   C4B14694   5.849  18.052   7.603 -0.0248  0.3160 -0.2727
 1018YOPC   NC314695   7.879   7.796   5.628 -0.0246  0.0423 -0.0882
 1018YOPC   PO414696   7.926   7.497   6.019  0.0773  0.0699 -0.1288
 1018YOPC   GL114697   7.761   7.371   6.390  0.2314  0.1730  0.0293
 1018YOPC   GL214698   7.811   7.034   6.547  0.0030 -0.2086  0.2519
 1018YOPC   C1A14699   7.661   7.617   6.658  0.1024  0.0683 -0.0944
 1018YOPC   D2A14700   7.855   7.436   7.081 -0.1690 -0.0715 -0.0488
 1018YOPC   C3A14701   8.018   7.603   7.320  0.0709 -0.2820  0.2891
 1018YOPC   C4A14702   8.200   7.862   7.652  0.2767  0.0402 -0.0924
 1018YOPC   C1B14703   7.470   7.142   6.847 -0.0495  0.0753 -0.1127
 1018YOPC   C2B14704   7.384   7.408   7.138  0.1014  0.0734  0.1530
 1018YOPC   D3B14705   7.108   7.313   7.438 -0.1854 -0.0499 -0.2008
 1018YOPC   C4B14706   6.755   7.428   7.734  0.0703  0.1707  0.1715
 1019YOPC   NC314707   8.069  15.602   5.955  0.0616 -0.2567  0.0561
 1019YOPC   PO414708   7.546  15.738   5.968  0.0846  0.0325  0.1086
 1019YOPC   GL114709   7.294  15.606   6.317 -0.2416  0.2215  0.0943
 1019YOPC   GL214710   6.965  15.633   6.356 -0.1544 -0.1996 -0.3482
 1019YOPC   C1A14711   7.282  15.404   6.777 -0.1007  0.0911 -0.2387
 1019YOPC   D2A14712   7.620  15.266   7.075 -0.2335 -0.1639  0.0244
 1019YOPC   C3A14713   7.815  14.923   6.841  0.3811  0.0935  0.0025
 1019YOPC   C4A14714   7.986  14.670   6.429  0.3422  0.0730  0.0329
 1019YOPC   C1B14715   7.165  15.890   6.720  0.1908  0.2378  0.1691
 1019YOPC   C2B14716   7.165  15.854   7.179  0.0946  0.1020 -0.4223
 1019YOPC   D3B14717   7.311  16.132   7.532 -0.1191 -0.0895  0.0757
 1019YOPC   C4B14718   7.177  16.100   7.959 -0.4002 -0.3023  0.0350
 1020YOPC   NC314719   1.326  16.600   5.801  0.5747 -0.2471 -0.3142
 1020YOPC   PO414720   1.720  16.430   5.797  0.1851  0.3248 -0.0836
 1020YOPC   GL114721   1.774  16.199   6.270  0.3743  0.1585  0.0482
 1020YOPC   GL214722   1.893  16.520   6.353 -0.0860 -0.3077  0.1144
 1020YOPC   C1A14723   1.972  16.150   6.724 -0.0190  0.0414  0.1244
 1020YOPC   D2A14724   1.807  16.088   7.067  0.0377  0.2221  0.0615
 1020YOPC   C3A14725   2.120  16.177   7.355  0.3172  0.2395  0.1007
 1020YOPC   C4A14726   2.259  16.315   7.813 -0.1209 -0.0475 -0.2766
 1020YOPC   C1B14727   1.914  16.670   6.710 -0.0124  0.2114  0.0942
 1020YOPC   C2B14728   2.093  16.548   7.006 -0.0514 -0.2488  0.0417
 1020YOPC   D3B14729   2.077  16.745   7.351  0.1013 -0.3958 -0.1267
 1020YOPC   C4B14730   1.921  16.769   7.661  0.0646  0.1029 -0.2638
 1021YOPC   NC314731  15.442   5.163   5.670  0.0140 -0.2541  0.0337
 1021YOPC   PO414732  15.644   5.300   6.011  0.1614  0.1955  0.1596
 1021YOPC   GL114733  15.729   5.423   6.412 -0.0465  0.1243 -0.2845
 1021YOPC   GL214734  16.015   5.432   6.468 -0.0849  0.0508  0.2070
 1021YOPC   C1A14735  15.501   5.355   6.788  0.2904  0.1387 -0.0060
 1021YOPC   D2A14736  15.369   5.524   7.244 -0.1742 -0.2668 -0.0326
 1021YOPC   C3A14737  15.668   5.743   7.454  0.1961  0.1288  0.1449
 1021YOPC   C4A14738  15.493   6.103   7.655  0.0505  0.3406 -0.0822
 1021YOPC   C1B14739  16.097   5.434   6.875 -0.1654 -0.2242 -0.0522
 1021YOPC   C2B14740  15.924   5.453   7.178  0.3778 -0.2198  0.0410
 1021YOPC   D3B14741  15.736   5.088   7.326  0.2867  0.4437 -0.0311
 1021YOPC   C4B14742  15.798   4.700   7.495  0.0264 -0.4179  0.1106
 1022YOPC   NC314743  10.500  14.736   5.823 -0.1378 -0.1136  0.1161
 1022YOPC   PO414744  10.850  14.652   6.078  0.0870 -0.4467  0.0293
 1022YOPC   GL114745  10.725  14.516   6.481 -0.5528 -0.0112 -0.0511
 1022YOPC   GL214746  10.973  14.195   6.475  0.1280 -0.2944 -0.1136
 1022YOPC   C1A14747  10.481  14.722   6.826 -0.1766  0.0461  0.0433
 1022YOPC   D2A14748  10.094  14.792   7.201 -0.2110  0.0002  0.1689
 1022YOPC   C3A14749   9.840  15.075   7.175  0.0023  0.0612 -0.0981
 1022YOPC   C4A14750   9.816  15.503   7.302  0.0879  0.1412 -0.1516
 1022YOPC   C1B14751  10.628  14.089   6.790  0.2554 -0.1379  0.1364
 1022YOPC   C2B14752  10.383  14.293   7.202  0.2289 -0.1533 -0.1021
 1022YOPC   D3B14753  10.190  14.288   7.580 -0.0978 -0.3079  0.0078
 1022YOPC   C4B14754  10.001  14.272   8.030  0.0796  0.1836  0.1973
 1023YOPC   NC314755   6.054   0.337   5.970 -0.1547 -0.0654 -0.0779
 1023YOPC   PO414756   6.016   0.776   5.975  0.1988  0.2008 -0.1072
 1023YOPC   GL114757   6.225   0.776   6.340  0.2654 -0.0484  0.0244
 1023YOPC   GL214758   6.525   0.588   6.215  0.0360 -0.0867  0.1559
 1023YOPC   C1A14759   6.229   0.939   6.799  0.3813  0.0774 -0.3150
 1023YOPC   D2A14760   6.064   1.070   7.214 -0.1032 -0.1524  0.0391
 1023YOPC   C3A14761   5.919   1.366   7.507  0.0645  0.1013  0.1246
 1023YOPC   C4A14762   5.671   1.640   7.821  0.0822  0.1371  0.2544
 1023YOPC   C1B14763   6.630   0.890   6.587  0.1754 -0.0400 -0.0074
 1023YOPC   C2B14764   6.749   1.126   7.014 -0.1683 -0.1213 -0.1267
 1023YOPC   D3B14765   6.555   0.964   7.459  0.1379  0.0599 -0.0548
 1023YOPC   C4B14766   6.637   0.968   7.940  0.1656  0.3046  0.1618
 1024YOPC   NC314767   2.212  10.524   5.301  0.0235 -0.0411 -0.0212
 1024YOPC   PO414768   2.099  10.455   5.619 -0.0425  0.2193 -0.0702
 1024YOPC   GL114769   2.129  10.288   5.987 -0.1754  0.0163 -0.2893
 1024YOPC   GL214770   1.896  10.239   6.049  0.2236 -0.2308 -0.1325
 1024YOPC   C1A14771   2.412  10.260   6.377  0.2504  0.3290  0.4757
 1024YOPC   D2A14772   2.476   9.813   6.581 -0.1492  0.1503 -0.0872
 1024YOPC   C3A14773   2.201   9.728   6.957  0.2453 -0.3864  0.0210
 1024YOPC   C4A14774   2.034   9.668   7.444  0.0397 -0.3608  0.2429
 1024YOPC   C1B14775   1.945  10.380   6.414 -0.1112 -0.1267 -0.2419
 1024YOPC   C2B14776   2.143  10.206   6.823 -0.3865 -0.1863  0.4538
 1024YOPC   D3B14777   2.170  10.149   7.201 -0.0616  0.1752  0.1302
 1024YOPC   C4B14778   2.457   9.923   7.543  0.1100 -0.2125  0.2802
 1025YOPC   NC314779   4.290   2.420   5.204 -0.0902  0.3548  0.1578
 1025YOPC   PO414780   4.241   2.374   5.607  0.1381 -0.1959  0.0740
 1025YOPC   GL114781   4.499   2.216   6.019  0.1770 -0.6220  0.1238
 1025YOPC   GL214782   4.319   2.045   6.289  0.1891  0.1237  0.0691
 1025YOPC   C1A14783   4.790   1.935   6.308  0.1868  0.4038  0.0859
 1025YOPC   D2A14784   5.233   1.985   6.564 -0.0564  0.1498 -0.2414
 1025YOPC   C3A14785   5.362   2.427   6.680  0.1737  0.0678 -0.0921
 1025YOPC   C4A14786   5.612   2.710   6.954  0.0682 -0.2532  0.1257
 1025YOPC   C1B14787   3.992   1.948   6.657  0.2959  0.5432  0.1461
 1025YOPC   C2B14788   3.567   1.987   6.824 -0.2980  0.2886  0.1810
 1025YOPC   D3B14789   3.624   1.989   7.240  0.1605 -0.3814  0.4072
 1025YOPC   C4B14790   3.645   2.184   7.699  0.0252  0.0326  0.0104
 1026YOPC   NC314791  10.024  11.293   6.040  0.0687 -0.6715  0.2840
 1026YOPC   PO414792   9.664  11.056   6.025  0.1518  0.1590 -0.1306
 1026YOPC   GL114793   9.648  11.289   6.441 -0.2517  0.1938  0.1580
 1026YOPC   GL214794   9.408  11.029   6.570 -0.1673  0.2826 -0.1365
 1026YOPC   C1A14795   9.824  11.164   6.822  0.0791  0.0425  0.1144
 1026YOPC   D2A14796   9.987  10.943   7.165  0.0530 -0.3334  0.2990
 1026YOPC   C3A14797   9.720  10.801   7.446 -0.0237  0.1287  0.2447
 1026YOPC   C4A14798   9.365  10.475   7.388  0.2424 -0.0495 -0.2045
 1026YOPC   C1B14799   8.918  11.149   6.845  0.1230 -0.1221 -0.0898
 1026YOPC   C2B14800   8.512  11.185   6.893 -0.1160 -0.2306  0.1104
 1026YOPC   D3B14801   8.418  11.148   7.265 -0.0385 -0.4083 -0.3079
 1026YOPC   C4B14802   8.170  10.961   7.563 -0.1626  0.0212  0.1559
 1027YOPC   NC314803   5.172   6.378   5.762  0.3301 -0.0891 -0.2707
 1027YOPC   PO414804   4.962   6.752   5.884  0.3516  0.1199 -0.2229
 1027YOPC   GL114805   4.804   6.559   6.306 -0.2545  0.0496 -0.2747
 1027YOPC   GL214806   4.453   6.702   6.153 -0.1354 -0.1221  0.4051
 1027YOPC   C1A14807   4.784   6.659   6.695  0.0829  0.2886 -0.1594
 1027YOPC   D2A14808   4.852   6.719   7.124 -0.4452 -0.0559  0.1692
 1027YOPC   C3A14809   4.927   6.978   7.398 -0.1952  0.1281 -0.0379
 1027YOPC   C4A14810   4.804   7.397   7.585 -0.1242  0.0645 -0.1776
 1027YOPC   C1B14811   4.412   7.000   6.577  0.3503 -0.0105  0.1170
 1027YOPC   C2B14812   4.469   6.967   6.954  0.1155  0.4828 -0.2120
 1027YOPC   D3B14813   4.220   7.063   7.317  0.2356  0.0915  0.1344
 1027YOPC   C4B14814   4.391   7.104   7.774  0.0155  0.3226  0.1444
 1028YOPC   NC314815   6.234  15.168   5.802  0.1460 -0.1137 -0.1447
 1028YOPC   PO414816   5.781  15.264   5.874  0.1874  0.2383 -0.2175
 1028YOPC   GL114817   5.894  15.118   6.330 -0.0349 -0.1822  0.1103
 1028YOPC   GL214818   5.728  15.478   6.413 -0.0315  0.3693 -0.0664
 1028YOPC   C1A14819   5.891  14.825   6.639  0.0357 -0.1984 -0.4077
 1028YOPC   D2A14820   5.792  14.778   7.042 -0.2847 -0.0680  0.0417
 1028YOPC   C3A14821   5.806  15.132   7.306  0.0212 -0.2166  0.2806
 1028YOPC   C4A14822   6.012  15.216   7.712  0.1090  0.2989 -0.0571
 1028YOPC   C1B14823   5.566  15.745   6.629  0.1681 -0.1490 -0.2433
 1028YOPC   C2B14824   5.430  16.033   6.803 -0.0400  0.4387  0.0682
 1028YOPC   D3B14825   5.698  16.302   6.699 -0.0907 -0.1654 -0.0505
 1028YOPC   C4B14826   5.951  16.653   6.491 -0.0040 -0.2254 -0.1635
 1029YOPC   NC314827  18.069  11.448   6.054 -0.3990  0.1558  0.1572
 1029YOPC   PO414828  17.922  11.075   5.837  0.1674  0.1044  0.1025
 1029YOPC   GL114829  17.669  10.996   6.170 -0.1596 -0.0100 -0.0219
 1029YOPC   GL214830  17.873  11.321   6.488  0.3303 -0.0134 -0.2693
 1029YOPC   C1A14831  17.727  10.877   6.624 -0.3925  0.1773 -0.0063
 1029YOPC   D2A14832  17.912  10.801   7.006  0.0827  0.1623 -0.0806
 1029YOPC   C3A14833  17.717  10.686   7.335 -0.0670  0.0417 -0.0250
 1029YOPC   C4A14834  17.966  10.439   7.747  0.0721  0.1402  0.0978
 1029YOPC   C1B14835  18.127  11.522   6.824 -0.0540 -0.1021 -0.1734
 1029YOPC   C2B14836  18.258  11.542   7.228 -0.0154 -0.1651 -0.0767
 1029YOPC   D3B14837  18.035  11.128   7.425 -0.4036 -0.0163  0.0249
 1029YOPC   C4B14838  18.264  10.682   7.449  0.1271 -0.1042 -0.0394
 1030YOPC   NC314839   5.621  16.758   5.922 -0.2445 -0.1115  0.0487
 1030YOPC   PO414840   5.188  16.869   5.988  0.1314 -0.1753  0.3861
 1030YOPC   GL114841   5.064  16.916   6.407 -0.0981 -0.2265 -0.1243
 1030YOPC   GL214842   4.805  16.864   6.606  0.0512  0.1203  0.1720
 1030YOPC   C1A14843   5.046  16.588   6.913  0.1616 -0.0925  0.4457
 1030YOPC   D2A14844   5.127  16.459   7.304 -0.0727 -0.1119  0.1192
 1030YOPC   C3A14845   5.202  16.826   7.676  0.3154 -0.0115  0.3667
 1030YOPC   C4A14846   5.470  17.001   8.031 -0.2317  0.1377 -0.0392
 1030YOPC   C1B14847   4.626  17.009   6.881  0.0268 -0.0233  0.0323
 1030YOPC   C2B14848   4.478  17.162   7.315  0.0215 -0.2433  0.2672
 1030YOPC   D3B14849   4.222  16.919   7.612  0.0352  0.1663 -0.0858
 1030YOPC   C4B14850   4.022  16.573   7.479  0.0331  0.0899 -0.3320
 1031YOPC   NC314851   6.907   5.736   5.784  0.0481 -0.2175 -0.2822
 1031YOPC   PO414852   7.351   5.560   5.644  0.4032  0.0046 -0.0489
 1031YOPC   GL114853   7.453   5.528   6.044 -0.1244 -0.1991 -0.1390
 1031YOPC   GL214854   7.264   5.709   6.195 -0.0007 -0.0801  0.0910
 1031YOPC   C1A14855   7.386   5.386   6.554  0.1376 -0.3926  0.2179
 1031YOPC   D2A14856   7.462   5.315   7.006 -0.0498 -0.1545  0.0462
 1031YOPC   C3A14857   7.188   5.243   7.267 -0.2429 -0.1103 -0.2043
 1031YOPC   C4A14858   7.090   5.016   7.671 -0.1205  0.3614  0.2795
 1031YOPC   C1B14859   6.999   5.853   6.568  0.0358 -0.0792  0.1201
 1031YOPC   C2B14860   6.701   6.163   6.721  0.0939  0.2158 -0.0585
 1031YOPC   D3B14861   6.750   6.438   7.178 -0.0672 -0.1217 -0.0420
 1031YOPC   C4B14862   7.036   6.467   7.473 -0.0785  0.1420 -0.1126
 1032YOPC   NC314863   5.579   3.294   5.990 -0.4190 -0.2776  0.0878
 1032YOPC   PO414864   6.026   3.268   6.137 -0.1675  0.4454 -0.0900
 1032YOPC   GL114865   6.196   3.254   6.487  0.1205  0.2424 -0.2658
 1032YOPC   GL214866   5.953   3.079   6.689 -0.2032  0.2340 -0.2641
 1032YOPC   C1A14867   6.384   2.918   6.760  0.0525 -0.4638  0.0965
 1032YOPC   D2A14868   6.725   2.818   7.043 -0.1307 -0.2302  0.0848
 1032YOPC   C3A14869   6.922   2.486   7.024 -0.1871 -0.1607 -0.1090
 1032YOPC   C4A14870   7.336   2.460   7.348 -0.2695 -0.3261 -0.1304
 1032YOPC   C1B14871   6.021   3.121   7.105 -0.1132 -0.0928  0.0956
 1032YOPC   C2B14872   5.898   2.848   7.489  0.1140 -0.1388 -0.4449
 1032YOPC   D3B14873   6.079   2.497   7.719  0.0689 -0.1082  0.4200
 1032YOPC   C4B14874   6.479   2.211   7.800  0.1111  0.1169 -0.1514
 1033YOPC   NC314875   8.015   9.379   5.867 -0.2229  0.3118 -0.0516
 1033YOPC   PO414876   8.433   9.569   5.902  0.0986 -0.1642 -0.0648
 1033YOPC   GL114877   8.416   9.279   6.160  0.0796  0.0251  0.1002
 1033YOPC   GL214878   8.140   9.414   6.405  0.0170  0.1682  0.0460
 1033YOPC   C1A14879   8.585   9.282   6.661  0.6497 -0.2442  0.2137
 1033YOPC   D2A14880   8.954   9.231   6.812  0.2935  0.0193 -0.1939
 1033YOPC   C3A14881   9.008   8.822   6.858 -0.1141  0.1233  0.0259
 1033YOPC   C4A14882   8.810   8.408   6.951 -0.1830 -0.2080  0.0382
 1033YOPC   C1B14883   8.083   9.201   6.725  0.1392 -0.1114  0.0309
 1033YOPC   C2B14884   7.980   8.979   7.106  0.0386 -0.2324 -0.1289
 1033YOPC   D3B14885   8.243   8.779   7.445 -0.2620  0.0836 -0.0203
 1033YOPC   C4B14886   8.118   8.337   7.717  0.0303  0.0425 -0.0003
 1034YOPC   NC314887   7.059   1.078   5.604 -0.0901 -0.0358 -0.0643
 1034YOPC   PO414888   7.457   1.172   5.687 -0.2333  0.1028 -0.1814
 1034YOPC   GL114889   7.485   1.213   6.075  0.2168 -0.0360 -0.1934
 1034YOPC   GL214890   7.804   1.368   6.195  0.0406  0.1480 -0.0763
 1034YOPC   C1A14891   7.403   1.510   6.517 -0.0722  0.2507 -0.0533
 1034YOPC   D2A14892   7.510   1.599   6.900 -0.3580 -0.1645 -0.1565
 1034YOPC   C3A14893   7.232   1.421   7.296 -0.1237 -0.0374  0.1569
 1034YOPC   C4A14894   6.893   1.292   7.574 -0.0086 -0.2612 -0.4085
 1034YOPC   C1B14895   7.924   1.497   6.684  0.1855  0.1179  0.1910
 1034YOPC   C2B14896   7.851   1.217   7.003 -0.1122  0.0038  0.1488
 1034YOPC   D3B14897   8.192   1.372   7.331 -0.0668  0.3562  0.0020
 1034YOPC   C4B14898   8.284   1.284   7.810 -0.0141 -0.0822 -0.0865
 1035YOPC   NC314899   0.404   9.051   5.708 -0.3312  0.3494 -0.0266
 1035YOPC   PO414900   0.465   8.795   6.086 -0.0033  0.1647  0.2118
 1035YOPC   GL114901   0.270   8.537   6.449  0.2858 -0.0727  0.1011
 1035YOPC   GL214902   0.475   8.611   6.716 -0.2792 -0.0235  0.0371
 1035YOPC   C1A14903   0.022   8.352   6.672  0.0024 -0.0587  0.1490
 1035YOPC   D2A14904  -0.173   8.179   6.999 -0.3523 -0.0031  0.2369
 1035YOPC   C3A14905  -0.181   8.308   7.350 -0.0686 -0.1518  0.3227
 1035YOPC   C4A14906  -0.037   8.482   7.672 -0.0937  0.0057 -0.0025
 1035YOPC   C1B14907   0.358   8.390   7.186  0.0527 -0.4568  0.0393
 1035YOPC   C2B14908   0.514   8.679   7.579  0.3699 -0.0989  0.1896
 1035YOPC   D3B14909   0.421   8.516   7.954 -0.3166  0.1393 -0.5168
 1035YOPC   C4B14910   0.368   8.107   8.148 -0.1980 -0.3258  0.2980
 1036YOPC   NC314911  14.348   8.533   5.516 -0.2144 -0.2687 -0.0317
 1036YOPC   PO414912  14.668   8.832   5.554 -0.1265  0.1829 -0.1436
 1036YOPC   GL114913  14.913   9.097   5.826  0.5965  0.0537 -0.0097
 1036YOPC   GL214914  14.756   9.291   5.992 -0.2077 -0.3226 -0.0042
 1036YOPC   C1A14915  15.316   9.102   5.986 -0.1174  0.1454  0.3015
 1036YOPC   D2A14916  15.683   8.978   6.232 -0.1175  0.3135 -0.0082
 1036YOPC   C3A14917  15.789   8.942   6.570  0.0022  0.0884  0.2215
 1036YOPC   C4A14918  15.776   8.810   7.044 -0.0755 -0.1714  0.1476
 1036YOPC   C1B14919  14.553   9.656   6.201  0.0104 -0.1302  0.0076
 1036YOPC   C2B14920  14.361   9.793   6.668 -0.1667  0.0606 -0.0918
 1036YOPC   D3B14921  14.458  10.213   6.915 -0.3157 -0.1300 -0.0026
 1036YOPC   C4B14922  14.200  10.343   7.131  0.1203  0.1865  0.4775
 1037YOPC   NC314923  15.906  10.591   5.430  0.0991 -0.0801 -0.2359
 1037YOPC   PO414924  16.272  10.434   5.694 -0.0334 -0.0571  0.0185
 1037YOPC   GL114925  16.389  10.491   6.087 -0.2324  0.2010  0.0419
 1037YOPC   GL214926  16.568  10.747   6.276  0.1244  0.1250 -0.2794
 1037YOPC   C1A14927  16.066  10.628   6.341 -0.1634  0.0548  0.2907
 1037YOPC   D2A14928  15.914  10.771   6.814 -0.1636  0.0867  0.1453
 1037YOPC   C3A14929  15.653  10.540   7.166 -0.0785  0.0717 -0.1067
 1037YOPC   C4A14930  15.320  10.226   7.233 -0.1513 -0.2668 -0.0053
 1037YOPC   C1B14931  16.418  10.629   6.781 -0.0871 -0.1285 -0.0289
 1037YOPC   C2B14932  16.241  10.352   7.110 -0.1626 -0.0322  0.0048
 1037YOPC   D3B14933  15.941  10.318   7.542  0.1785 -0.1971 -0.2053
 1037YOPC   C4B14934  15.568  10.546   7.720 -0.2753  0.0277  0.2996
 1038YOPC   NC314935   2.353  17.885   6.122  0.2172 -0.2126 -0.1267
 1038YOPC   PO414936   2.014  18.281   6.240 -0.0900  0.1294  0.0358
 1038YOPC   GL114937   1.788  18.269   6.603  0.1169  0.2101  0.0837
 1038YOPC   GL214938   1.532  18.048   6.549 -0.0612  0.0921 -0.4385
 1038YOPC   C1A14939   1.898  18.080   6.963 -0.0102  0.1972 -0.1663
 1038YOPC   D2A14940   2.002  17.956   7.315 -0.4077 -0.0413 -0.0948
 1038YOPC   C3A14941   2.212  17.676   7.696  0.0803  0.2181  0.2444
 1038YOPC   C4A14942   2.404  17.353   8.033  0.3072 -0.2391 -0.1633
 1038YOPC   C1B14943   1.371  17.876   7.029  0.2700  0.0575  0.2430
 1038YOPC   C2B14944   1.091  17.957   7.266 -0.0232  0.4107  0.1030
 1038YOPC   D3B14945   1.008  17.780   7.655 -0.0076 -0.0750  0.0851
 1038YOPC   C4B14946   1.217  17.724   7.934  0.1136 -0.0321 -0.0277
 1039YOPC   NC314947  15.962   2.807   5.771 -0.0920  0.1534 -0.0216
 1039YOPC   PO414948  16.162   2.676   5.988  0.2332  0.0992  0.2158
 1039YOPC   GL114949  16.288   2.787   6.411 -0.2139  0.2463 -0.2788
 1039YOPC   GL214950  16.650   2.595   6.491  0.1081  0.3023 -0.5530
 1039YOPC   C1A14951  16.284   3.110   6.585  0.0046  0.2328  0.3428
 1039YOPC   D2A14952  16.343   3.551   6.740  0.2181  0.2138  0.0262
 1039YOPC   C3A14953  16.074   3.654   7.118 -0.2398 -0.0345  0.1085
 1039YOPC   C4A14954  16.129   3.478   7.530 -0.0742  0.0629 -0.0261
 1039YOPC   C1B14955  16.620   2.697   6.879  0.2057 -0.4505 -0.1580
 1039YOPC   C2B14956  16.751   2.669   7.274 -0.0868  0.4900 -0.0680
 1039YOPC   D3B14957  16.803   2.616   7.696 -0.3767 -0.3698  0.3332
 1039YOPC   C4B14958  17.044   2.697   7.965 -0.1215  0.2048  0.1214
 1040YOPC   NC314959  14.505  13.373   6.115  0.1436 -0.1070 -0.0088
 1040YOPC   PO414960  15.032  13.406   5.964 -0.2353 -0.0008  0.2280
 1040YOPC   GL114961  15.027  13.177   6.333 -0.0597 -0.2578  0.0223
 1040YOPC   GL214962  15.048  12.779   6.409 -0.0053  0.0794 -0.0404
 1040YOPC   C1A14963  14.967  13.246   6.785  0.0047 -0.1641 -0.4810
 1040YOPC   D2A14964  14.860  13.128   7.195 -0.5369  0.0599 -0.2645
 1040YOPC   C3A14965  14.462  13.219   7.317  0.0063  0.0284  0.2931
 1040YOPC   C4A14966  14.009  13.373   7.174 -0.0824 -0.0944 -0.0108
 1040YOPC   C1B14967  15.098  12.770   6.878  0.0845  0.0354 -0.0931
 1040YOPC   C2B14968  15.115  12.673   7.249  0.2480 -0.1292  0.1653
 1040YOPC   D3B14969  14.796  12.861   7.613  0.0837 -0.2394  0.0866
 1040YOPC   C4B14970  14.730  13.060   7.926  0.0609  0.4725  0.1475
 1041YOPC   NC314971  17.213  16.638   6.090  0.0108  0.0587 -0.2208
 1041YOPC   PO414972  17.580  16.718   5.930  0.0322 -0.2281  0.1393
 1041YOPC   GL114973  17.788  16.582   6.278  0.4201 -0.0307 -0.1103
 1041YOPC   GL214974  17.477  16.593   6.480 -0.0196  0.1474  0.2301
 1041YOPC   C1A14975  17.748  16.209   6.464  0.2258  0.1554  0.5842
 1041YOPC   D2A14976  18.015  15.815   6.603 -0.0920  0.2147  0.2055
 1041YOPC   C3A14977  17.916  15.746   7.013 -0.2116 -0.0776  0.0143
 1041YOPC   C4A14978  18.120  15.737   7.330 -0.1617 -0.0429  0.0635
 1041YOPC   C1B14979  17.920  16.671   6.749  0.0343 -0.1854 -0.1021
 1041YOPC   C2B14980  18.280  16.681   7.057 -0.0234  0.1499 -0.0972
 1041YOPC   D3B14981  18.314  16.962   7.392  0.1376 -0.3444  0.0209
 1041YOPC   C4B14982  18.266  17.124   7.776  0.2034 -0.1744 -0.1318
 1042YOPC   NC314983   4.429  11.813   5.569 -0.0228  0.0945  0.1301
 1042YOPC   PO414984   4.027  11.964   5.742  0.1954 -0.2959 -0.0535
 1042YOPC   GL114985   4.253  11.848   6.203 -0.1377  0.0332  0.0080
 1042YOPC   GL214986   4.243  12.238   6.227 -0.1843 -0.0926  0.0299
 1042YOPC   C1A14987   4.273  11.704   6.642 -0.0792 -0.3192  0.0577
 1042YOPC   D2A14988   4.502  11.558   7.138  0.2267 -0.0762  0.3047
 1042YOPC   C3A14989   4.504  11.061   7.212 -0.2991  0.0320  0.1023
 1042YOPC   C4A14990   4.215  10.822   7.501  0.0361 -0.2330  0.0494
 1042YOPC   C1B14991   3.947  12.106   6.494  0.0721 -0.1395 -0.2427
 1042YOPC   C2B14992   3.946  12.171   6.908 -0.1865 -0.3666 -0.3107
 1042YOPC   D3B14993   3.758  12.021   7.387 -0.1070 -0.0142  0.1201
 1042YOPC   C4B14994   3.965  11.816   7.818 -0.1674 -0.0037  0.0485
 1043YOPC   NC314995   8.378   8.472   5.337 -0.2483  0.0922 -0.2450
 1043YOPC   PO414996   8.062   8.513   5.622 -0.3918 -0.0657 -0.1102
 1043YOPC   GL114997   7.785   8.452   5.975  0.0284  0.2828  0.1228
 1043YOPC   GL214998   7.839   7.995   6.157  0.3192 -0.0912  0.0379
 1043YOPC   C1A14999   7.811   8.521   6.379  0.2908 -0.0233 -0.2550
 1043YOPC   D2A15000   7.839   8.721   6.731 -0.5468 -0.1530 -0.3028
 1043YOPC   C3A15001   7.924   8.492   7.084  0.2951  0.1064 -0.3121
 1043YOPC   C4A15002   7.717   8.522   7.439 -0.1193  0.1640 -0.4702
 1043YOPC   C1B15003   7.982   8.081   6.517  0.2082  0.2507 -0.0947
 1043YOPC   C2B15004   7.883   8.029   6.995  0.4315 -0.0020  0.0821
 1043YOPC   D3B15005   7.770   8.053   7.447  0.1060 -0.0877 -0.1174
 1043YOPC   C4B15006   7.520   8.173   7.773 -0.3250  0.1634  0.1794
 1044YOPC   NC315007   2.780   3.173   5.788  0.0159 -0.2382 -0.0539
 1044YOPC   PO415008   2.771   3.694   5.843  0.1151 -0.0954  0.0356
 1044YOPC   GL115009   2.879   3.676   6.286 -0.0565 -0.1140 -0.0715
 1044YOPC   GL215010   3.130   3.938   6.486  0.1108 -0.1398 -0.3422
 1044YOPC   C1A15011   2.925   3.461   6.695 -0.0891 -0.0636 -0.3754
 1044YOPC   D2A15012   2.964   3.256   7.147  0.3927  0.1093  0.2155
 1044YOPC   C3A15013   2.980   3.345   7.482  0.4037  0.1028  0.0481
 1044YOPC   C4A15014   2.648   3.219   7.806  0.2073  0.2019 -0.1741
 1044YOPC   C1B15015   3.432   4.063   6.794  0.2657 -0.1362 -0.0264
 1044YOPC   C2B15016   3.539   4.099   7.218 -0.0096 -0.0099 -0.3642
 1044YOPC   D3B15017   3.772   4.180   7.635 -0.1835 -0.0472  0.0361
 1044YOPC   C4B15018   3.912   4.320   7.987 -0.0859 -0.0280  0.1889
 1045YOPC   NC315019  12.668  11.497   5.586 -0.0518 -0.1024  0.0985
 1045YOPC   PO415020  12.549  11.463   5.982  0.1136  0.2643  0.0103
 1045YOPC   GL115021  12.326  11.249   6.394 -0.1878 -0.0500 -0.2095
 1045YOPC   GL215022  12.060  11.502   6.503 -0.3660 -0.3248  0.2895
 1045YOPC   C1A15023  12.549  11.184   6.788  0.3273 -0.0514 -0.3051
 1045YOPC   D2A15024  12.660  11.202   7.224  0.0840  0.4216  0.0173
 1045YOPC   C3A15025  12.435  11.117   7.670 -0.1073  0.0449  0.2103
 1045YOPC   C4A15026  12.059  11.047   7.931  0.0149 -0.0257 -0.1426
 1045YOPC   C1B15027  11.997  11.305   6.929  0.0052  0.0431  0.2063
 1045YOPC   C2B15028  12.074  11.279   7.346 -0.0685 -0.2089 -0.4345
 1045YOPC   D3B15029  12.119  11.541   7.742  0.0515  0.1153 -0.2469
 1045YOPC   C4B15030  12.009  11.604   8.236 -0.0617 -0.0676 -0.1997
 1046YOPC   NC315031  14.532   3.271   6.052 -0.2984 -0.0910 -0.0806
 1046YOPC   PO415032  14.470   3.699   6.103  0.0202  0.0207  0.0516
 1046YOPC   GL115033  14.606   3.811   6.404  0.2124 -0.3125  0.0585
 1046YOPC   GL215034  14.620   3.464   6.525 -0.0546 -0.2308 -0.1096
 1046YOPC   C1A15035  14.839   3.824   6.851 -0.0583 -0.1392  0.1886
 1046YOPC   D2A15036  15.213   3.767   7.079 -0.2723 -0.2047 -0.3380
 1046YOPC   C3A15037  15.242   3.946   7.481 -0.1135 -0.0317  0.0162
 1046YOPC   C4A15038  15.502   4.027   7.848  0.1441  0.0501  0.3054
 1046YOPC   C1B15039  14.705   3.331   6.878 -0.0398  0.0902 -0.4501
 1046YOPC   C2B15040  14.905   3.396   7.190 -0.1766  0.3403 -0.0829
 1046YOPC   D3B15041  14.805   3.664   7.445  0.1141 -0.2573 -0.3388
 1046YOPC   C4B15042  14.641   4.013   7.723  0.0599  0.2838  0.2139
 1047YOPC   NC315043  16.638   6.546   6.025 -0.2138  0.2068 -0.2397
 1047YOPC   PO415044  16.830   6.238   5.855 -0.0456 -0.1155  0.2091
 1047YOPC   GL115045  16.942   6.268   6.378  0.3232 -0.1407  0.3181
 1047YOPC   GL215046  16.740   6.151   6.685 -0.0984  0.2809  0.0736
 1047YOPC   C1A15047  17.185   6.452   6.653  0.1338 -0.1108 -0.3954
 1047YOPC   D2A15048  17.242   6.385   6.991  0.2338 -0.0956  0.2570
 1047YOPC   C3A15049  17.255   6.282   7.337 -0.0111 -0.0389 -0.3500
 1047YOPC   C4A15050  17.016   6.304   7.744  0.0026  0.3630  0.0372
 1047YOPC   C1B15051  16.477   6.341   7.001  0.1181 -0.0248 -0.2142
 1047YOPC   C2B15052  16.339   6.788   7.109 -0.4418 -0.2253 -0.0838
 1047YOPC   D3B15053  16.249   6.820   7.406 -0.2661  0.1196 -0.4168
 1047YOPC   C4B15054  16.312   6.963   7.805  0.1801 -0.0900 -0.1884
 1048YOPC   NC315055   5.239   1.248   5.935  0.2022  0.1148 -0.1086
 1048YOPC   PO415056   4.871   1.454   5.887  0.2590  0.0319 -0.0616
 1048YOPC   GL115057   4.954   1.423   6.320  0.0602 -0.2038 -0.1673
 1048YOPC   GL215058   5.240   1.407   6.420 -0.3039 -0.1124 -0.3567
 1048YOPC   C1A15059   4.918   1.555   6.733  0.1006 -0.1800  0.0719
 1048YOPC   D2A15060   4.856   1.447   7.122  0.2204 -0.1615 -0.0580
 1048YOPC   C3A15061   4.738   1.730   7.419  0.2060  0.2719  0.2908
 1048YOPC   C4A15062   4.797   1.567   7.858 -0.1345 -0.0630  0.1565
 1048YOPC   C1B15063   5.503   1.605   6.722  0.1087 -0.1850  0.2721
 1048YOPC   C2B15064   5.665   2.057   6.780  0.1181 -0.1356  0.2862
 1048YOPC   D3B15065   6.028   2.080   6.918  0.3211 -0.6271 -0.3347
 1048YOPC   C4B15066   6.389   1.886   7.006  0.0909 -0.2808  0.0400
 1049YOPC   NC315067   3.192  17.607   6.245 -0.1886  0.0761 -0.1305
 1049YOPC   PO415068   3.271  18.035   6.081  0.0598 -0.3117  0.3240
 1049YOPC   GL115069   3.280  18.239   6.514  0.0095 -0.2780 -0.0560
 1049YOPC   GL215070   3.340  18.553   6.657 -0.0253 -0.3763  0.2396
 1049YOPC   C1A15071   3.111  18.185   6.876 -0.0146  0.3507  0.1016
 1049YOPC   D2A15072   3.289  18.000   7.291  0.1123  0.0210 -0.0950
 1049YOPC   C3A15073   3.725  17.823   7.230  0.1678  0.1152  0.4311
 1049YOPC   C4A15074   4.049  17.975   7.319 -0.0037 -0.2884  0.1032
 1049YOPC   C1B15075   3.423  18.672   7.116 -0.1626 -0.1921  0.0563
 1049YOPC   C2B15076   3.449  18.715   7.573  0.3358 -0.2387 -0.2409
 1049YOPC   D3B15077   3.546  18.394   7.965 -0.0540  0.0760  0.3849
 1049YOPC   C4B15078   3.377  18.124   8.281 -0.3227 -0.2553  0.0991
 1050YOPC   NC315079   0.962  13.079   6.016  0.0537  0.1531  0.2627
 1050YOPC   PO415080   0.571  13.106   5.842  0.0828 -0.3746 -0.1113
 1050YOPC   GL115081   0.497  12.878   6.196  0.1461  0.0205  0.0316
 1050YOPC   GL215082   0.795  12.718   6.343 -0.0799  0.0719  0.0845
 1050YOPC   C1A15083   0.271  12.683   6.593 -0.0443 -0.0787  0.3061
 1050YOPC   D2A15084   0.000  12.523   6.811  0.3531  0.2576  0.0411
 1050YOPC   C3A15085   0.048  12.474   7.299  0.1055  0.2426  0.0013
 1050YOPC   C4A15086   0.238  12.459   7.704  0.1077 -0.3762  0.1229
 1050YOPC   C1B15087   0.670  13.026   6.669 -0.1255  0.2853  0.0323
 1050YOPC   C2B15088   0.701  13.170   7.083 -0.0287 -0.0395 -0.2007
 1050YOPC   D3B15089   1.019  12.928   7.230 -0.0094  0.2468  0.0298
 1050YOPC   C4B15090   1.108  12.659   7.497 -0.2914 -0.1968 -0.1571
 1051YOPC   NC315091  16.785  13.061   5.962 -0.1120  0.0287 -0.1331
 1051YOPC   PO415092  16.510  13.252   5.780  0.0219  0.0210  0.0264
 1051YOPC   GL115093  16.310  13.223   6.178 -0.1621 -0.0204  0.0369
 1051YOPC   GL215094  16.513  13.228   6.458  0.1975 -0.1329 -0.2447
 1051YOPC   C1A15095  16.043  13.013   6.557  0.0372  0.0419 -0.0582
 1051YOPC   D2A15096  15.677  12.735   6.749 -0.1883  0.1459  0.1917
 1051YOPC   C3A15097  15.747  12.647   7.226  0.1044  0.0880 -0.0187
 1051YOPC   C4A15098  15.856  12.541   7.590 -0.0765 -0.1244  0.2227
 1051YOPC   C1B15099  16.426  12.741   6.380  0.2390  0.3941 -0.2072
 1051YOPC   C2B15100  16.572  12.486   6.677 -0.0250  0.2329 -0.0882
 1051YOPC   D3B15101  16.309  12.087   6.855 -0.0264 -0.1243 -0.1038
 1051YOPC   C4B15102  16.012  11.849   6.803 -0.0490 -0.0497  0.3693
 1052YOPC   NC315103  13.666   1.873   5.321 -0.2633  0.0902  0.0881
 1052YOPC   PO415104  13.205   1.874   5.274 -0.2557  0.1089  0.4932
 1052YOPC   GL115105  13.338   1.732   5.807  0.1468 -0.1736 -0.0273
 1052YOPC   GL215106  13.149   1.638   6.037  0.0289 -0.1635 -0.1943
 1052YOPC   C1A15107  13.667   1.711   6.227 -0.0816  0.1742 -0.0828
 1052YOPC   D2A15108  13.779   2.029   6.581  0.0545  0.1402 -0.2007
 1052YOPC   C3A15109  13.525   2.238   6.958  0.1044  0.1251  0.1426
 1052YOPC   C4A15110  13.511   1.942   7.390  0.2779 -0.0073 -0.0143
 1052YOPC   C1B15111  13.070   1.207   6.294 -0.0745 -0.2874 -0.0400
 1052YOPC   C2B15112  12.703   1.088   6.467  0.0282  0.0234  0.0831
 1052YOPC   D3B15113  12.697   1.039   6.821  0.3488  0.3599  0.0991
 1052YOPC   C4B15114  12.376   0.862   6.999 -0.0794 -0.0120  0.2382
 1053YOPC   NC315115  13.972   0.478   5.692 -0.3360  0.0212 -0.2637
 1053YOPC   PO415116  14.133   0.022   5.965 -0.1431 -0.0340 -0.3247
 1053YOPC   GL115117  13.854   0.149   6.276  0.2858 -0.1013 -0.1968
 1053YOPC   GL215118  13.523   0.005   6.295  0.1053  0.1806  0.3485
 1053YOPC   C1A15119  13.806   0.027   6.781 -0.1108  0.1386 -0.0479
 1053YOPC   D2A15120  13.634  -0.140   7.252  0.0466 -0.3449 -0.1827
 1053YOPC   C3A15121  13.214  -0.097   7.352  0.1774 -0.0801  0.0340
 1053YOPC   C4A15122  12.760   0.094   7.341 -0.1156 -0.0798  0.1501
 1053YOPC   C1B15123  13.375  -0.252   6.769 -0.1713  0.2450  0.0405
 1053YOPC   C2B15124  13.134  -0.560   6.932  0.2291 -0.1659  0.2011
 1053YOPC   D3B15125  12.942  -0.501   7.340  0.1256  0.3391 -0.0855
 1053YOPC   C4B15126  12.829  -0.337   7.716  0.1491  0.0009  0.0243
 1054YOPC   NC315127   4.833  11.253   5.518 -0.0019  0.1412  0.2097
 1054YOPC   PO415128   4.554  11.412   5.813  0.2003 -0.2006 -0.1716
 1054YOPC   GL115129   4.581  11.483   6.210 -0.1227  0.0278  0.1579
 1054YOPC   GL215130   4.887  11.605   6.313 -0.0406  0.0187 -0.1263
 1054YOPC   C1A15131   4.675  11.381   6.707  0.4196 -0.0545  0.0730
 1054YOPC   D2A15132   4.943  11.380   6.993 -0.0707 -0.1066 -0.0868
 1054YOPC   C3A15133   4.858  11.508   7.444 -0.1424  0.0626  0.0658
 1054YOPC   C4A15134   5.001  11.665   7.772  0.0058  0.1188  0.1251
 1054YOPC   C1B15135   4.969  11.832   6.706 -0.2074  0.1686  0.0868
 1054YOPC   C2B15136   5.115  11.947   7.096  0.0214  0.0441  0.1227
 1054YOPC   D3B15137   5.403  12.305   7.252  0.1873 -0.1004  0.0575
 1054YOPC   C4B15138   5.791  12.357   7.283 -0.3654  0.2129  0.2022
 1055YOPC   NC315139   5.694   7.793   5.746 -0.0649  0.4315  0.0718
 1055YOPC   PO415140   5.283   7.973   5.613  0.1117  0.1165 -0.1512
 1055YOPC   GL115141   5.263   7.734   5.994 -0.0495  0.0497  0.3398
 1055YOPC   GL215142   5.556   7.891   6.211  0.1425  0.1417 -0.2210
 1055YOPC   C1A15143   5.105   7.605   6.518  0.0945  0.1146 -0.1939
 1055YOPC   D2A15144   5.362   7.642   6.893  0.2801  0.1953  0.1729
 1055YOPC   C3A15145   5.272   7.908   7.258  0.3480  0.2797 -0.1243
 1055YOPC   C4A15146   5.024   7.851   7.659  0.1603  0.1744  0.1048
 1055YOPC   C1B15147   5.203   8.102   6.337  0.0094 -0.1766  0.1763
 1055YOPC   C2B15148   5.034   8.451   6.306 -0.0286  0.0078  0.0607
 1055YOPC   D3B15149   5.228   8.867   6.418  0.0379 -0.3513 -0.1065
 1055YOPC   C4B15150   5.208   9.279   6.449 -0.4624 -0.3410  0.1195
 1056YOPC   NC315151  17.751   1.848   5.822 -0.0423  0.0808  0.2362
 1056YOPC   PO415152  17.444   1.786   6.128  0.2169 -0.0803  0.0691
 1056YOPC   GL115153  17.275   1.824   6.502 -0.0747  0.3016 -0.2995
 1056YOPC   GL215154  17.447   1.618   6.709  0.1825  0.2699  0.2201
 1056YOPC   C1A15155  16.953   1.564   6.800 -0.2297  0.1686 -0.1402
 1056YOPC   D2A15156  17.025   1.223   7.106 -0.2346  0.1736  0.4400
 1056YOPC   C3A15157  16.896   1.231   7.609 -0.1672 -0.3919  0.1864
 1056YOPC   C4A15158  16.987   1.097   8.011  0.2670 -0.1287  0.0195
 1056YOPC   C1B15159  17.470   1.365   7.107  0.0923 -0.0401 -0.1352
 1056YOPC   C2B15160  17.613   1.374   7.536 -0.1725  0.1419 -0.0973
 1056YOPC   D3B15161  17.971   1.239   7.746 -0.4054  0.2340  0.0004
 1056YOPC   C4B15162  18.382   1.319   7.916  0.0792  0.2878  0.0748
 1057YOPC   NC315163  11.990   1.729   5.795 -0.0825 -0.1688 -0.1210
 1057YOPC   PO415164  12.255   1.417   5.720 -0.2458 -0.0134 -0.0684
 1057YOPC   GL115165  12.057   1.254   6.040 -0.0354  0.0003  0.2287
 1057YOPC   GL215166  11.800   1.241   5.991  0.0091  0.2912  0.1213
 1057YOPC   C1A15167  12.165   1.169   6.468 -0.1737 -0.0079 -0.2376
 1057YOPC   D2A15168  12.110   1.283   6.827  0.0164  0.0954  0.1654
 1057YOPC   C3A15169  12.031   1.574   7.132  0.1877 -0.2161  0.0979
 1057YOPC   C4A15170  12.165   1.955   7.474 -0.1124 -0.0724  0.0869
 1057YOPC   C1B15171  11.820   1.519   6.403  0.1944 -0.0599  0.0365
 1057YOPC   C2B15172  12.242   1.689   6.609 -0.2864  0.3004  0.1917
 1057YOPC   D3B15173  12.571   1.497   6.990  0.0443  0.0712  0.1044
 1057YOPC   C4B15174  12.564   1.312   7.383 -0.1737  0.3647 -0.0728
 1058YOPC   NC315175  14.722  15.419   5.994  0.2117  0.2945 -0.2828
 1058YOPC   PO415176  14.316  15.083   6.059 -0.3950  0.1974 -0.1709
 1058YOPC   GL115177  14.314  15.173   6.518 -0.0919 -0.2724  0.0638
 1058YOPC   GL215178  14.576  15.303   6.582  0.4411  0.1280  0.4342
 1058YOPC   C1A15179  14.209  15.217   6.932 -0.2371 -0.0898  0.1076
 1058YOPC   D2A15180  14.042  15.502   7.162  0.0902 -0.1402  0.0969
 1058YOPC   C3A15181  13.824  15.289   7.550 -0.2819  0.0364 -0.1425
 1058YOPC   C4A15182  13.393  15.400   7.774 -0.0595  0.0252  0.2264
 1058YOPC   C1B15183  14.758  15.354   6.965 -0.0719  0.0983  0.0156
 1058YOPC   C2B15184  14.466  15.447   7.373 -0.0797  0.3389  0.1114
 1058YOPC   D3B15185  14.576  15.829   7.725  0.1926  0.2453  0.2838
 1058YOPC   C4B15186  14.879  16.013   7.650 -0.0914  0.1138  0.0978
 1059YOPC   NC315187  15.645   7.582   5.660 -0.0634 -0.1910 -0.1082
 1059YOPC   PO415188  15.786   7.162   5.477  0.3418  0.3392  0.2189
 1059YOPC   GL115189  15.717   7.143   5.971 -0.0736 -0.0795 -0.0155
 1059YOPC   GL215190  15.698   7.413   6.102 -0.3156 -0.2566 -0.1250
 1059YOPC   C1A15191  15.843   6.844   6.372 -0.0041 -0.0071 -0.3636
 1059YOPC   D2A15192  16.105   6.897   6.713 -0.1072 -0.1509  0.3174
 1059YOPC   C3A15193  15.861   6.858   7.096  0.3582  0.0238  0.1322
 1059YOPC   C4A15194  15.812   6.744   7.582  0.1457  0.2074  0.1810
 1059YOPC   C1B15195  15.423   7.191   6.549  0.1230 -0.0183 -0.0744
 1059YOPC   C2B15196  15.060   7.166   6.666 -0.0887 -0.2523  0.1957
 1059YOPC   D3B15197  14.928   6.938   7.061  0.1106  0.0305  0.1866
 1059YOPC   C4B15198  14.914   6.836   7.418 -0.1739 -0.1628  0.0641
 1060YOPC   NC315199  17.235   8.119   5.913 -0.0742 -0.1404  0.0243
 1060YOPC   PO415200  17.703   7.950   6.228  0.0667 -0.1828 -0.1570
 1060YOPC   GL115201  17.358   8.018   6.431 -0.0494  0.0268 -0.2474
 1060YOPC   GL215202  17.468   8.202   6.621 -0.0810 -0.4511 -0.1054
 1060YOPC   C1A15203  17.017   7.826   6.659  0.0046 -0.2369 -0.2705
 1060YOPC   D2A15204  16.844   7.918   7.093 -0.0135  0.0829 -0.0210
 1060YOPC   C3A15205  16.908   7.578   7.374  0.3695  0.4199 -0.3258
 1060YOPC   C4A15206  17.156   7.288   7.437  0.0293 -0.4438 -0.0279
 1060YOPC   C1B15207  17.665   8.274   7.080 -0.2073  0.1099 -0.2901
 1060YOPC   C2B15208  17.697   8.468   7.543  0.2094 -0.0568  0.1391
 1060YOPC   D3B15209  17.412   8.509   7.982 -0.2014  0.0796 -0.3215
 1060YOPC   C4B15210  17.479   8.188   8.261  0.0226  0.2881 -0.1051
 1061YOPC   NC315211  17.423  14.779   6.025  0.1909  0.1497  0.1222
 1061YOPC   PO415212  17.370  14.358   5.903 -0.1301 -0.2963  0.0187
 1061YOPC   GL115213  17.126  14.236   6.337  0.2271 -0.1732  0.0323
 1061YOPC   GL215214  17.278  14.580   6.442 -0.1567  0.2251 -0.1205
 1061YOPC   C1A15215  17.079  14.221   6.732 -0.1700  0.1678  0.0715
 1061YOPC   D2A15216  16.858  14.181   7.084 -0.1959  0.0790 -0.2112
 1061YOPC   C3A15217  16.726  13.872   7.323  0.1042  0.3862  0.1044
 1061YOPC   C4A15218  16.911  13.593   7.640 -0.1695 -0.0738 -0.1248
 1061YOPC   C1B15219  17.076  14.731   6.718  0.1670 -0.1512  0.1734
 1061YOPC   C2B15220  16.708  15.018   6.661  0.2747  0.1173 -0.0650
 1061YOPC   D3B15221  16.603  15.275   7.020  0.2753 -0.1588 -0.0363
 1061YOPC   C4B15222  16.818  15.184   7.441  0.2102 -0.0492  0.3224
 1062YOPC   NC315223   2.830   5.345   6.047 -0.0205 -0.1691  0.0077
 1062YOPC   PO415224   2.482   5.174   6.180  0.0787 -0.2952 -0.1131
 1062YOPC   GL115225   2.463   5.185   6.516 -0.1938 -0.1471  0.0248
 1062YOPC   GL215226   2.177   5.003   6.752 -0.0044 -0.0176 -0.1885
 1062YOPC   C1A15227   2.422   5.439   6.890  0.0179 -0.0982 -0.0675
 1062YOPC   D2A15228   2.539   5.668   7.216  0.0776  0.2190  0.1253
 1062YOPC   C3A15229   2.579   5.991   7.173 -0.3138 -0.0563  0.0464
 1062YOPC   C4A15230   2.480   6.476   7.337  0.0982 -0.0721  0.0179
 1062YOPC   C1B15231   1.930   5.221   7.074  0.2146 -0.1388  0.0894
 1062YOPC   C2B15232   2.039   5.374   7.457 -0.1899 -0.0162  0.2951
 1062YOPC   D3B15233   1.731   5.279   7.769 -0.1255 -0.1807  0.1121
 1062YOPC   C4B15234   1.836   5.432   8.115 -0.5009  0.0021  0.1036
 1063YOPC   NC315235   6.909  18.185   5.780 -0.2406 -0.2047 -0.0961
 1063YOPC   PO415236   7.227  18.212   6.012 -0.2219  0.0447  0.1188
 1063YOPC   GL115237   7.465  17.963   6.302 -0.2784 -0.3935  0.1002
 1063YOPC   GL215238   7.558  18.259   6.343  0.0589  0.2017  0.2457
 1063YOPC   C1A15239   7.429  17.974   6.759  0.0258  0.1359 -0.1296
 1063YOPC   D2A15240   7.460  18.137   7.053  0.2128  0.1032 -0.1371
 1063YOPC   C3A15241   7.342  17.910   7.471 -0.1531  0.2870  0.2564
 1063YOPC   C4A15242   7.196  17.904   7.827 -0.6179  0.1123 -0.1376
 1063YOPC   C1B15243   7.510  18.489   6.753 -0.1492  0.0801 -0.3266
 1063YOPC   C2B15244   7.374  18.807   7.137 -0.1148 -0.2455 -0.0777
 1063YOPC   D3B15245   7.323  18.461   7.445 -0.1284  0.2503 -0.0370
 1063YOPC   C4B15246   7.380  18.387   7.912 -0.0733  0.0867  0.0600
 1064YOPC   NC315247  14.664   2.381   5.735 -0.1697 -0.1174  0.3359
 1064YOPC   PO415248  14.581   2.777   6.071 -0.0898 -0.0606 -0.0128
 1064YOPC   GL115249  14.457   2.675   6.469  0.1199  0.2165  0.0855
 1064YOPC   GL215250  14.466   2.371   6.469  0.0430 -0.2026  0.1306
 1064YOPC   C1A15251  14.468   2.663   6.913 -0.0835 -0.2002  0.3385
 1064YOPC   D2A15252  14.246   2.574   7.316 -0.1964 -0.1170  0.0770
 1064YOPC   C3A15253  14.468   2.244   7.660 -0.0314 -0.0928  0.0369
 1064YOPC   C4A15254  14.388   1.942   8.050  0.1489  0.2077 -0.0080
 1064YOPC   C1B15255  14.880   2.347   6.665  0.2480 -0.0098 -0.1305
 1064YOPC   C2B15256  15.187   2.523   6.980  0.0337 -0.0691 -0.4679
 1064YOPC   D3B15257  15.299   2.420   7.317  0.1064  0.0356 -0.0793
 1064YOPC   C4B15258  15.366   2.598   7.801 -0.0403  0.1280 -0.0571
 1065YOPC   NC315259   7.183   9.472   5.474  0.1681 -0.1699 -0.1217
 1065YOPC   PO415260   7.557   9.421   5.661 -0.0690  0.1114  0.0636
 1065YOPC   GL115261   7.591   9.283   6.108 -0.1382 -0.2149 -0.2716
 1065YOPC   GL215262   7.702   8.969   6.253 -0.2573  0.0952 -0.1762
 1065YOPC   C1A15263   7.610   9.333   6.589  0.4004  0.1963 -0.1997
 1065YOPC   D2A15264   7.671   9.568   6.976  0.0121  0.1402 -0.0147
 1065YOPC   C3A15265   7.466   9.572   7.362  0.2883  0.1489  0.1806
 1065YOPC   C4A15266   7.394   9.667   7.719 -0.0503  0.4180 -0.2977
 1065YOPC   C1B15267   7.426   8.767   6.531 -0.1292  0.1184  0.0139
 1065YOPC   C2B15268   6.996   8.692   6.666  0.1074 -0.2521 -0.2291
 1065YOPC   D3B15269   6.831   8.686   7.141 -0.2754  0.0513  0.0591
 1065YOPC   C4B15270   6.398   8.841   7.419  0.0388  0.0983  0.0518
 1066YOPC   NC315271  15.413   6.757   5.772  0.0531 -0.0436 -0.1037
 1066YOPC   PO415272  15.000   6.823   5.803  0.2741 -0.0833 -0.0907
 1066YOPC   GL115273  14.716   7.027   6.179 -0.3121 -0.0893  0.3384
 1066YOPC   GL215274  14.699   7.405   6.107  0.0053 -0.0443  0.1745
 1066YOPC   C1A15275  14.575   7.060   6.501 -0.1210  0.1069  0.2365
 1066YOPC   D2A15276  14.205   7.049   6.586 -0.4043 -0.3611 -0.0252
 1066YOPC   C3A15277  13.982   6.832   6.896 -0.0650 -0.1025  0.3174
 1066YOPC   C4A15278  14.056   6.557   7.176  0.1841  0.0879  0.1308
 1066YOPC   C1B15279  14.713   7.539   6.470 -0.0915 -0.1918 -0.2145
 1066YOPC   C2B15280  14.558   7.441   6.921 -0.3270 -0.2024 -0.0379
 1066YOPC   D3B15281  14.648   7.700   7.328 -0.1212 -0.1781  0.2227
 1066YOPC   C4B15282  14.896   7.846   7.584 -0.1672  0.1570  0.1967
 1067YOPC   NC315283   8.329  17.803   5.362  0.2775 -0.1904 -0.0535
 1067YOPC   PO415284   8.055  17.702   5.745 -0.1374  0.5281 -0.1787
 1067YOPC   GL115285   7.990  17.703   6.114 -0.0696  0.0720  0.0163
 1067YOPC   GL215286   8.042  17.989   6.300  0.2007 -0.2640 -0.0745
 1067YOPC   C1A15287   8.388  17.596   6.417 -0.1876  0.1284  0.0534
 1067YOPC   D2A15288   8.861  17.528   6.434  0.1859  0.0897  0.0594
 1067YOPC   C3A15289   9.053  17.353   6.782 -0.0819  0.2827 -0.0063
 1067YOPC   C4A15290   9.138  17.487   7.199  0.1498 -0.0095 -0.1327
 1067YOPC   C1B15291   7.953  18.173   6.763  0.1251  0.1807  0.0634
 1067YOPC   C2B15292   7.962  17.932   7.246 -0.2431  0.1512 -0.3640
 1067YOPC   D3B15293   8.213  17.924   7.527 -0.0971  0.5421  0.1011
 1067YOPC   C4B15294   8.566  18.083   7.698 -0.6200  0.2428 -0.2918
 1068YOPC   NC315295  15.296  10.052   5.752  0.0605  0.1777  0.2276
 1068YOPC   PO415296  14.870  10.187   5.927  0.2939 -0.2349  0.2866
 1068YOPC   GL115297  15.073  10.334   6.317 -0.2396  0.1147 -0.0655
 1068YOPC   GL215298  15.396  10.179   6.271  0.2057 -0.3383 -0.0206
 1068YOPC   C1A15299  15.327  10.463   6.687 -0.2807 -0.1992  0.2545
 1068YOPC   D2A15300  15.396  10.891   6.831  0.0653 -0.1953  0.1462
 1068YOPC   C3A15301  15.319  10.878   7.165  0.0275  0.0562  0.2738
 1068YOPC   C4A15302  15.261  10.694   7.395 -0.3506 -0.0280  0.3287
 1068YOPC   C1B15303  15.387   9.965   6.566 -0.0878 -0.0677  0.0019
 1068YOPC   C2B15304  15.232   9.741   6.928  0.0296  0.2013 -0.1502
 1068YOPC   D3B15305  14.962   9.366   7.135  0.0442  0.0634  0.0186
 1068YOPC   C4B15306  14.762   9.342   7.479  0.0459 -0.1549 -0.1050
 1069YOPC   NC315307   6.779   0.209   6.097 -0.0242 -0.2385  0.1243
 1069YOPC   PO415308   6.473  -0.090   6.166 -0.0306 -0.1342  0.2100
 1069YOPC   GL115309   6.376  -0.385   6.521  0.3787 -0.1725 -0.2073
 1069YOPC   GL215310   6.153  -0.674   6.529 -0.0457 -0.2152  0.0233
 1069YOPC   C1A15311   6.837  -0.557   6.807  0.3256  0.3108 -0.2731
 1069YOPC   D2A15312   6.999  -0.439   7.081 -0.2242  0.1822 -0.1354
 1069YOPC   C3A15313   6.831  -0.512   7.525  0.3028  0.0155  0.0206
 1069YOPC   C4A15314   6.706  -0.722   7.864  0.2093 -0.1985 -0.0880
 1069YOPC   C1B15315   6.245  -0.776   6.871 -0.0335 -0.2241  0.1853
 1069YOPC   C2B15316   6.168  -0.990   7.316  0.1150 -0.0145 -0.2113
 1069YOPC   D3B15317   5.887  -0.895   7.581  0.1079  0.0881  0.2909
 1069YOPC   C4B15318   5.470  -1.011   7.640  0.1316  0.0556 -0.0459
 1070YOPC   NC315319   8.503   4.454   5.871 -0.1087  0.3804 -0.2463
 1070YOPC   PO415320   8.490   3.977   5.690 -0.2061  0.0641  0.2825
 1070YOPC   GL115321   8.475   4.020   6.082  0.0884 -0.0378 -0.1166
 1070YOPC   GL215322   8.165   3.944   6.296  0.1883 -0.0763  0.1703
 1070YOPC   C1A15323   8.518   4.180   6.518 -0.1265 -0.2263 -0.1631
 1070YOPC   D2A15324   8.369   4.650   6.720  0.2446 -0.0413 -0.2411
 1070YOPC   C3A15325   8.654   4.896   6.875  0.0781  0.0979 -0.2378
 1070YOPC   C4A15326   9.001   5.149   6.745 -0.3250  0.0801  0.0688
 1070YOPC   C1B15327   8.398   3.725   6.603 -0.2093 -0.1067 -0.4382
 1070YOPC   C2B15328   8.771   3.538   6.650  0.3603  0.0137  0.2418
 1070YOPC   D3B15329   9.029   3.600   7.024  0.3097  0.2457  0.2582
 1070YOPC   C4B15330   9.357   3.563   7.261  0.1331 -0.3885 -0.1524
 1071YOPC   NC315331  11.845   5.967   5.459 -0.1146  0.0851  0.1956
 1071YOPC   PO415332  11.772   5.907   5.893 -0.4246 -0.1373  0.3343
 1071YOPC   GL115333  12.068   5.791   6.269 -0.0236  0.3055  0.1213
 1071YOPC   GL215334  11.951   5.506   6.215  0.0238 -0.2234  0.1111
 1071YOPC   C1A15335  12.418   5.978   6.419 -0.1611 -0.2471 -0.0320
 1071YOPC   D2A15336  12.787   5.891   6.711  0.3629  0.0521  0.0402
 1071YOPC   C3A15337  12.990   5.507   6.874  0.3697 -0.0316  0.0657
 1071YOPC   C4A15338  12.915   5.272   7.282 -0.0441  0.0898  0.3295
 1071YOPC   C1B15339  11.917   5.323   6.619  0.2963 -0.0795 -0.1883
 1071YOPC   C2B15340  12.130   5.239   7.094  0.0194 -0.0173  0.4436
 1071YOPC   D3B15341  11.972   4.907   7.425  0.0525  0.0137  0.3046
 1071YOPC   C4B15342  12.078   4.492   7.370  0.0462  0.1031  0.1761
 1072YOPC   NC315343  18.013  10.610   6.022 -0.0197 -0.1703 -0.0336
 1072YOPC   PO415344  17.565  10.375   5.970 -0.3675 -0.0696  0.4931
 1072YOPC   GL115345  17.530  10.468   6.311 -0.0567  0.0119 -0.0631
 1072YOPC   GL215346  17.801  10.446   6.435 -0.2979  0.1334 -0.0926
 1072YOPC   C1A15347  17.388  10.586   6.745 -0.3446  0.2323 -0.0071
 1072YOPC   D2A15348  17.301  10.872   7.034 -0.0903 -0.0135  0.4194
 1072YOPC   C3A15349  17.253  10.709   7.466  0.1847  0.3008  0.3040
 1072YOPC   C4A15350  17.014  10.382   7.477 -0.1293 -0.0774 -0.1383
 1072YOPC   C1B15351  17.695  10.200   6.766 -0.4315  0.2020  0.0338
 1072YOPC   C2B15352  17.853   9.768   6.677  0.1299 -0.3666 -0.2391
 1072YOPC   D3B15353  17.998   9.577   7.046  0.0048 -0.1319  0.1723
 1072YOPC   C4B15354  18.288   9.273   7.221 -0.1178  0.1938  0.0663
 1073YOPC   NC315355   0.744  10.912   5.313 -0.3021 -0.1896  0.0661
 1073YOPC   PO415356   0.917  10.980   5.616 -0.3332 -0.0526  0.1427
 1073YOPC   GL115357   1.049  11.128   6.172 -0.0215  0.0705 -0.2301
 1073YOPC   GL215358   0.927  10.954   6.371 -0.0846  0.1420  0.0215
 1073YOPC   C1A15359   1.211  11.461   6.311 -0.0849 -0.1325  0.0217
 1073YOPC   D2A15360   1.155  11.842   6.106 -0.0145 -0.0790  0.4169
 1073YOPC   C3A15361   1.533  12.094   6.294  0.1228  0.0113 -0.1263
 1073YOPC   C4A15362   1.902  12.113   6.637 -0.3172 -0.0431  0.2246
 1073YOPC   C1B15363   1.116  11.333   6.776 -0.1929 -0.2424 -0.1014
 1073YOPC   C2B15364   1.081  11.398   7.229  0.1594 -0.4182  0.2386
 1073YOPC   D3B15365   1.350  11.610   7.419 -0.2427  0.1428  0.2445
 1073YOPC   C4B15366   1.636  11.877   7.675  0.2922  0.1115  0.0814
 1074YOPC   NC315367  17.326  13.596   5.524  0.2417  0.0887  0.1426
 1074YOPC   PO415368  17.212  13.828   5.938  0.1538  0.2857 -0.0417
 1074YOPC   GL115369  17.406  13.694   6.334  0.0407 -0.1461  0.0652
 1074YOPC   GL215370  17.171  13.384   6.522  0.0935  0.1173 -0.0568
 1074YOPC   C1A15371  17.580  13.925   6.617 -0.0576  0.1568 -0.0507
 1074YOPC   D2A15372  17.716  14.439   6.742  0.1706 -0.0524 -0.3864
 1074YOPC   C3A15373  17.740  14.725   7.144  0.1570  0.1193 -0.2362
 1074YOPC   C4A15374  17.740  14.896   7.545 -0.2698 -0.2846 -0.0132
 1074YOPC   C1B15375  17.329  13.597   6.861 -0.0687  0.2075  0.1434
 1074YOPC   C2B15376  17.228  13.714   7.212  0.2278  0.1252 -0.0202
 1074YOPC   D3B15377  17.441  14.130   7.063 -0.0899  0.0988 -0.3592
 1074YOPC   C4B15378  17.251  14.500   7.105 -0.2264  0.1643  0.4487
 1075YOPC   NC315379  12.678  14.619   5.668  0.2341  0.1743  0.1244
 1075YOPC   PO415380  12.666  14.347   6.064  0.0750  0.0036 -0.4601
 1075YOPC   GL115381  12.635  14.431   6.530  0.0094  0.1190 -0.1660
 1075YOPC   GL215382  12.526  14.158   6.706  0.1735 -0.5132 -0.1228
 1075YOPC   C1A15383  12.359  14.622   6.864  0.1287 -0.2118 -0.1312
 1075YOPC   D2A15384  11.955  14.592   7.141 -0.0574  0.2500 -0.0558
 1075YOPC   C3A15385  11.851  14.314   7.458 -0.0297 -0.0673 -0.0099
 1075YOPC   C4A15386  12.064  14.275   7.955 -0.1684 -0.0218 -0.0287
 1075YOPC   C1B15387  12.535  14.214   7.170 -0.1955 -0.2118 -0.0462
 1075YOPC   C2B15388  12.341  14.516   7.518 -0.2803 -0.2557  0.3255
 1075YOPC   D3B15389  12.279  15.001   7.413 -0.0450 -0.0859  0.4522
 1075YOPC   C4B15390  12.421  15.384   7.315 -0.1079  0.3620 -0.1079
 1076YOPC   NC315391   7.706   4.784   5.481 -0.0093 -0.0096  0.0068
 1076YOPC   PO415392   7.815   5.080   5.805  0.0849 -0.0474  0.0565
 1076YOPC   GL115393   7.801   4.840   6.262  0.2438  0.2024  0.0470
 1076YOPC   GL215394   7.523   4.920   6.351 -0.1559  0.1084 -0.0475
 1076YOPC   C1A15395   7.877   4.640   6.611 -0.1046 -0.0767 -0.2927
 1076YOPC   D2A15396   7.900   4.460   6.980 -0.0832 -0.2388 -0.2463
 1076YOPC   C3A15397   7.861   4.513   7.404  0.1492 -0.0447  0.2954
 1076YOPC   C4A15398   7.917   4.868   7.488  0.1147 -0.1698  0.2659
 1076YOPC   C1B15399   7.372   4.819   6.757  0.1238 -0.0448  0.0023
 1076YOPC   C2B15400   7.560   4.852   7.175  0.2591  0.1165 -0.0312
 1076YOPC   D3B15401   7.439   4.717   7.575 -0.0117  0.1849  0.2139
 1076YOPC   C4B15402   7.410   4.832   8.016  0.1115  0.1947 -0.0378
 1077YOPC   NC315403  13.050   8.340   5.939  0.0999  0.2012 -0.1896
 1077YOPC   PO415404  13.413   8.148   6.047 -0.0227 -0.0305 -0.1185
 1077YOPC   GL115405  13.285   8.298   6.500  0.0321  0.1114 -0.1185
 1077YOPC   GL215406  13.090   8.592   6.461  0.2572  0.1826 -0.1468
 1077YOPC   C1A15407  13.204   8.237   6.893 -0.0868 -0.0893  0.0595
 1077YOPC   D2A15408  13.380   8.248   7.298 -0.1454  0.2030  0.0755
 1077YOPC   C3A15409  13.320   8.009   7.644  0.0940  0.3999 -0.1456
 1077YOPC   C4A15410  13.455   8.089   7.984 -0.1006 -0.1201  0.3372
 1077YOPC   C1B15411  12.772   8.408   6.668 -0.2017 -0.0370 -0.1519
 1077YOPC   C2B15412  12.508   8.506   7.068  0.0824 -0.1398  0.1142
 1077YOPC   D3B15413  12.393   8.397   7.411 -0.1765  0.1777 -0.2962
 1077YOPC   C4B15414  12.289   8.257   7.815  0.2058 -0.1868 -0.2045
 1078YOPC   NC315415   7.489  16.818   5.766 -0.4720  0.2553 -0.1019
 1078YOPC   PO415416   7.237  17.048   5.894 -0.2282 -0.0791  0.1309
 1078YOPC   GL115417   7.332  16.944   6.298  0.3101 -0.1922 -0.1768
 1078YOPC   GL215418   7.077  16.879   6.437  0.0396  0.0203 -0.1568
 1078YOPC   C1A15419   7.501  17.107   6.701 -0.3920 -0.1544  0.0818
 1078YOPC   D2A15420   7.714  17.563   6.597  0.1481  0.3922 -0.2297
 1078YOPC   C3A15421   8.093  17.699   6.759  0.1727 -0.0185  0.1342
 1078YOPC   C4A15422   8.586  17.747   6.921  0.2409  0.0410 -0.2214
 1078YOPC   C1B15423   6.511  16.760   6.520  0.0648  0.2373  0.1449
 1078YOPC   C2B15424   6.372  16.474   6.832  0.5949  0.3006  0.0014
 1078YOPC   D3B15425   6.541  16.476   7.278  0.2032 -0.0879  0.0564
 1078YOPC   C4B15426   6.724  16.288   7.528 -0.1505 -0.2076  0.1300
 1079YOPC   NC315427  17.013  12.483   5.456  0.1263 -0.0094  0.3919
 1079YOPC   PO415428  17.139  12.230   5.832 -0.0356  0.0470  0.0159
 1079YOPC   GL115429  17.055  12.163   6.268 -0.1403 -0.0267  0.1823
 1079YOPC   GL215430  16.750  12.044   6.430 -0.0740 -0.1807  0.1809
 1079YOPC   C1A15431  17.391  12.064   6.605  0.2490  0.3601 -0.1207
 1079YOPC   D2A15432  17.670  11.722   6.821  0.4349  0.3025  0.1436
 1079YOPC   C3A15433  17.720  11.590   7.250  0.1770  0.2217  0.2094
 1079YOPC   C4A15434  17.935  11.580   7.597  0.1368  0.0137 -0.0497
 1079YOPC   C1B15435  16.822  12.081   6.898  0.1296 -0.0880  0.1035
 1079YOPC   C2B15436  16.785  12.104   7.345  0.0597  0.2001  0.0267
 1079YOPC   D3B15437  17.123  12.142   7.613 -0.0662  0.1042 -0.0815
 1079YOPC   C4B15438  17.361  12.455   7.748 -0.0870 -0.1382 -0.0762
 1080YOPC   NC315439  10.968   8.661   5.382  0.1661  0.1028  0.0836
 1080YOPC   PO415440  11.189   8.669   5.827  0.1213 -0.0205 -0.0822
 1080YOPC   GL115441  11.141   8.568   6.302 -0.3371  0.0156 -0.2351
 1080YOPC   GL215442  10.878   8.240   6.430  0.1014 -0.3299 -0.0068
 1080YOPC   C1A15443  11.189   8.481   6.707 -0.2318  0.0770 -0.0095
 1080YOPC   D2A15444  11.170   8.788   7.004  0.1566  0.0868 -0.3321
 1080YOPC   C3A15445  11.560   8.766   7.222 -0.0295 -0.0268  0.0212
 1080YOPC   C4A15446  12.031   8.793   7.203  0.0823  0.2356 -0.1413
 1080YOPC   C1B15447  10.642   8.178   6.687  0.1220  0.2726  0.4439
 1080YOPC   C2B15448  10.252   8.154   6.911  0.0594 -0.0451  0.2055
 1080YOPC   D3B15449  10.056   8.309   7.272  0.0371  0.1128  0.0102
 1080YOPC   C4B15450   9.896   8.160   7.706 -0.1671 -0.1235 -0.2364
 1081YOPC   NC315451   1.745  12.304   5.630 -0.1846 -0.0692  0.0267
 1081YOPC   PO415452   1.585  12.645   5.573 -0.1764 -0.0544 -0.2600
 1081YOPC   GL115453   1.672  12.556   6.028  0.0527  0.0368 -0.2619
 1081YOPC   GL215454   1.359  12.698   6.162  0.0021 -0.0417 -0.0338
 1081YOPC   C1A15455   2.002  12.539   6.406 -0.1178 -0.1557 -0.2470
 1081YOPC   D2A15456   2.337  12.278   6.432 -0.0117  0.0526 -0.4483
 1081YOPC   C3A15457   2.546  12.205   6.902  0.0592  0.1869 -0.0182
 1081YOPC   C4A15458   2.620  12.264   7.401 -0.0340  0.1981  0.1232
 1081YOPC   C1B15459   1.540  12.694   6.459  0.0965  0.3835 -0.3118
 1081YOPC   C2B15460   1.620  12.596   6.907  0.2782  0.0126 -0.0787
 1081YOPC   D3B15461   1.449  12.901   7.112 -0.2383 -0.3765 -0.0156
 1081YOPC   C4B15462   1.547  13.066   7.527 -0.2570 -0.1445  0.3232
 1082YOPC   NC315463  12.965  13.201   5.908 -0.0317  0.2296  0.2781
 1082YOPC   PO415464  12.791  13.467   6.086 -0.2113  0.1998 -0.0282
 1082YOPC   GL115465  12.888  13.306   6.399  0.0726 -0.1008 -0.0759
 1082YOPC   GL215466  12.558  13.229   6.721 -0.0206 -0.0666 -0.1034
 1082YOPC   C1A15467  13.065  13.278   6.843  0.1217  0.2684 -0.4040
 1082YOPC   D2A15468  13.043  13.484   7.237 -0.1501 -0.3082  0.0625
 1082YOPC   C3A15469  13.296  13.604   7.548  0.3632 -0.1127  0.1954
 1082YOPC   C4A15470  13.445  13.484   7.962  0.2027  0.1209  0.2644
 1082YOPC   C1B15471  12.696  13.151   7.124  0.2892  0.1968  0.0141
 1082YOPC   C2B15472  12.625  13.422   7.466 -0.0162 -0.1973 -0.1156
 1082YOPC   D3B15473  12.763  13.836   7.525 -0.0100 -0.1704 -0.3965
 1082YOPC   C4B15474  12.753  14.192   7.609  0.1234  0.0607 -0.0161
 1083YOPC   NC315475   8.784   3.637   6.004 -0.0464  0.2089  0.2847
 1083YOPC   PO415476   9.284   3.854   5.841 -0.1203  0.0211 -0.1119
 1083YOPC   GL115477   9.262   3.925   6.224 -0.0837  0.4258  0.1929
 1083YOPC   GL215478   9.544   4.154   6.321 -0.1454 -0.0888  0.0456
 1083YOPC   C1A15479   8.996   4.035   6.474  0.0111 -0.1872  0.2878
 1083YOPC   D2A15480   8.766   4.003   6.886 -0.2474  0.1083  0.3044
 1083YOPC   C3A15481   8.815   4.362   7.131  0.0608 -0.3055  0.5032
 1083YOPC   C4A15482   8.823   4.472   7.693  0.2492 -0.0408 -0.1185
 1083YOPC   C1B15483   9.375   4.549   6.485 -0.1739 -0.0592 -0.2028
 1083YOPC   C2B15484   9.420   4.865   6.796  0.2138  0.0531 -0.1030
 1083YOPC   D3B15485   9.367   5.277   7.059 -0.1915 -0.1253 -0.5201
 1083YOPC   C4B15486   9.375   5.383   7.512 -0.0378 -0.0793  0.2072
 1084YOPC   NC315487   6.498  14.159   5.749  0.0769 -0.1989  0.1307
 1084YOPC   PO415488   6.688  13.809   5.660 -0.0714 -0.1269  0.1093
 1084YOPC   GL115489   6.636  13.777   6.083  0.4265  0.1224  0.0697
 1084YOPC   GL215490   6.564  14.041   6.233 -0.0964  0.0292 -0.1304
 1084YOPC   C1A15491   6.808  13.717   6.538 -0.2848 -0.0836 -0.5422
 1084YOPC   D2A15492   6.865  13.746   6.966  0.0602 -0.2966 -0.1106
 1084YOPC   C3A15493   6.769  14.121   7.196 -0.1533 -0.4990  0.0222
 1084YOPC   C4A15494   6.388  14.093   7.425  0.0447 -0.1813  0.1420
 1084YOPC   C1B15495   6.604  14.197   6.619  0.3182 -0.1632 -0.2207
 1084YOPC   C2B15496   6.413  14.503   6.794  0.0706  0.2718  0.3001
 1084YOPC   D3B15497   6.218  14.499   7.192  0.0808 -0.1487  0.0351
 1084YOPC   C4B15498   6.129  14.768   7.560  0.0432  0.1589  0.2883
 1085YOPC   NC315499   7.668   0.857   5.245 -0.3667 -0.1926  0.4370
 1085YOPC   PO415500   7.922   0.903   5.588  0.0073  0.0422  0.1364
 1085YOPC   GL115501   7.990   0.894   6.047  0.1837 -0.2974 -0.4757
 1085YOPC   GL215502   8.191   1.056   6.316  0.0426 -0.1398  0.3856
 1085YOPC   C1A15503   8.129   0.569   6.250 -0.0509 -0.2061  0.0433
 1085YOPC   D2A15504   7.902   0.342   6.557  0.0781 -0.2046  0.0647
 1085YOPC   C3A15505   8.100   0.344   7.006 -0.2635  0.0842 -0.1022
 1085YOPC   C4A15506   8.559   0.392   7.336  0.0020  0.2562  0.0884
 1085YOPC   C1B15507   8.329   0.816   6.640 -0.3634  0.1308  0.0075
 1085YOPC   C2B15508   8.296   0.819   7.113 -0.1263  0.0703 -0.0940
 1085YOPC   D3B15509   8.563   0.976   7.375  0.0154  0.2070 -0.0692
 1085YOPC   C4B15510   8.826   0.751   7.636  0.5547 -0.0377  0.1597
 1086YOPC   NC315511  14.051   5.632   5.612 -0.0672  0.1738  0.1335
 1086YOPC   PO415512  14.034   5.361   5.957  0.1311 -0.2761  0.0530
 1086YOPC   GL115513  13.902   5.236   6.392 -0.0080  0.3104 -0.0977
 1086YOPC   GL215514  14.038   4.946   6.392  0.0937 -0.1286  0.2172
 1086YOPC   C1A15515  13.872   5.356   6.879  0.1468  0.3065  0.0496
 1086YOPC   D2A15516  14.001   5.680   7.111  0.0643  0.4036  0.2972
 1086YOPC   C3A15517  13.774   5.757   7.545 -0.0215 -0.3329  0.1905
 1086YOPC   C4A15518  13.756   5.423   7.880 -0.1554  0.2764 -0.0045
 1086YOPC   C1B15519  13.884   4.821   6.788  0.1660  0.3312 -0.1193
 1086YOPC   C2B15520  13.852   4.912   7.266 -0.3688  0.1912  0.3137
 1086YOPC   D3B15521  13.746   5.273   7.403  0.1110  0.2636  0.1628
 1086YOPC   C4B15522  13.512   5.557   7.096 -0.0432 -0.0183 -0.4056
 1087YOPC   NC315523  11.067   4.233   5.554  0.1367 -0.1120  0.1631
 1087YOPC   PO415524  11.515   4.275   5.762  0.2034  0.1363  0.1711
 1087YOPC   GL115525  11.462   4.275   6.228  0.1166  0.0911 -0.1642
 1087YOPC   GL215526  11.564   3.924   6.360  0.0134  0.0127 -0.1581
 1087YOPC   C1A15527  11.179   4.495   6.516  0.2160  0.0898 -0.0083
 1087YOPC   D2A15528  11.064   4.616   6.979  0.2546 -0.0396 -0.3944
 1087YOPC   C3A15529  11.356   4.492   7.140 -0.1680  0.0411 -0.0807
 1087YOPC   C4A15530  11.452   4.718   7.447 -0.2244  0.1861 -0.4519
 1087YOPC   C1B15531  11.412   4.113   6.742 -0.0933 -0.0823  0.2215
 1087YOPC   C2B15532  11.434   3.845   7.127  0.2265  0.1805  0.0117
 1087YOPC   D3B15533  11.846   3.669   7.388 -0.1531  0.1923 -0.1310
 1087YOPC   C4B15534  12.069   3.397   7.105 -0.0918  0.0830 -0.1618
 1088YOPC   NC315535  17.042  11.745   6.021  0.0414 -0.3098 -0.1689
 1088YOPC   PO415536  17.224  11.319   5.888 -0.1021  0.0682 -0.0850
 1088YOPC   GL115537  17.272  11.118   6.366  0.1629 -0.2706  0.1519
 1088YOPC   GL215538  17.132  10.838   6.372 -0.0879 -0.0016 -0.1418
 1088YOPC   C1A15539  17.443  11.317   6.691 -0.1749  0.0769 -0.0002
 1088YOPC   D2A15540  17.625  11.204   6.971 -0.0582  0.2469  0.3385
 1088YOPC   C3A15541  17.494  11.165   7.359 -0.1468  0.3143 -0.0129
 1088YOPC   C4A15542  17.245  11.188   7.657  0.1826  0.0368  0.1294
 1088YOPC   C1B15543  16.893  10.628   6.601 -0.0883 -0.1728  0.2381
 1088YOPC   C2B15544  16.916  10.542   7.046 -0.0298  0.2843  0.1161
 1088YOPC   D3B15545  16.596  10.720   7.253 -0.1577 -0.0326 -0.0510
 1088YOPC   C4B15546  16.715  10.758   7.652 -0.3409  0.0717  0.1548
 1089YOPC   NC315547   9.491  11.956   5.490 -0.0729 -0.2968  0.2305
 1089YOPC   PO415548   9.776  11.742   5.771  0.2637 -0.2432 -0.0531
 1089YOPC   GL115549   9.777  11.744   6.194  0.1198 -0.0151 -0.2046
 1089YOPC   GL215550  10.065  11.880   6.304  0.1085  0.1084  0.0380
 1089YOPC   C1A15551   9.750  11.736   6.657 -0.5240  0.1331 -0.3067
 1089YOPC   D2A15552   9.993  11.612   7.066 -0.4098 -0.0206 -0.3924
 1089YOPC   C3A15553  10.153  11.648   7.457 -0.0993 -0.3769 -0.2932
 1089YOPC   C4A15554  10.323  11.697   7.961  0.1057 -0.0843 -0.3384
 1089YOPC   C1B15555  10.097  12.177   6.592  0.3460  0.0556  0.0014
 1089YOPC   C2B15556   9.955  12.163   7.000 -0.1219  0.2332  0.1361
 1089YOPC   D3B15557  10.197  12.165   7.379 -0.2076 -0.1415 -0.3420
 1089YOPC   C4B15558  10.357  12.252   7.722  0.1074 -0.0410 -0.1422
 1090YOPC   NC315559  16.040   1.574   6.133  0.5069 -0.1793  0.0833
 1090YOPC   PO415560  16.508   1.594   6.089  0.3231 -0.2720 -0.0148
 1090YOPC   GL115561  16.570   1.860   6.432 -0.1187  0.1812  0.0139
 1090YOPC   GL215562  16.446   2.046   6.560 -0.0910  0.0378  0.2792
 1090YOPC   C1A15563  16.482   1.685   6.896  0.2242 -0.0979  0.1051
 1090YOPC   D2A15564  16.580   1.468   7.212 -0.0292 -0.0296 -0.2401
 1090YOPC   C3A15565  16.610   1.671   7.639  0.1003 -0.1815 -0.1074
 1090YOPC   C4A15566  16.844   2.112   7.841  0.4041 -0.2574 -0.0986
 1090YOPC   C1B15567  16.599   2.166   6.996 -0.1977 -0.0362 -0.2480
 1090YOPC   C2B15568  16.826   2.121   7.343 -0.1678 -0.1662 -0.1629
 1090YOPC   D3B15569  17.333   2.127   7.443  0.1868 -0.1831 -0.0363
 1090YOPC   C4B15570  17.553   1.789   7.333  0.1996 -0.0125 -0.2784
 1091YOPC   NC315571   3.172   2.836   5.985  0.1009 -0.1203 -0.0259
 1091YOPC   PO415572   3.284   3.329   6.012  0.1620  0.0684 -0.1445
 1091YOPC   GL115573   3.447   3.456   6.487  0.2146 -0.0265  0.0018
 1091YOPC   GL215574   3.721   3.273   6.437 -0.2205  0.0602 -0.2566
 1091YOPC   C1A15575   3.354   3.599   6.920  0.2674  0.2287 -0.1271
 1091YOPC   D2A15576   3.352   3.641   7.340 -0.2597  0.0034  0.3056
 1091YOPC   C3A15577   3.385   3.832   7.654 -0.0404  0.1304  0.1158
 1091YOPC   C4A15578   3.550   3.963   8.006  0.0651 -0.0094  0.1321
 1091YOPC   C1B15579   3.939   3.371   6.765  0.1837 -0.3008 -0.0703
 1091YOPC   C2B15580   3.797   3.672   7.003  0.1558 -0.1663  0.1353
 1091YOPC   D3B15581   3.989   3.852   7.337  0.1026 -0.2786  0.2122
 1091YOPC   C4B15582   4.109   3.820   7.705  0.0948  0.1674 -0.0848
 1092YOPC   NC315583   8.804   0.485   5.482  0.0385 -0.0955 -0.1275
 1092YOPC   PO415584   9.313   0.575   5.458 -0.0909  0.0258  0.1788
 1092YOPC   GL115585   9.367   0.426   5.944  0.2912  0.3538  0.3439
 1092YOPC   GL215586   9.264   0.165   5.799 -0.3808  0.0622  0.1796
 1092YOPC   C1A15587   9.533   0.275   6.353  0.2410  0.2003 -0.5806
 1092YOPC   D2A15588   9.593   0.389   6.801  0.0988 -0.1173  0.2894
 1092YOPC   C3A15589   9.544   0.156   7.218  0.1642 -0.4195 -0.0077
 1092YOPC   C4A15590   9.589  -0.128   7.572 -0.4186 -0.1133  0.1819
 1092YOPC   C1B15591   9.394  -0.135   6.146 -0.1303  0.0466 -0.0878
 1092YOPC   C2B15592   9.257  -0.188   6.470 -0.0573 -0.1619 -0.2523
 1092YOPC   D3B15593   9.569  -0.154   6.772 -0.1029  0.2176 -0.1731
 1092YOPC   C4B15594   9.974  -0.007   6.881 -0.0933  0.0431  0.2501
 1093YOPC   NC315595   0.790   2.545   6.473  0.2695 -0.0383  0.1418
 1093YOPC   PO415596   0.463   2.522   6.174 -0.2923  0.0220  0.1620
 1093YOPC   GL115597   0.331   2.472   6.609 -0.0248 -0.1204  0.5764
 1093YOPC   GL215598   0.441   2.231   6.695  0.0781  0.3418 -0.1560
 1093YOPC   C1A15599   0.352   2.569   7.079 -0.3749  0.1444 -0.0599
 1093YOPC   D2A15600   0.479   2.584   7.458 -0.1797 -0.0674  0.2865
 1093YOPC   C3A15601   0.398   2.322   7.736 -0.1238  0.0500 -0.0611
 1093YOPC   C4A15602   0.615   2.054   7.970 -0.1376  0.1132 -0.0799
 1093YOPC   C1B15603   0.056   2.217   6.899  0.0418  0.0039  0.1328
 1093YOPC   C2B15604  -0.175   2.117   7.243 -0.0015 -0.2807  0.0992
 1093YOPC   D3B15605  -0.437   2.057   7.656 -0.0319 -0.4501  0.2935
 1093YOPC   C4B15606  -0.390   2.340   7.905 -0.1956 -0.0226 -0.0652
 1094YOPC   NC315607  10.636  11.287   5.736 -0.1406  0.0296  0.1460
 1094YOPC   PO415608  10.517  11.124   6.127  0.2215 -0.2769  0.2725
 1094YOPC   GL115609  10.331  11.295   6.434  0.1074  0.2608  0.0911
 1094YOPC   GL215610  10.305  11.137   6.550  0.2431  0.0616 -0.0215
 1094YOPC   C1A15611  10.371  11.675   6.712  0.1113  0.0734 -0.1682
 1094YOPC   D2A15612  10.424  11.868   7.099  0.0629 -0.0451  0.1657
 1094YOPC   C3A15613  10.640  11.752   7.530 -0.0174 -0.0213  0.1934
 1094YOPC   C4A15614  10.798  12.131   7.747  0.0991  0.5687 -0.5591
 1094YOPC   C1B15615  10.337  11.207   6.909 -0.2630 -0.0857  0.2361
 1094YOPC   C2B15616  10.401  11.164   7.434 -0.1860  0.0864  0.1578
 1094YOPC   D3B15617  10.746  10.853   7.708  0.1723  0.0862 -0.0559
 1094YOPC   C4B15618  10.906  10.782   8.054  0.2534  0.4121 -0.1262
 1095YOPC   NC315619   9.615   6.107   5.212  0.1305  0.2061 -0.3169
 1095YOPC   PO415620   9.939   5.807   5.374  0.0465 -0.2183 -0.2188
 1095YOPC   GL115621  10.049   5.629   5.779  0.0606 -0.0769 -0.2253
 1095YOPC   GL215622  10.348   5.771   5.992  0.0123  0.0382  0.0594
 1095YOPC   C1A15623   9.697   5.680   6.190  0.2642 -0.3359  0.0883
 1095YOPC   D2A15624   9.359   5.859   6.460 -0.2113 -0.1363  0.2907
 1095YOPC   C3A15625   9.218   5.722   6.855  0.1789 -0.2267  0.0195
 1095YOPC   C4A15626   8.951   5.614   7.170 -0.1265 -0.0516  0.0334
 1095YOPC   C1B15627  10.133   5.985   6.244  0.0621 -0.1141  0.2076
 1095YOPC   C2B15628   9.925   5.916   6.555 -0.1925  0.1308 -0.1809
 1095YOPC   D3B15629   9.704   5.525   6.698 -0.1041  0.0229 -0.2201
 1095YOPC   C4B15630   9.422   5.293   6.525 -0.0128  0.0532  0.1899
 1096YOPC   NC315631  15.747   0.874   6.295 -0.2440 -0.2566 -0.1535
 1096YOPC   PO415632  15.396   0.722   6.091 -0.0091 -0.1098 -0.0705
 1096YOPC   GL115633  15.400   0.725   6.605 -0.6252 -0.0424  0.1086
 1096YOPC   GL215634  15.649   0.910   6.780 -0.0682 -0.3490  0.4312
 1096YOPC   C1A15635  15.229   0.846   7.036 -0.2447 -0.2349  0.0435
 1096YOPC   D2A15636  15.464   0.678   7.390  0.0426  0.0425  0.3856
 1096YOPC   C3A15637  15.620   0.284   7.607 -0.1729 -0.1474  0.1276
 1096YOPC   C4A15638  15.537   0.032   7.964 -0.2695 -0.1014  0.0295
 1096YOPC   C1B15639  15.954   0.839   7.147  0.1914 -0.2183 -0.2544
 1096YOPC   C2B15640  15.923   0.966   7.477 -0.2406  0.2688 -0.1589
 1096YOPC   D3B15641  15.657   0.895   7.836 -0.0068 -0.0410 -0.1455
 1096YOPC   C4B15642  15.763   1.059   8.338  0.2283 -0.0789 -0.0318
 1097YOPC   NC315643  11.369  11.361   5.416  0.1296 -0.1393 -0.1330
 1097YOPC   PO415644  11.106  11.491   5.700  0.0355  0.4600 -0.2531
 1097YOPC   GL115645  11.156  11.690   5.982 -0.0100  0.1980 -0.0523
 1097YOPC   GL215646  11.452  11.966   6.066 -0.0860 -0.0213  0.2055
 1097YOPC   C1A15647  11.119  11.769   6.452 -0.0063 -0.0696  0.1940
 1097YOPC   D2A15648  10.875  11.761   6.848 -0.1075 -0.0401 -0.2665
 1097YOPC   C3A15649  10.928  12.067   7.140  0.0427  0.2341  0.2129
 1097YOPC   C4A15650  11.180  12.149   7.503  0.5584  0.3672 -0.0669
 1097YOPC   C1B15651  11.656  11.908   6.533 -0.2554 -0.0274 -0.1244
 1097YOPC   C2B15652  11.932  11.854   6.890  0.0665  0.0633  0.1158
 1097YOPC   D3B15653  11.847  11.772   7.263  0.1152 -0.3440 -0.1129
 1097YOPC   C4B15654  11.677  11.818   7.528  0.1031 -0.0579  0.0526
 1098YOPC   NC315655  17.924   9.506   5.845 -0.1060 -0.1717 -0.3783
 1098YOPC   PO415656  18.297   9.205   5.839  0.2713 -0.0435  0.0968
 1098YOPC   GL115657  18.161   9.166   6.259  0.1161 -0.3682 -0.2872
 1098YOPC   GL215658  18.501   9.051   6.394  0.0281  0.2258  0.2697
 1098YOPC   C1A15659  18.014   8.851   6.464  0.0748 -0.0773  0.0187
 1098YOPC   D2A15660  17.795   8.644   6.743 -0.4384  0.3017  0.0629
 1098YOPC   C3A15661  17.831   8.784   7.213 -0.0282  0.2366 -0.5309
 1098YOPC   C4A15662  18.003   8.924   7.601  0.4011  0.0543  0.1359
 1098YOPC   C1B15663  18.737   9.144   6.794 -0.2745  0.0020  0.2048
 1098YOPC   C2B15664  18.980   8.918   7.081 -0.2002  0.0317 -0.1820
 1098YOPC   D3B15665  18.847   9.162   7.452  0.1643 -0.0242  0.0130
 1098YOPC   C4B15666  18.508   9.043   7.733  0.0860 -0.0818  0.1037
 1099YOPC   NC315667  10.015   9.678   5.789  0.1387 -0.1705 -0.2860
 1099YOPC   PO415668   9.937   9.342   5.964  0.1764 -0.1471  0.0417
 1099YOPC   GL115669   9.995   9.297   6.354  0.1676 -0.0848 -0.3532
 1099YOPC   GL215670   9.936   8.956   6.389  0.0428 -0.1643  0.0947
 1099YOPC   C1A15671   9.984   9.233   6.794  0.0770 -0.0122 -0.1868
 1099YOPC   D2A15672   9.731   9.428   7.215 -0.1447  0.2001 -0.1444
 1099YOPC   C3A15673   9.744   9.191   7.670  0.0259  0.0999 -0.1039
 1099YOPC   C4A15674   9.753   9.361   8.032  0.1657  0.1037  0.3586
 1099YOPC   C1B15675  10.405   9.092   6.510 -0.1598  0.1460 -0.1781
 1099YOPC   C2B15676  10.508   9.475   6.712  0.3482 -0.1996  0.0476
 1099YOPC   D3B15677  10.402   9.484   7.064 -0.2059 -0.0602 -0.0286
 1099YOPC   C4B15678  10.198   9.364   7.282 -0.4418 -0.2518 -0.0064
 1100YOPC   NC315679   8.558  11.026   5.991  0.2506  0.2584 -0.0866
 1100YOPC   PO415680   8.203  11.090   6.259  0.1409  0.1676 -0.0890
 1100YOPC   GL115681   8.103  11.359   6.599 -0.0239  0.0901  0.3156
 1100YOPC   GL215682   7.812  11.284   6.692 -0.1876  0.0143 -0.1353
 1100YOPC   C1A15683   8.101  11.506   7.033 -0.0114 -0.1696 -0.0723
 1100YOPC   D2A15684   8.099  11.674   7.396 -0.2802 -0.0315 -0.3661
 1100YOPC   C3A15685   7.691  11.590   7.658 -0.1617  0.0724  0.1848
 1100YOPC   C4A15686   7.554  11.689   8.015  0.2990 -0.2217  0.1826
 1100YOPC   C1B15687   7.445  10.946   6.735 -0.0897 -0.0890 -0.1914
 1100YOPC   C2B15688   7.258  10.665   6.991  0.1774  0.1292  0.2973
 1100YOPC   D3B15689   7.336  10.587   7.412 -0.0485 -0.1254  0.1887
 1100YOPC   C4B15690   7.501  10.119   7.506 -0.3024 -0.0517  0.1358
 1101YOPC   NC315691  16.939   3.155   5.735  0.1810 -0.0591  0.2919
 1101YOPC   PO415692  16.705   3.034   6.091  0.2783  0.0740 -0.3137
 1101YOPC   GL115693  16.846   3.013   6.523  0.2513 -0.3565 -0.3191
 1101YOPC   GL215694  17.096   3.387   6.490 -0.1972 -0.1827  0.0390
 1101YOPC   C1A15695  16.712   3.232   6.894 -0.1770 -0.0338  0.0627
 1101YOPC   D2A15696  16.457   3.228   7.172  0.0903  0.0007  0.0519
 1101YOPC   C3A15697  16.546   3.099   7.470 -0.0441  0.0896  0.0247
 1101YOPC   C4A15698  16.815   3.136   7.788 -0.1776  0.1033  0.1833
 1101YOPC   C1B15699  17.150   3.396   6.938 -0.1041  0.0758 -0.0465
 1101YOPC   C2B15700  17.464   3.126   7.139  0.1920 -0.1654 -0.2238
 1101YOPC   D3B15701  17.676   2.767   6.931  0.2154 -0.0809  0.0265
 1101YOPC   C4B15702  18.028   2.640   7.076  0.1813  0.1801 -0.0183
 1102YOPC   NC315703  14.581  11.697   5.628  0.3125 -0.1209  0.2497
 1102YOPC   PO415704  14.083  11.700   5.777  0.1311  0.2271 -0.0974
 1102YOPC   GL115705  14.059  12.061   6.039 -0.2833 -0.1269  0.3667
 1102YOPC   GL215706  13.856  12.313   6.162 -0.1141 -0.0263 -0.0287
 1102YOPC   C1A15707  14.276  11.941   6.403 -0.2370 -0.0159  0.2837
 1102YOPC   D2A15708  14.444  11.880   6.812 -0.0953  0.1421 -0.2444
 1102YOPC   C3A15709  14.445  11.682   7.151  0.1356 -0.3086 -0.4708
 1102YOPC   C4A15710  14.337  11.489   7.454 -0.2515 -0.0475  0.1762
 1102YOPC   C1B15711  13.931  12.239   6.543 -0.2512 -0.1125 -0.1153
 1102YOPC   C2B15712  13.960  11.977   6.905 -0.0539  0.0117 -0.0202
 1102YOPC   D3B15713  14.025  11.543   6.755  0.0567 -0.2224 -0.0691
 1102YOPC   C4B15714  14.261  11.171   6.728 -0.1550  0.0353  0.2505
 1103YOPC   NC315715   3.775  14.769   5.289 -0.3538 -0.1533  0.1016
 1103YOPC   PO415716   3.501  14.980   5.611 -0.0725 -0.0680 -0.1517
 1103YOPC   GL115717   3.548  14.770   5.946 -0.1137 -0.0932 -0.0785
 1103YOPC   GL215718   3.466  14.939   6.147 -0.0936  0.0600  0.0210
 1103YOPC   C1A15719   3.586  14.358   6.174  0.0975  0.2514  0.1578
 1103YOPC   D2A15720   3.543  14.260   6.608 -0.2056 -0.1847  0.2370
 1103YOPC   C3A15721   3.703  14.213   7.107 -0.0633  0.1168  0.0615
 1103YOPC   C4A15722   4.114  14.142   7.445  0.1313 -0.2001 -0.1626
 1103YOPC   C1B15723   3.670  15.218   6.504  0.0904  0.0527 -0.0719
 1103YOPC   C2B15724   3.475  15.283   6.904 -0.2584  0.2973  0.1099
 1103YOPC   D3B15725   3.669  15.087   7.268 -0.0970 -0.0748  0.0452
 1103YOPC   C4B15726   3.639  14.919   7.714 -0.1809 -0.0378  0.3927
 1104YOPC   NC315727   7.505   2.507   5.301 -0.0080 -0.4262 -0.0182
 1104YOPC   PO415728   7.437   2.068   5.329 -0.2267 -0.0706  0.4467
 1104YOPC   GL115729   7.281   2.142   5.720  0.1191  0.2688  0.4123
 1104YOPC   GL215730   6.977   1.939   5.882 -0.1081 -0.3450  0.0470
 1104YOPC   C1A15731   7.041   2.511   5.882  0.1923  0.1655  0.0491
 1104YOPC   D2A15732   6.828   2.878   6.085  0.0721 -0.1001 -0.2926
 1104YOPC   C3A15733   6.731   2.823   6.418  0.3022 -0.1586  0.2138
 1104YOPC   C4A15734   6.899   3.246   6.596 -0.0405 -0.3090  0.4610
 1104YOPC   C1B15735   7.124   2.195   6.215  0.0585 -0.1717  0.0232
 1104YOPC   C2B15736   7.147   2.476   6.565 -0.1853  0.1381  0.1218
 1104YOPC   D3B15737   7.410   2.404   6.867 -0.0445 -0.0873  0.2120
 1104YOPC   C4B15738   7.753   2.704   6.970 -0.0437 -0.4395  0.1123
 1105YOPC   NC315739  10.406  16.522   5.711  0.0939  0.3085  0.2278
 1105YOPC   PO415740  10.700  16.145   5.884 -0.0914 -0.1038 -0.2398
 1105YOPC   GL115741  10.835  16.052   6.228  0.3225  0.1699  0.1819
 1105YOPC   GL215742  11.083  15.733   6.122  0.2479 -0.2762 -0.3667
 1105YOPC   C1A15743  10.920  16.092   6.640 -0.0722  0.1971  0.1280
 1105YOPC   D2A15744  10.859  16.415   6.958  0.1108  0.1231  0.1299
 1105YOPC   C3A15745  10.455  16.761   6.939 -0.0001  0.3157  0.1066
 1105YOPC   C4A15746  10.243  16.805   6.527  0.1699 -0.0095 -0.4007
 1105YOPC   C1B15747  11.381  15.796   6.513 -0.0356  0.1363  0.1622
 1105YOPC   C2B15748  11.676  15.711   6.765 -0.0205 -0.0464 -0.3429
 1105YOPC   D3B15749  11.641  15.837   7.152 -0.0576  0.2685  0.0980
 1105YOPC   C4B15750  11.720  15.704   7.522  0.0933 -0.0253 -0.1380
 1106YOPC   NC315751   6.232  17.829   6.074 -0.0942  0.0221  0.1883
 1106YOPC   PO415752   5.873  18.105   6.080 -0.1483 -0.0096 -0.0596
 1106YOPC   GL115753   5.981  18.267   6.493  0.2762  0.0168  0.0131
 1106YOPC   GL215754   6.155  18.481   6.442 -0.1953  0.2291 -0.0305
 1106YOPC   C1A15755   6.122  18.132   6.881  0.0922  0.2825 -0.0282
 1106YOPC   D2A15756   6.460  17.912   7.092  0.0572 -0.3505  0.0744
 1106YOPC   C3A15757   6.283  17.789   7.549 -0.1214 -0.0717 -0.0816
 1106YOPC   C4A15758   6.105  17.737   7.908 -0.0368 -0.2867  0.0177
 1106YOPC   C1B15759   5.963  18.829   6.706 -0.0270  0.0094 -0.3022
 1106YOPC   C2B15760   5.741  19.036   7.005 -0.0430  0.4558  0.3052
 1106YOPC   D3B15761   5.597  19.120   7.453 -0.3017  0.3196 -0.0272
 1106YOPC   C4B15762   5.619  19.344   7.907  0.1130  0.2728 -0.0081
 1107YOPC   NC315763   9.462   5.657   5.511  0.1775  0.2095 -0.2754
 1107YOPC   PO415764   9.426   5.958   5.718  0.1283  0.0366  0.2548
 1107YOPC   GL115765   9.429   6.275   6.098 -0.1659 -0.1011 -0.0697
 1107YOPC   GL215766   9.685   6.434   6.167  0.0707  0.0397  0.4433
 1107YOPC   C1A15767   9.436   6.357   6.599  0.1677 -0.2399 -0.5721
 1107YOPC   D2A15768   9.734   6.176   6.886  0.0841 -0.2151  0.0698
 1107YOPC   C3A15769   9.706   6.467   7.224 -0.1434 -0.0554  0.1715
 1107YOPC   C4A15770   9.453   6.700   7.486  0.0328 -0.0710  0.1578
 1107YOPC   C1B15771   9.990   6.434   6.481  0.2358  0.1222  0.0717
 1107YOPC   C2B15772  10.304   6.241   6.703 -0.3544 -0.2060  0.1196
 1107YOPC   D3B15773  10.204   6.280   7.142  0.1080 -0.3917  0.0605
 1107YOPC   C4B15774  10.171   5.883   7.446  0.2755 -0.0189 -0.0893
 1108YOPC   NC315775   2.305  16.356   5.951  0.1995 -0.0682  0.1795
 1108YOPC   PO415776   2.727  16.391   5.854  0.4080 -0.0071  0.1713
 1108YOPC   GL115777   2.667  16.532   6.261 -0.0730  0.0976 -0.0179
 1108YOPC   GL215778   2.874  16.391   6.470  0.2211  0.0911  0.2768
 1108YOPC   C1A15779   2.354  16.820   6.418 -0.0442  0.4269 -0.1959
 1108YOPC   D2A15780   2.049  17.154   6.318 -0.0048 -0.0850 -0.2803
 1108YOPC   C3A15781   1.658  17.043   6.441 -0.2211 -0.1035 -0.0471
 1108YOPC   C4A15782   1.365  16.939   6.813 -0.4884 -0.1537  0.0355
 1108YOPC   C1B15783   2.935  16.182   6.864 -0.2172 -0.0238  0.2256
 1108YOPC   C2B15784   3.164  16.057   7.020 -0.1429 -0.0005  0.0663
 1108YOPC   D3B15785   3.109  15.810   7.356 -0.3650  0.0511  0.0937
 1108YOPC   C4B15786   3.050  15.709   7.730 -0.1797 -0.3118 -0.0488
 1109YOPC   NC315787   9.882   3.502   5.045 -0.1831 -0.2698 -0.0988
 1109YOPC   PO415788   9.756   3.245   5.437 -0.1376  0.1490 -0.0811
 1109YOPC   GL115789   9.551   3.330   5.888  0.1061 -0.1611 -0.0594
 1109YOPC   GL215790   9.244   3.226   6.086  0.0712 -0.1903 -0.1418
 1109YOPC   C1A15791   9.678   3.346   6.416  0.3543 -0.0045  0.0096
 1109YOPC   D2A15792   9.517   3.308   6.873 -0.0652 -0.2954 -0.2440
 1109YOPC   C3A15793   9.482   3.125   7.257  0.1087  0.0990  0.1385
 1109YOPC   C4A15794   9.344   3.141   7.704 -0.0891  0.0195  0.0857
 1109YOPC   C1B15795   9.250   3.508   6.480  0.1286  0.1720 -0.1458
 1109YOPC   C2B15796   9.352   3.839   6.764 -0.0965  0.0485  0.3056
 1109YOPC   D3B15797   9.777   3.772   6.872  0.3511  0.1263  0.1193
 1109YOPC   C4B15798   9.961   3.967   7.180 -0.2710  0.1033 -0.0589
 1110YOPC   NC315799   7.266  12.751   6.226  0.3344 -0.1140 -0.2078
 1110YOPC   PO415800   7.715  12.662   6.209 -0.0832 -0.0802  0.0349
 1110YOPC   GL115801   7.893  13.004   6.397  0.3210  0.0799 -0.1217
 1110YOPC   GL215802   7.684  12.987   6.619 -0.0914 -0.3359 -0.1385
 1110YOPC   C1A15803   8.021  13.441   6.737  0.0572  0.2291 -0.1120
 1110YOPC   D2A15804   7.720  13.573   7.011 -0.0543 -0.3171  0.2812
 1110YOPC   C3A15805   7.651  13.372   7.435  0.1134  0.0727  0.2115
 1110YOPC   C4A15806   7.492  12.935   7.572 -0.1348  0.1552  0.1950
 1110YOPC   C1B15807   7.800  13.116   7.020  0.1273 -0.1470  0.1586
 1110YOPC   C2B15808   8.098  13.150   7.234 -0.0819 -0.3119 -0.1859
 1110YOPC   D3B15809   8.313  12.827   7.305  0.1679 -0.1060  0.0343
 1110YOPC   C4B15810   8.307  12.406   7.322  0.0803  0.0844 -0.2607
 1111YOPC   NC315811  15.242   3.713   5.716 -0.0449 -0.1675  0.0358
 1111YOPC   PO415812  14.929   3.933   5.959 -0.0947 -0.0495  0.0537
 1111YOPC   GL115813  14.988   3.581   6.233 -0.1159  0.0378  0.3343
 1111YOPC   GL215814  15.356   3.497   6.253 -0.0982  0.0826  0.2232
 1111YOPC   C1A15815  15.133   3.388   6.657 -0.2081 -0.2062 -0.2657
 1111YOPC   D2A15816  15.266   3.099   6.967 -0.0810  0.3724 -0.0965
 1111YOPC   C3A15817  15.342   3.069   7.386  0.0744 -0.1588  0.2611
 1111YOPC   C4A15818  15.091   3.344   7.660  0.3135  0.2236 -0.0277
 1111YOPC   C1B15819  15.404   3.863   6.512  0.0377 -0.2861  0.1186
 1111YOPC   C2B15820  15.136   4.146   6.688  0.2802 -0.2289  0.0056
 1111YOPC   D3B15821  15.203   4.381   6.929  0.0133 -0.0463  0.0037
 1111YOPC   C4B15822  15.375   4.428   7.402  0.1442 -0.0240 -0.1974
 1112YOPC   NC315823   9.678  12.307   6.059 -0.3302  0.0127 -0.0452
 1112YOPC   PO415824   9.941  12.657   5.907 -0.1645 -0.1690  0.2235
 1112YOPC   GL115825   9.986  12.721   6.315  0.1653  0.3587  0.1352
 1112YOPC   GL215826   9.746  13.022   6.353  0.0101  0.2246  0.1374
 1112YOPC   C1A15827   9.895  12.650   6.748  0.1066  0.2232 -0.0081
 1112YOPC   D2A15828   9.877  12.819   7.168 -0.1226 -0.0672 -0.1229
 1112YOPC   C3A15829   9.785  12.583   7.560  0.0160 -0.1945 -0.2160
 1112YOPC   C4A15830   9.674  12.426   7.922  0.3931 -0.4071  0.2752
 1112YOPC   C1B15831   9.482  13.118   6.770 -0.1567 -0.1395  0.1693
 1112YOPC   C2B15832   9.410  13.268   7.288 -0.0814 -0.1193 -0.2372
 1112YOPC   D3B15833   9.373  13.493   7.662 -0.0502  0.1483 -0.1393
 1112YOPC   C4B15834   9.216  13.885   7.593 -0.1643  0.1433 -0.2802
 1113YOPC   NC315835   2.915   5.478   5.485 -0.1218 -0.2477  0.0354
 1113YOPC   PO415836   2.712   5.787   5.824  0.3809 -0.0223 -0.3297
 1113YOPC   GL115837   2.879   5.752   6.312 -0.0350  0.1889  0.1668
 1113YOPC   GL215838   2.580   5.642   6.349  0.3240  0.1577  0.0915
 1113YOPC   C1A15839   2.942   5.761   6.807  0.0947 -0.0977 -0.2548
 1113YOPC   D2A15840   3.092   5.872   7.258 -0.1207 -0.0112  0.1315
 1113YOPC   C3A15841   2.862   5.818   7.640  0.1204  0.1250 -0.1777
 1113YOPC   C4A15842   2.868   6.029   8.047 -0.1440 -0.0478  0.1739
 1113YOPC   C1B15843   2.258   5.859   6.529 -0.0963 -0.1217  0.0236
 1113YOPC   C2B15844   2.393   6.289   6.798 -0.1984  0.2715  0.1904
 1113YOPC   D3B15845   2.076   6.410   7.067  0.0346 -0.0540 -0.2509
 1113YOPC   C4B15846   1.765   6.679   7.320 -0.0220  0.1735 -0.0025
 1114YOPC   NC315847  11.916   0.407   5.110  0.2393  0.0075 -0.0091
 1114YOPC   PO415848  11.955   0.475   5.554  0.1931 -0.0151 -0.4214
 1114YOPC   GL115849  12.037   0.463   5.931  0.4783  0.0630 -0.4691
 1114YOPC   GL215850  12.019   0.763   6.037  0.0019  0.0108  0.2133
 1114YOPC   C1A15851  11.949   0.220   6.294 -0.1815 -0.1478 -0.0799
 1114YOPC   D2A15852  11.771  -0.086   6.661 -0.0952 -0.0015 -0.1922
 1114YOPC   C3A15853  11.650  -0.130   7.002  0.0092 -0.2003 -0.2633
 1114YOPC   C4A15854  11.527  -0.197   7.507 -0.0104 -0.4208 -0.4612
 1114YOPC   C1B15855  11.871   0.772   6.416 -0.1483  0.1349 -0.0542
 1114YOPC   C2B15856  11.608   0.791   6.767 -0.1500  0.0840 -0.1689
 1114YOPC   D3B15857  11.670   1.098   7.143 -0.0487  0.2390 -0.2565
 1114YOPC   C4B15858  12.035   1.185   7.454  0.3846  0.0288 -0.2908
 1115ERGO   ROH15859  11.567  11.485   6.305 -0.0272 -0.2438 -0.1786
 1115ERGO    R115860  11.449  11.390   6.544  0.1331 -0.1324 -0.0526
 1115ERGO    R215861  11.561  11.434   6.793  0.2685  0.0423 -0.1367
 1115ERGO    R315862  11.316  11.537   6.850  0.2762  0.0185 -0.0638
 1115ERGO    R415863  11.448  11.507   7.111  0.2682 -0.1562 -0.0905
 1115ERGO    R515864  11.252  11.428   7.053  0.2687 -0.1056 -0.1371
 1115ERGO    C115865  11.151  11.646   7.350  0.2752 -0.2942  0.0050
 1115ERGO    C215866  11.163  11.675   7.673 -0.0278 -0.0094 -0.4123
 1116ERGO   ROH15867   9.159  11.514   6.668  0.1986  0.0326 -0.1019
 1116ERGO    R115868   9.365  11.426   6.841  0.1327 -0.0367 -0.0570
 1116ERGO    R215869   9.468  11.584   7.043  0.1776 -0.0514 -0.0631
 1116ERGO    R315870   9.405  11.370   7.198  0.0508  0.0014 -0.0429
 1116ERGO    R415871   9.551  11.551   7.377  0.0794 -0.0360 -0.0377
 1116ERGO    R515872   9.596  11.341   7.340  0.0001 -0.0573  0.0092
 1116ERGO    C115873   9.539  11.332   7.717 -0.0969  0.0225 -0.0039
 1116ERGO    C215874   9.749  11.462   7.918  0.1566 -0.2229  0.2248
 1117ERGO   ROH15875  15.122  17.500   6.330  0.2277 -0.1312 -0.0867
 1117ERGO    R115876  14.942  17.497   6.548  0.1410 -0.0041 -0.1548
 1117ERGO    R215877  14.965  17.318   6.758 -0.0853 -0.0446 -0.1612
 1117ERGO    R315878  14.963  17.544   6.908  0.0443 -0.0552 -0.1423
 1117ERGO    R415879  14.921  17.327   7.100  0.1246 -0.0613 -0.1321
 1117ERGO    R515880  14.796  17.503   7.074  0.1383 -0.0386 -0.0428
 1117ERGO    C115881  14.892  17.545   7.441  0.3688 -0.0809 -0.0974
 1117ERGO    C215882  14.874  17.591   7.770 -0.3121  0.0329 -0.2301
 1118ERGO   ROH15883   3.884   3.724   6.267 -0.1765 -0.2931  0.2715
 1118ERGO    R115884   3.879   3.807   6.537 -0.0176 -0.1523  0.2327
 1118ERGO    R215885   4.104   3.897   6.670  0.0318  0.0511  0.0130
 1118ERGO    R315886   3.947   4.113   6.721 -0.0554 -0.0131  0.0183
 1118ERGO    R415887   4.174   4.142   6.903 -0.1825 -0.0494  0.1863
 1118ERGO    R515888   3.963   4.144   6.958 -0.2208 -0.1291  0.0472
 1118ERGO    C115889   4.066   4.487   7.088 -0.3891 -0.1680  0.2920
 1118ERGO    C215890   4.054   4.620   7.403 -0.2839  0.2150  0.1771
 1119ERGO   ROH15891  16.248  11.095   6.440  0.1608  0.0903  0.0899
 1119ERGO    R115892  16.343  11.160   6.698  0.1756  0.0241  0.1029
 1119ERGO    R215893  16.201  11.321   6.873  0.2511  0.1073  0.0992
 1119ERGO    R315894  16.233  11.110   7.041  0.1067  0.0762  0.0866
 1119ERGO    R415895  16.239  11.346   7.215  0.3720  0.0567  0.0892
 1119ERGO    R515896  16.389  11.188   7.206  0.2214 -0.0760  0.0447
 1119ERGO    C115897  16.290  11.163   7.573  0.3066 -0.0019  0.0716
 1119ERGO    C215898  16.397  11.155   7.857 -0.1338  0.0279  0.0446
 1120ERGO   ROH15899  13.970  14.829   6.727  0.0805 -0.0009  0.1585
 1120ERGO    R115900  13.867  14.882   6.985  0.0169 -0.0049  0.1348
 1120ERGO    R215901  13.718  15.107   7.044  0.0332  0.0134  0.1125
 1120ERGO    R315902  13.538  14.926   7.135 -0.0177  0.0332  0.0476
 1120ERGO    R415903  13.434  15.184   7.224  0.0125  0.0334  0.0703
 1120ERGO    R515904  13.471  15.010   7.349 -0.0443  0.0079  0.0469
 1120ERGO    C115905  13.099  15.058   7.415 -0.0472  0.0634 -0.0153
 1120ERGO    C215906  12.819  15.205   7.494  0.0039  0.1885  0.2349
 1121ERGO   ROH15907  16.850  13.760   6.643 -0.0540 -0.0584  0.0806
 1121ERGO    R115908  16.861  13.648   6.903  0.3819 -0.0197  0.0832
 1121ERGO    R215909  16.712  13.427   6.976  0.2178  0.2202  0.4636
 1121ERGO    R315910  16.955  13.328   7.048  0.2511 -0.1321 -0.0688
 1121ERGO    R415911  16.761  13.159   7.189  0.2797  0.1579  0.3742
 1121ERGO    R515912  16.929  13.267   7.278  0.6556 -0.0713  0.0100
 1121ERGO    C115913  17.018  12.910   7.381  0.3470 -0.2090 -0.1776
 1121ERGO    C215914  16.883  12.622   7.536 -0.0369  0.1551  0.1293
 1122ERGO   ROH15915  14.023  10.065   6.405  0.1514 -0.1038  0.1451
 1122ERGO    R115916  13.905  10.167   6.641  0.1507 -0.1524  0.1661
 1122ERGO    R215917  13.633  10.154   6.689  0.1095  0.1073  0.0246
 1122ERGO    R315918  13.713  10.033   6.920 -0.1301 -0.1566 -0.0254
 1122ERGO    R415919  13.465  10.174   6.991  0.1527  0.3352  0.0351
 1122ERGO    R515920  13.658  10.191   7.091  0.2005 -0.1050  0.0396
 1122ERGO    C115921  13.442  10.072   7.382 -0.0470  0.2203 -0.0056
 1122ERGO    C215922  13.380  10.069   7.666  0.1572  0.0753 -0.0380
 1123ERGO   ROH15923   5.120   9.215  10.190  0.0861 -0.2006  0.0105
 1123ERGO    R115924   5.226   9.177   9.930  0.1024 -0.1804  0.0149
 1123ERGO    R215925   5.197   8.940   9.791 -0.1134 -0.0809 -0.1075
 1123ERGO    R315926   5.095   9.102   9.599  0.0965  0.1205 -0.0548
 1123ERGO    R415927   5.223   8.884   9.451 -0.4219 -0.1668 -0.1200
 1123ERGO    R515928   5.258   9.097   9.424 -0.0039 -0.2255 -0.1515
 1123ERGO    C115929   5.142   9.004   9.073 -0.4044 -0.0277 -0.0779
 1123ERGO    C215930   5.041   8.976   8.724 -0.1329 -0.2648  0.3261
 1124ERGO   ROH15931  13.248   6.559   9.949  0.4119 -0.1044  0.1839
 1124ERGO    R115932  13.376   6.549   9.697  0.1884 -0.0595  0.0658
 1124ERGO    R215933  13.341   6.339   9.520  0.0561 -0.0445  0.0703
 1124ERGO    R315934  13.273   6.538   9.348 -0.1241 -0.0324  0.1553
 1124ERGO    R415935  13.420   6.346   9.183 -0.0727  0.1053  0.0427
 1124ERGO    R515936  13.461   6.559   9.202 -0.1910  0.1230  0.0908
 1124ERGO    C115937  13.400   6.537   8.826 -0.3170  0.2038  0.1064
 1124ERGO    C215938  13.372   6.406   8.523  0.4248  0.2837 -0.3722
 1125ERGO   ROH15939  14.226  15.336   9.970 -0.1069 -0.1505 -0.0639
 1125ERGO    R115940  14.232  15.444   9.709 -0.1675 -0.1678 -0.0716
 1125ERGO    R215941  14.460  15.443   9.553 -0.1662 -0.0438 -0.0636
 1125ERGO    R315942  14.297  15.321   9.373 -0.0880 -0.1546 -0.0625
 1125ERGO    R415943  14.492  15.466   9.209 -0.1355 -0.0819 -0.0645
 1125ERGO    R515944  14.275  15.480   9.195 -0.1448 -0.1900 -0.0914
 1125ERGO    C115945  14.358  15.365   8.841 -0.0440 -0.2082 -0.0639
 1125ERGO    C215946  14.278  15.366   8.492  0.0267 -0.1024 -0.0460
 1126ERGO   ROH15947  17.048  18.037   6.623 -0.2004 -0.2340  0.0480
 1126ERGO    R115948  17.090  17.908   6.872 -0.1913 -0.1196  0.1053
 1126ERGO    R215949  17.284  17.991   7.051 -0.0935 -0.1231 -0.0039
 1126ERGO    R315950  17.073  18.000   7.223 -0.0326  0.0807  0.0635
 1126ERGO    R415951  17.310  17.984   7.396  0.0138 -0.2435 -0.0127
 1126ERGO    R515952  17.135  17.853   7.402 -0.1446 -0.0442  0.0056
 1126ERGO    C115953  17.127  17.989   7.758  0.1334 -0.1224  0.0454
 1126ERGO    C215954  16.957  18.215   7.919  0.1292 -0.0019  0.2006
 1127ERGO   ROH15955  16.974  16.767   6.519  0.0005 -0.0804  0.0092
 1127ERGO    R115956  16.881  16.715   6.782  0.0058 -0.0518  0.0182
 1127ERGO    R215957  16.841  16.459   6.878 -0.0459 -0.0486  0.0329
 1127ERGO    R315958  17.006  16.543   7.077 -0.0079 -0.0706  0.0088
 1127ERGO    R415959  16.879  16.303   7.184  0.0757 -0.0962 -0.0066
 1127ERGO    R515960  16.885  16.499   7.278  0.0693 -0.1293  0.0316
 1127ERGO    C115961  17.055  16.291   7.549  0.1821 -0.1448 -0.0522
 1127ERGO    C215962  17.083  16.164   7.910  0.0377  0.2797  0.1072
 1128ERGO   ROH15963  14.749  11.300   6.578  0.2553 -0.0305 -0.0763
 1128ERGO    R115964  14.791  11.319   6.857  0.1879 -0.0593 -0.0647
 1128ERGO    R215965  14.612  11.218   7.042  0.1320 -0.0507 -0.1211
 1128ERGO    R315966  14.832  11.087   7.134  0.0907 -0.0857 -0.0702
 1128ERGO    R415967  14.646  11.092   7.362  0.0854  0.0781 -0.0643
 1128ERGO    R515968  14.853  11.160   7.361  0.1148  0.0104 -0.0984
 1128ERGO    C115969  14.871  10.895   7.635  0.0196  0.1201  0.0166
 1128ERGO    C215970  15.014  10.710   7.856 -0.1829 -0.0174  0.1206
 1129ERGO   ROH15971   3.785  18.164  10.059 -0.0511 -0.0936 -0.1155
 1129ERGO    R115972   3.729  18.248   9.795  0.0748 -0.0288 -0.1217
 1129ERGO    R215973   3.926  18.276   9.602  0.1427 -0.1487 -0.0664
 1129ERGO    R315974   3.765  18.109   9.461  0.0616 -0.0215 -0.1271
 1129ERGO    R415975   3.856  18.307   9.265  0.2367 -0.0451 -0.0777
 1129ERGO    R515976   3.650  18.252   9.308  0.1880  0.0830 -0.1297
 1129ERGO    C115977   3.664  18.168   8.936  0.2153  0.1343 -0.1411
 1129ERGO    C215978   3.836  18.149   8.703 -0.0752 -0.2374  0.2831
 1130ERGO   ROH15979  17.548   1.418   8.695 -0.0870 -0.0012  0.0372
 1130ERGO    R115980  17.513   1.532   8.952 -0.0566  0.0183  0.0335
 1130ERGO    R215981  17.370   1.406   9.152 -0.0809  0.0578  0.0448
 1130ERGO    R315982  17.599   1.442   9.294 -0.0685  0.0137  0.0346
 1130ERGO    R415983  17.387   1.427   9.496 -0.0369 -0.1267  0.0539
 1130ERGO    R515984  17.535   1.586   9.474 -0.0641 -0.0946  0.1212
 1130ERGO    C115985  17.612   1.473   9.830  0.0004 -0.2755  0.0498
 1130ERGO    C215986  17.704   1.380  10.207 -0.0161 -0.1052 -0.0031
 1131ERGO   ROH15987  11.866  10.147   6.218  0.1057  0.0371  0.0980
 1131ERGO    R115988  11.836   9.933   6.401 -0.0516  0.0484  0.0864
 1131ERGO    R215989  12.050   9.821   6.535 -0.1296 -0.1407  0.0519
 1131ERGO    R315990  11.901   9.878   6.755 -0.0555 -0.0326  0.0753
 1131ERGO    R415991  12.150   9.767   6.861 -0.1585 -0.3266  0.0312
 1131ERGO    R515992  11.948   9.699   6.907 -0.2323 -0.1238  0.0291
 1131ERGO    C115993  12.069   9.789   7.258 -0.1059 -0.3333  0.0412
 1131ERGO    C215994  12.191   9.724   7.557 -0.3839  0.1068  0.0158
 1132ERGO   ROH15995  10.558  10.675   6.395  0.1486  0.2130  0.0507
 1132ERGO    R115996  10.710  10.635   6.630  0.1292  0.2195  0.0645
 1132ERGO    R215997  10.703  10.811   6.843  0.1331  0.2404  0.0475
 1132ERGO    R315998  10.643  10.586   6.984  0.1010  0.2598  0.0649
 1132ERGO    R415999  10.561  10.807   7.158 -0.0106  0.2831 -0.0164
 1132ERGO    R516000  10.694  10.643   7.211 -0.0109  0.3126  0.0773
 1132ERGO    C116001  10.421  10.594   7.474 -0.1245  0.3262 -0.0371
 1132ERGO    C216002  10.127  10.730   7.674  0.2402 -0.0773 -0.1555
 1133ERGO   ROH16003  11.451   5.642   6.259 -0.1946  0.0080  0.0514
 1133ERGO    R116004  11.575   5.636   6.513 -0.1736 -0.0121  0.0423
 1133ERGO    R216005  11.447   5.720   6.744 -0.1656 -0.0480  0.0698
 1133ERGO    R316006  11.515   5.473   6.833 -0.1403 -0.0560  0.0231
 1133ERGO    R416007  11.522   5.640   7.072 -0.0499 -0.0988  0.0302
 1133ERGO    R516008  11.682   5.512   6.999 -0.0860 -0.0893 -0.0342
 1133ERGO    C116009  11.630   5.361   7.345  0.0413 -0.1360 -0.0367
 1133ERGO    C216010  11.408   5.307   7.562  0.0859 -0.2355  0.1759
 1134ERGO   ROH16011  10.967   0.628   9.811 -0.0845 -0.0404 -0.0112
 1134ERGO    R116012  11.130   0.543   9.596 -0.0532 -0.0734  0.0252
 1134ERGO    R216013  11.055   0.339   9.424 -0.0720 -0.0354 -0.0134
 1134ERGO    R316014  11.101   0.527   9.233  0.0390 -0.0323  0.0164
 1134ERGO    R416015  11.079   0.277   9.085  0.0509 -0.0157 -0.0086
 1134ERGO    R516016  11.243   0.418   9.075  0.0808 -0.0470  0.0652
 1134ERGO    C116017  11.137   0.417   8.709  0.2267 -0.0012  0.0221
 1134ERGO    C216018  11.119   0.459   8.389 -0.3479 -0.3113 -0.0297
 1135ERGO   ROH16019   6.170  17.136   6.455 -0.0462 -0.0932 -0.0130
 1135ERGO    R116020   5.931  17.145   6.607 -0.0548 -0.1033 -0.0252
 1135ERGO    R216021   5.931  17.144   6.883 -0.0676 -0.0672 -0.0236
 1135ERGO    R316022   5.783  17.370   6.852 -0.0935 -0.0896 -0.0615
 1135ERGO    R416023   5.695  17.257   7.109  0.0842  0.0680  0.0693
 1135ERGO    R516024   5.568  17.311   6.941 -0.0325 -0.0398  0.1227
 1135ERGO    C116025   5.418  17.534   7.212  0.1482  0.1259  0.0878
 1135ERGO    C216026   5.392  17.777   7.544 -0.0775 -0.0194 -0.1683
 1136ERGO   ROH16027   2.591   4.650   6.553 -0.0489  0.0120  0.0239
 1136ERGO    R116028   2.629   4.695   6.830 -0.2198 -0.1708  0.0803
 1136ERGO    R216029   2.686   4.944   6.935  0.2431 -0.3156  0.2188
 1136ERGO    R316030   2.470   4.892   7.091 -0.0452  0.1048 -0.0207
 1136ERGO    R416031   2.627   5.086   7.244  0.0712 -0.1001  0.0905
 1136ERGO    R516032   2.556   4.892   7.314 -0.3341  0.0494  0.0878
 1136ERGO    C116033   2.390   5.119   7.571 -0.2995  0.4199 -0.2091
 1136ERGO    C216034   2.489   5.334   7.787 -0.0108 -0.3239 -0.1563
 1137ERGO   ROH16035  13.910  12.437  10.006 -0.0570  0.1653  0.1648
 1137ERGO    R116036  13.909  12.551   9.747 -0.0208  0.0670  0.1212
 1137ERGO    R216037  14.094  12.483   9.553  0.0380  0.0331  0.1918
 1137ERGO    R316038  13.872  12.431   9.405  0.0845 -0.0690  0.1562
 1137ERGO    R416039  14.075  12.512   9.209  0.0735  0.0525  0.1908
 1137ERGO    R516040  13.875  12.597   9.232  0.0246 -0.0510  0.1703
 1137ERGO    C116041  13.855  12.480   8.870  0.1378 -0.0321  0.1570
 1137ERGO    C216042  13.833  12.295   8.563  0.0127  0.0231  0.0965
 1138ERGO   ROH16043  13.508   4.832   6.257 -0.1887 -0.0826  0.2350
 1138ERGO    R116044  13.498   4.967   6.505 -0.3281  0.0152  0.1794
 1138ERGO    R216045  13.265   4.997   6.650 -0.3513 -0.2400  0.2108
 1138ERGO    R316046  13.412   4.884   6.849 -0.1541  0.0396  0.2284
 1138ERGO    R416047  13.230   5.067   6.987 -0.5096 -0.2969  0.2060
 1138ERGO    R516048  13.447   5.061   7.005 -0.4983  0.1097  0.2268
 1138ERGO    C116049  13.347   5.002   7.369 -0.4168 -0.0676  0.2196
 1138ERGO    C216050  13.479   4.947   7.690  0.0625  0.1463  0.0033
 1139ERGO   ROH16051  15.845  15.596   6.533 -0.0074 -0.0914 -0.0205
 1139ERGO    R116052  15.934  15.667   6.792  0.0214 -0.0239 -0.0485
 1139ERGO    R216053  15.896  15.504   7.012 -0.0709  0.0910  0.0227
 1139ERGO    R316054  16.166  15.532   7.039 -0.0566 -0.0378  0.0170
 1139ERGO    R416055  16.070  15.467   7.309 -0.0847  0.0426  0.0248
 1139ERGO    R516056  16.194  15.638   7.252 -0.0015 -0.0254  0.0029
 1139ERGO    C116057  16.424  15.472   7.506 -0.0792 -0.1065  0.0207
 1139ERGO    C216058  16.472  15.375   7.873  0.2319 -0.0827 -0.0092
 1140ERGO   ROH16059   9.682   6.761   9.377 -0.0657  0.2788 -0.0713
 1140ERGO    R116060   9.681   6.760   9.094 -0.2109  0.4241 -0.0701
 1140ERGO    R216061   9.790   6.964   8.944  0.1229  0.2805 -0.0104
 1140ERGO    R316062   9.929   6.762   8.827 -0.3358  0.0569 -0.1993
 1140ERGO    R416063   9.936   6.980   8.631  0.3576  0.3576  0.0991
 1140ERGO    R516064   9.870   6.775   8.595 -0.1760  0.5539 -0.2322
 1140ERGO    C116065  10.152   6.799   8.339  0.0637  0.1926 -0.0145
 1140ERGO    C216066  10.218   6.842   7.965 -0.1219  0.0482 -0.2112
 1141ERGO   ROH16067   8.147   4.064   9.179 -0.1745 -0.1279  0.0335
 1141ERGO    R116068   8.201   4.077   8.901 -0.1263  0.0152  0.0490
 1141ERGO    R216069   8.173   3.860   8.733  0.0757  0.0521 -0.0378
 1141ERGO    R316070   8.015   4.030   8.593 -0.0271 -0.0166 -0.0062
 1141ERGO    R416071   8.141   3.862   8.389  0.0052  0.0427 -0.0313
 1141ERGO    R516072   8.141   4.080   8.395 -0.0895  0.0411 -0.0304
 1141ERGO    C116073   7.974   4.024   8.057 -0.1324 -0.0273  0.0020
 1141ERGO    C216074   7.901   4.068   7.683 -0.2976  0.0196 -0.0078
 1142ERGO   ROH16075  14.429   5.301   6.330  0.0437 -0.1992  0.0594
 1142ERGO    R116076  14.386   5.215   6.596  0.0050 -0.0721  0.0953
 1142ERGO    R216077  14.587   5.210   6.786  0.0052 -0.0928  0.0944
 1142ERGO    R316078  14.412   5.360   6.929  0.0785  0.0497  0.0374
 1142ERGO    R416079  14.533   5.179   7.125  0.0234  0.0953  0.1158
 1142ERGO    R516080  14.320   5.206   7.089  0.0306  0.1640  0.1215
 1142ERGO    C116081  14.336   5.301   7.458  0.1029  0.3386  0.0746
 1142ERGO    C216082  14.234   5.518   7.694  0.1036 -0.0449  0.4335
 1143ERGO   ROH16083   2.291  16.152   6.415  0.0140  0.0900 -0.0827
 1143ERGO    R116084   2.443  16.041   6.628 -0.0262  0.0592 -0.0681
 1143ERGO    R216085   2.467  16.166   6.873  0.0228  0.0807 -0.0785
 1143ERGO    R316086   2.377  15.927   6.967 -0.0695  0.1281 -0.0545
 1143ERGO    R416087   2.579  16.013   7.162  0.2253 -0.1044 -0.2532
 1143ERGO    R516088   2.572  15.822   7.058 -0.0540 -0.0643 -0.3087
 1143ERGO    C116089   2.559  15.700   7.419  0.2565 -0.1678 -0.3324
 1143ERGO    C216090   2.504  15.410   7.758 -0.2712  0.0319  0.0927
 1144ERGO   ROH16091   9.872   1.793   6.018 -0.0388 -0.2081  0.0035
 1144ERGO    R116092   9.929   1.719   6.285 -0.1066 -0.0312  0.0688
 1144ERGO    R216093   9.811   1.842   6.502 -0.3766 -0.0734 -0.0477
 1144ERGO    R316094   9.743   1.587   6.569 -0.1226 -0.1272  0.0131
 1144ERGO    R416095   9.652   1.751   6.795 -0.4744 -0.1384 -0.1204
 1144ERGO    R516096   9.782   1.576   6.805 -0.2734  0.0190  0.0447
 1144ERGO    C116097   9.496   1.459   7.029 -0.2928 -0.2268 -0.1057
 1144ERGO    C216098   9.308   1.627   7.346  0.0832 -0.0657  0.0290
 1145ERGO   ROH16099   5.211  13.127   6.540  0.1231 -0.0594 -0.1321
 1145ERGO    R116100   5.052  12.914   6.638  0.0169  0.0657 -0.0277
 1145ERGO    R216101   5.161  12.674   6.722 -0.1100  0.0162 -0.0031
 1145ERGO    R316102   5.023  12.729   6.950 -0.0027  0.1618  0.0282
 1145ERGO    R416103   5.067  12.439   6.957 -0.3220  0.1072  0.0050
 1145ERGO    R516104   4.876  12.542   6.977 -0.2068  0.3213  0.0499
 1145ERGO    C116105   4.883  12.354   7.308 -0.3447  0.2969  0.0391
 1145ERGO    C216106   4.996  12.215   7.549 -0.1701  0.3748 -0.1050
 1146ERGO   ROH16107  16.062  14.575   6.839 -0.2254 -0.2555 -0.1098
 1146ERGO    R116108  16.183  14.409   7.033 -0.2541 -0.2675 -0.1027
 1146ERGO    R216109  16.359  14.505   7.223 -0.0673 -0.3219 -0.2489
 1146ERGO    R316110  16.186  14.386   7.396 -0.0706 -0.1038 -0.0900
 1146ERGO    R416111  16.446  14.380   7.533  0.0483 -0.3745 -0.3015
 1146ERGO    R516112  16.315  14.210   7.496 -0.1823 -0.2399 -0.1732
 1146ERGO    C116113  16.335  14.196   7.876  0.1122 -0.2003 -0.1829
 1146ERGO    C216114  16.551  14.080   8.082 -0.0899 -0.5076 -0.1600
 1147ERGO   ROH16115   2.415  14.622   6.406 -0.1081  0.0935 -0.1191
 1147ERGO    R116116   2.509  14.512   6.650 -0.0420  0.1037 -0.1391
 1147ERGO    R216117   2.340  14.447   6.859  0.0269  0.2354 -0.0381
 1147ERGO    R316118   2.459  14.204   6.838 -0.1041  0.1713 -0.0446
 1147ERGO    R416119   2.296  14.185   7.080 -0.1126  0.2512 -0.0469
 1147ERGO    R516120   2.509  14.142   7.064 -0.1371  0.1371 -0.0483
 1147ERGO    C116121   2.383  13.804   7.188 -0.3168  0.2002 -0.0581
 1147ERGO    C216122   2.321  13.576   7.391 -0.1900  0.0507  0.0495
 1148ERGO   ROH16123  18.143  10.937   6.348 -0.2406 -0.0913 -0.0052
 1148ERGO    R116124  18.232  10.874   6.610  0.1827 -0.1124 -0.1476
 1148ERGO    R216125  18.486  10.936   6.700  0.1179  0.4805 -0.3438
 1148ERGO    R316126  18.349  11.058   6.900 -0.0258 -0.0684 -0.0871
 1148ERGO    R416127  18.613  11.004   7.014  0.2995  0.6021 -0.4419
 1148ERGO    R516128  18.422  10.946   7.099  0.5423 -0.0327 -0.2521
 1148ERGO    C116129  18.560  11.159   7.385  0.2704  0.1578 -0.2580
 1148ERGO    C216130  18.412  11.246   7.793  0.2029  0.1404 -0.0017
 1149ERGO   ROH16131  11.491   1.776   9.539  0.1859  0.1715  0.1099
 1149ERGO    R116132  11.621   1.814   9.291  0.0730  0.0477  0.0312
 1149ERGO    R216133  11.676   1.605   9.118 -0.0968 -0.0232  0.0660
 1149ERGO    R316134  11.542   1.760   8.940 -0.1271 -0.0255  0.0854
 1149ERGO    R416135  11.683   1.562   8.775  0.1648  0.2080  0.0380
 1149ERGO    R516136  11.691   1.779   8.753 -0.0197  0.2364  0.1902
 1149ERGO    C116137  11.561   1.682   8.408  0.2888  0.3405  0.0398
 1149ERGO    C216138  11.568   1.618   8.130  0.1396  0.0324 -0.0824
 1150ERGO   ROH16139   0.234   9.420  10.266 -0.0886 -0.1375  0.0223
 1150ERGO    R116140   0.112   9.353  10.020 -0.1734  0.0616  0.0079
 1150ERGO    R216141  -0.011   9.542   9.857  0.0895  0.2548  0.0266
 1150ERGO    R316142   0.158   9.441   9.670 -0.0379  0.0459  0.0216
 1150ERGO    R416143  -0.085   9.508   9.522  0.0484  0.3774  0.0230
 1150ERGO    R516144   0.017   9.316   9.523 -0.2025  0.2409  0.0098
 1150ERGO    C116145   0.031   9.393   9.150 -0.0950  0.2526  0.0162
 1150ERGO    C216146   0.096   9.312   8.820  0.0358 -0.2498  0.4289
 1151ERGO   ROH16147  11.176   9.151  10.224 -0.3386  0.0375 -0.0863
 1151ERGO    R116148  11.114   9.319  10.004 -0.4279 -0.0340 -0.1159
 1151ERGO    R216149  11.294   9.371   9.801 -0.3562  0.2423  0.0158
 1151ERGO    R316150  11.092   9.283   9.643 -0.1219 -0.0416 -0.1374
 1151ERGO    R416151  11.285   9.402   9.457 -0.2326  0.4260  0.0279
 1151ERGO    R516152  11.073   9.450   9.473 -0.3384  0.0306 -0.0482
 1151ERGO    C116153  11.089   9.339   9.108  0.0593  0.2664 -0.1088
 1151ERGO    C216154  11.163   9.513   8.848 -0.0906  0.2436 -0.0730
 1152ERGO   ROH16155   2.765  10.798   6.163 -0.2379  0.0367 -0.1139
 1152ERGO    R116156   2.718  10.658   6.405 -0.1877 -0.0699 -0.1649
 1152ERGO    R216157   2.765  10.770   6.653 -0.0774 -0.2006 -0.1254
 1152ERGO    R316158   2.506  10.700   6.698 -0.0785 -0.1623 -0.0716
 1152ERGO    R416159   2.614  10.761   6.964 -0.0937  0.0978 -0.1211
 1152ERGO    R516160   2.513  10.577   6.904 -0.0871  0.0355  0.0501
 1152ERGO    C116161   2.284  10.689   7.187 -0.1043  0.3077 -0.0680
 1152ERGO    C216162   2.196  10.623   7.531 -0.0315  0.4580 -0.1903
 1153ERGO   ROH16163  13.477  13.693   6.659  0.2422  0.0276 -0.0825
 1153ERGO    R116164  13.669  13.738   6.862  0.1513  0.1173 -0.0141
 1153ERGO    R216165  13.635  13.927   7.061  0.0117  0.1320 -0.0455
 1153ERGO    R316166  13.680  13.716   7.225  0.0188  0.1637 -0.0079
 1153ERGO    R416167  13.708  13.951   7.398 -0.2883  0.1753  0.0189
 1153ERGO    R516168  13.853  13.791   7.372 -0.1582  0.2781  0.1410
 1153ERGO    C116169  13.793  13.765   7.748 -0.4564  0.2304  0.0916
 1153ERGO    C216170  13.947  13.910   8.122 -0.1993 -0.1439 -0.1005
 1154ERGO   ROH16171   3.852  13.139  10.024 -0.1353 -0.1458 -0.0513
 1154ERGO    R116172   3.934  13.162   9.754 -0.1462 -0.0418 -0.0457
 1154ERGO    R216173   3.963  12.943   9.587  0.0357  0.0044 -0.0748
 1154ERGO    R316174   3.794  13.083   9.427 -0.0734 -0.1097 -0.0609
 1154ERGO    R416175   3.963  12.931   9.242 -0.0962 -0.1239 -0.0714
 1154ERGO    R516176   3.928  13.146   9.239 -0.1670 -0.1350 -0.1377
 1154ERGO    C116177   3.803  13.055   8.891 -0.2753 -0.3057 -0.0562
 1154ERGO    C216178   3.762  13.131   8.599 -0.1337  0.0722  0.0136
 1155ERGO   ROH16179  16.236   9.075   6.529  0.2712  0.1548 -0.0578
 1155ERGO    R116180  16.216   9.250   6.751  0.2787  0.1495 -0.0523
 1155ERGO    R216181  16.046   9.201   6.962  0.0768  0.2845 -0.1755
 1155ERGO    R316182  16.273   9.229   7.110  0.0038  0.0491 -0.0126
 1155ERGO    R416183  16.056   9.217   7.308 -0.1717  0.4777 -0.1744
 1155ERGO    R516184  16.209   9.372   7.291  0.0643  0.2512 -0.1510
 1155ERGO    C116185  16.275   9.252   7.647 -0.3850  0.3693 -0.0208
 1155ERGO    C216186  16.011   9.294   7.980  0.2042  0.0586 -0.2314
 1156ERGO   ROH16187   1.559   9.429   6.284  0.2206  0.0877  0.0622
 1156ERGO    R116188   1.667   9.493   6.538  0.1066 -0.0322  0.1424
 1156ERGO    R216189   1.535   9.434   6.774 -0.0360 -0.0761  0.0553
 1156ERGO    R316190   1.769   9.310   6.835 -0.1045 -0.1666  0.1340
 1156ERGO    R416191   1.640   9.355   7.094 -0.0264  0.1770  0.1164
 1156ERGO    R516192   1.842   9.415   7.037  0.0015 -0.0088  0.0159
 1156ERGO    C116193   1.920   9.192   7.337 -0.0852  0.2395  0.2259
 1156ERGO    C216194   1.960   9.175   7.733  0.1873 -0.0022 -0.1582
 1157ERGO   ROH16195   7.504   7.712   9.792 -0.1429 -0.2787  0.0401
 1157ERGO    R116196   7.552   7.656   9.519 -0.1074 -0.1105  0.0105
 1157ERGO    R216197   7.351   7.582   9.345 -0.0729 -0.0882 -0.0430
 1157ERGO    R316198   7.444   7.792   9.199 -0.1398  0.0288  0.0804
 1157ERGO    R416199   7.318   7.614   9.002 -0.0690  0.1042 -0.0261
 1157ERGO    R516200   7.522   7.692   8.995 -0.0984  0.1774  0.0251
 1157ERGO    C116201   7.387   7.830   8.666 -0.1297  0.3260  0.0995
 1157ERGO    C216202   7.463   7.811   8.357 -0.0226 -0.2374 -0.2468
 1158ERGO   ROH16203  13.985   2.532   6.497 -0.1340 -0.2015  0.1533
 1158ERGO    R116204  13.913   2.571   6.768 -0.0986 -0.0966  0.1477
 1158ERGO    R216205  13.979   2.799   6.908 -0.1892  0.0108  0.0128
 1158ERGO    R316206  13.712   2.808   6.957 -0.1843 -0.1019  0.0657
 1158ERGO    R416207  13.835   2.931   7.193 -0.1883  0.0802 -0.0183
 1158ERGO    R516208  13.693   2.765   7.192 -0.1070  0.0035  0.0944
 1158ERGO    C116209  13.500   3.016   7.404 -0.1830  0.0148  0.0131
 1158ERGO    C216210  13.477   3.226   7.555  0.0932 -0.2045 -0.2360
 1159ERGO   ROH16211   9.108   1.450   5.769  0.0428 -0.0435 -0.0820
 1159ERGO    R116212   9.001   1.393   6.024  0.1118  0.0964 -0.0195
 1159ERGO    R216213   8.797   1.210   6.062 -0.1228  0.3663  0.0943
 1159ERGO    R316214   8.972   1.101   6.239 -0.1590  0.1245 -0.0160
 1159ERGO    R416215   8.708   1.049   6.355 -0.1598  0.2840  0.0374
 1159ERGO    R516216   8.876   1.146   6.454 -0.0499  0.0890  0.0370
 1159ERGO    C116217   8.821   0.853   6.692 -0.2153  0.0091 -0.0995
 1159ERGO    C216218   8.751   0.724   6.922  0.1852 -0.1002  0.0521
 1160ERGO   ROH16219   3.228   4.494   6.498  0.3310 -0.0024  0.0261
 1160ERGO    R116220   3.045   4.530   6.711  0.2495 -0.0265 -0.0379
 1160ERGO    R216221   2.918   4.319   6.835  0.3319 -0.0566  0.0058
 1160ERGO    R316222   3.023   4.430   7.060  0.2115  0.0877 -0.0083
 1160ERGO    R416223   2.778   4.297   7.151  0.2143  0.0786 -0.0365
 1160ERGO    R516224   2.833   4.505   7.184  0.1469  0.1061 -0.1236
 1160ERGO    C116225   2.796   4.388   7.545  0.0327  0.2928 -0.0742
 1160ERGO    C216226   2.625   4.298   7.798  0.2633  0.1674 -0.0656
 1161ERGO   ROH16227  16.790   3.788   6.622 -0.0578 -0.2227  0.1058
 1161ERGO    R116228  16.776   3.830   6.902  0.0530 -0.1640  0.1037
 1161ERGO    R216229  16.537   3.850   7.038  0.1037  0.0289  0.1725
 1161ERGO    R316230  16.644   3.651   7.190  0.0096 -0.0217  0.1723
 1161ERGO    R416231  16.494   3.818   7.379  0.0807  0.0421  0.1703
 1161ERGO    R516232  16.704   3.759   7.395  0.0530 -0.0530  0.1751
 1161ERGO    C116233  16.570   3.613   7.721 -0.0210  0.0023  0.1690
 1161ERGO    C216234  16.478   3.761   8.024  0.0499 -0.1307 -0.1380
 1162ERGO   ROH16235   2.664   1.931   6.298  0.1511 -0.0543 -0.0206
 1162ERGO    R116236   2.633   1.939   6.579  0.1628  0.0304 -0.0204
 1162ERGO    R216237   2.711   2.156   6.731  0.0208  0.1484 -0.1037
 1162ERGO    R316238   2.454   2.146   6.820  0.0310 -0.0018 -0.0921
 1162ERGO    R416239   2.614   2.191   7.061 -0.0069  0.2866 -0.1266
 1162ERGO    R516240   2.468   2.032   7.030  0.1235  0.1496 -0.0188
 1162ERGO    C116241   2.316   2.201   7.336 -0.0134  0.2260 -0.1290
 1162ERGO    C216242   2.358   2.534   7.602 -0.0150  0.1901 -0.0265
 1163ERGO   ROH16243   2.456   0.647   6.906 -0.0435  0.1242 -0.1759
 1163ERGO    R116244   2.603   0.850   7.039 -0.0485  0.1637 -0.2310
 1163ERGO    R216245   2.494   1.096   7.100 -0.1303  0.0915 -0.0870
 1163ERGO    R316246   2.576   1.034   7.352  0.0882  0.0677 -0.1610
 1163ERGO    R416247   2.458   1.301   7.376 -0.0051  0.0175 -0.0141
 1163ERGO    R516248   2.657   1.241   7.441  0.0725  0.0830 -0.1786
 1163ERGO    C116249   2.513   1.362   7.773  0.2728 -0.0479 -0.0411
 1163ERGO    C216250   2.534   1.509   8.105  0.0206  0.0207 -0.3863
 1164ERGO   ROH16251   4.142  15.950  10.257  0.2414  0.1181  0.1674
 1164ERGO    R116252   4.252  15.982   9.998  0.2796 -0.0688  0.1600
 1164ERGO    R216253   4.394  15.782   9.871 -0.0811 -0.3194  0.1456
 1164ERGO    R316254   4.212  15.824   9.673 -0.0255  0.0051  0.1569
 1164ERGO    R416255   4.472  15.826   9.537 -0.0084 -0.3417  0.1589
 1164ERGO    R516256   4.318  15.981   9.526  0.2134 -0.1054  0.2016
 1164ERGO    C116257   4.347  15.892   9.157  0.0862 -0.0500  0.1772
 1164ERGO    C216258   4.265  15.800   8.874 -0.1536  0.0689 -0.0404
 1165ERGO   ROH16259   6.248   3.952   9.726  0.1104 -0.2270  0.0405
 1165ERGO    R116260   6.210   3.837   9.470 -0.0076 -0.1250  0.0117
 1165ERGO    R216261   6.001   3.909   9.304  0.0693  0.1333  0.0265
 1165ERGO    R316262   6.201   3.955   9.126  0.1178 -0.0325  0.0395
 1165ERGO    R416263   5.974   3.873   8.961  0.0991  0.0259  0.0352
 1165ERGO    R516264   6.174   3.786   8.959  0.0545 -0.0771  0.0949
 1165ERGO    C116265   6.146   3.896   8.595  0.1621 -0.1923  0.0525
 1165ERGO    C216266   6.064   3.966   8.302  0.0034 -0.1364 -0.0122
 1166ERGO   ROH16267  11.010   2.663   6.164 -0.0099  0.0955  0.1596
 1166ERGO    R116268  10.895   2.675   6.422 -0.1336  0.0866  0.1062
 1166ERGO    R216269  10.640   2.773   6.468 -0.2402 -0.1081 -0.0375
 1166ERGO    R316270  10.604   2.533   6.589 -0.0902 -0.1007  0.0231
 1166ERGO    R416271  10.440   2.719   6.745 -0.1216 -0.1496  0.0402
 1166ERGO    R516272  10.593   2.584   6.822 -0.0359 -0.0633  0.0155
 1166ERGO    C116273  10.290   2.461   7.019  0.0882 -0.1669  0.1424
 1166ERGO    C216274  10.260   2.176   7.339  0.0560 -0.0179  0.1439
 1167ERGO   ROH16275  16.249   0.171  10.290  0.0133  0.0624  0.0619
 1167ERGO    R116276  16.134   0.066  10.053  0.0033  0.0990  0.0498
 1167ERGO    R216277  16.003   0.225   9.869  0.0916  0.1468  0.0224
 1167ERGO    R316278  16.179   0.113   9.695  0.0735  0.0682  0.0555
 1167ERGO    R416279  15.958   0.203   9.527  0.1399  0.1400  0.0170
 1167ERGO    R516280  16.042   0.003   9.533  0.0603  0.1113  0.0417
 1167ERGO    C116281  16.097   0.085   9.165  0.1508  0.0622  0.0448
 1167ERGO    C216282  16.138   0.271   8.798 -0.4974 -0.0396 -0.0664
 1168ERGO   ROH16283   3.225  14.210   9.929  0.3164  0.0681 -0.0016
 1168ERGO    R116284   3.362  14.266   9.688  0.2978  0.0098 -0.0251
 1168ERGO    R216285   3.371  14.089   9.477  0.0726  0.0616 -0.0755
 1168ERGO    R316286   3.276  14.301   9.336  0.2276  0.1890  0.0073
 1168ERGO    R416287   3.383  14.118   9.132 -0.1132  0.0699 -0.0827
 1168ERGO    R516288   3.434  14.329   9.157  0.1524  0.0158 -0.0935
 1168ERGO    C116289   3.301  14.334   8.800 -0.0759  0.1942 -0.0093
 1168ERGO    C216290   3.271  14.314   8.500 -0.1133 -0.0535  0.2176
 1169ERGO   ROH16291   6.894  11.683   6.604 -0.0271  0.0560 -0.1415
 1169ERGO    R116292   6.904  11.657   6.886  0.0605 -0.2312 -0.1679
 1169ERGO    R216293   6.784  11.838   7.057  0.5374 -0.1146  0.0636
 1169ERGO    R316294   6.665  11.615   7.156  0.0939  0.0411 -0.0930
 1169ERGO    R416295   6.620  11.820   7.360  0.4540  0.0063  0.0265
 1169ERGO    R516296   6.709  11.624   7.391  0.0784 -0.1893 -0.0796
 1169ERGO    C116297   6.412  11.600   7.631 -0.0108  0.2229 -0.1421
 1169ERGO    C216298   6.219  11.419   7.760  0.0002 -0.0646  0.2913
 1170ERGO   ROH16299   3.854  16.903   6.331  0.0906  0.1008  0.0009
 1170ERGO    R116300   3.881  17.043   6.576  0.1552  0.0657  0.0149
 1170ERGO    R216301   3.743  17.277   6.629  0.2683  0.1315  0.0347
 1170ERGO    R316302   3.662  17.140   6.850  0.1964  0.1484  0.0178
 1170ERGO    R416303   3.688  17.417   6.940  0.0825  0.1670 -0.0134
 1170ERGO    R516304   3.781  17.242   7.031  0.0822  0.2064  0.0592
 1170ERGO    C116305   3.580  17.370   7.328 -0.0933  0.2034 -0.0573
 1170ERGO    C216306   3.601  17.512   7.594  0.0680  0.1948 -0.0171
 1171ERGO   ROH16307   3.330  11.611  10.107 -0.2859  0.1004 -0.1237
 1171ERGO    R116308   3.287  11.735   9.856 -0.0225 -0.0082 -0.2269
 1171ERGO    R216309   3.475  11.727   9.653  0.0891 -0.3230 -0.1275
 1171ERGO    R316310   3.267  11.628   9.509  0.0639 -0.2054 -0.1708
 1171ERGO    R416311   3.428  11.774   9.314  0.1314 -0.2318 -0.1201
 1171ERGO    R516312   3.215  11.800   9.351  0.1446 -0.1559 -0.1362
 1171ERGO    C116313   3.205  11.708   8.981  0.1325 -0.0684 -0.1563
 1171ERGO    C216314   3.171  11.794   8.591  0.2256  0.1383  0.0724
 1172ERGO   ROH16315   0.234  11.933   6.254  0.0383  0.0067 -0.0014
 1172ERGO    R116316   0.220  12.036   6.518 -0.0582 -0.0944  0.0349
 1172ERGO    R216317   0.114  11.892   6.728 -0.0749 -0.2039 -0.0416
 1172ERGO    R316318   0.354  11.945   6.844 -0.1176 -0.1815  0.0341
 1172ERGO    R416319   0.159  11.976   7.060 -0.2084  0.0334 -0.0828
 1172ERGO    R516320   0.308  12.122   6.998 -0.1421 -0.0553 -0.1207
 1172ERGO    C116321   0.411  12.076   7.362 -0.3261  0.1927 -0.0356
 1172ERGO    C216322   0.514  11.906   7.732  0.0412  0.2325  0.2980
 1173ERGO   ROH16323  10.905   2.869   9.270 -0.1822 -0.1695  0.0922
 1173ERGO    R116324  10.857   2.971   9.011 -0.1818 -0.0916  0.1245
 1173ERGO    R216325  11.046   2.962   8.810 -0.2220 -0.1260  0.0970
 1173ERGO    R316326  10.846   2.839   8.672 -0.2954 -0.0087  0.0938
 1173ERGO    R416327  11.007   2.973   8.467 -0.1520 -0.1795  0.0854
 1173ERGO    R516328  10.792   2.993   8.497 -0.1469 -0.0058  0.0451
 1173ERGO    C116329  10.797   2.864   8.137 -0.1802 -0.1004  0.0757
 1173ERGO    C216330  10.773   2.703   7.803  0.0305  0.2538 -0.1904
 1174ERGO   ROH16331  12.557  11.699   6.458  0.0618  0.3129  0.0820
 1174ERGO    R116332  12.443  11.775   6.706 -0.1011  0.0243  0.1009
 1174ERGO    R216333  12.383  11.592   6.905  0.3101 -0.1530  0.0812
 1174ERGO    R316334  12.537  11.756   7.057 -0.0352  0.1742  0.0901
 1174ERGO    R416335  12.378  11.604   7.250  0.3003 -0.1825  0.0811
 1174ERGO    R516336  12.395  11.820   7.238 -0.1679 -0.1430  0.0987
 1174ERGO    C116337  12.521  11.765   7.594 -0.0297  0.1072  0.0894
 1174ERGO    C216338  12.551  11.699   7.934 -0.2613 -0.1047  0.0840
 1175ERGO   ROH16339   9.189   3.876   9.148  0.4946 -0.0088  0.0208
 1175ERGO    R116340   9.071   3.789   8.906  0.3417 -0.0957  0.1247
 1175ERGO    R216341   9.058   3.948   8.680  0.1095 -0.1384  0.1017
 1175ERGO    R316342   9.179   3.735   8.563  0.1022 -0.1135  0.0505
 1175ERGO    R416343   9.044   3.873   8.343  0.0742 -0.0812  0.0910
 1175ERGO    R516344   9.025   3.662   8.395  0.0871 -0.0892  0.0559
 1175ERGO    C116345   9.151   3.628   8.037  0.0468 -0.0244  0.0366
 1175ERGO    C216346   9.342   3.744   7.750  0.4180 -0.1128  0.0071
 1176ERGO   ROH16347  10.888   0.410   6.129 -0.2711 -0.2399 -0.0477
 1176ERGO    R116348  10.936   0.319   6.393 -0.1503 -0.0749 -0.0105
 1176ERGO    R216349  10.813   0.432   6.614 -0.1794 -0.0463 -0.0380
 1176ERGO    R316350  10.738   0.175   6.662  0.0060 -0.0742  0.1050
 1176ERGO    R416351  10.718   0.307   6.922 -0.0131  0.0345  0.0463
 1176ERGO    R516352  10.829   0.126   6.878  0.0964  0.0885  0.1041
 1176ERGO    C116353  10.593  -0.006   7.147  0.2577  0.0553  0.2295
 1176ERGO    C216354  10.301  -0.029   7.314 -0.3382  0.5143  0.0074
 1177ERGO   ROH16355  17.921   1.241   6.887  0.1429 -0.0221 -0.0210
 1177ERGO    R116356  17.912   1.175   7.163  0.1529 -0.0267 -0.0221
 1177ERGO    R216357  17.729   0.996   7.267  0.1614 -0.0306 -0.0207
 1177ERGO    R316358  17.952   0.875   7.364  0.1653 -0.0290 -0.0263
 1177ERGO    R416359  17.733   0.697   7.440  0.1584 -0.0164  0.0046
 1177ERGO    R516360  17.883   0.781   7.573  0.1732 -0.0080 -0.0113
 1177ERGO    C116361  17.944   0.409   7.631  0.1607 -0.0067  0.0141
 1177ERGO    C216362  17.879   0.041   7.651 -0.0166  0.1358  0.0566
 1178ERGO   ROH16363  11.934   3.177   6.014 -0.1511  0.0935  0.0342
 1178ERGO    R116364  11.873   3.197   6.290 -0.2214  0.0607  0.0215
 1178ERGO    R216365  11.662   3.062   6.406 -0.0966 -0.1576  0.0009
 1178ERGO    R316366  11.855   2.970   6.574 -0.0228  0.0728  0.0445
 1178ERGO    R416367  11.642   3.064   6.751 -0.1819 -0.1939 -0.0037
 1178ERGO    R516368  11.851   3.123   6.758 -0.2537  0.0632  0.0492
 1178ERGO    C116369  11.811   2.980   7.110 -0.1623  0.0013  0.0345
 1178ERGO    C216370  11.978   2.916   7.304 -0.0977 -0.0015 -0.0396
 1179ERGO   ROH16371  14.164   5.068  10.069  0.1201  0.1677 -0.1714
 1179ERGO    R116372  14.141   4.909   9.835  0.1497  0.0954 -0.1247
 1179ERGO    R216373  14.011   4.996   9.607  0.1194 -0.0030 -0.1416
 1179ERGO    R316374  14.247   4.933   9.488  0.1283  0.0203 -0.1379
 1179ERGO    R416375  14.051   4.929   9.271  0.1247  0.0093 -0.1439
 1179ERGO    R516376  14.189   4.769   9.324  0.1403  0.0169 -0.1434
 1179ERGO    C116377  14.296   4.829   8.963  0.1363  0.0383 -0.1416
 1179ERGO    C216378  14.361   4.934   8.606 -0.0927  0.1018 -0.1823
 1180ERGO   ROH16379   6.986  18.288   6.482 -0.1917 -0.0267 -0.0378
 1180ERGO    R116380   6.925  18.278   6.758 -0.2141 -0.1595 -0.0467
 1180ERGO    R216381   7.025  18.461   6.939 -0.1394 -0.3096  0.0684
 1180ERGO    R316382   6.762  18.494   7.001 -0.1284 -0.2235  0.0679
 1180ERGO    R416383   6.906  18.570   7.245 -0.1002 -0.1230  0.0175
 1180ERGO    R516384   6.745  18.424   7.229 -0.1298 -0.0980  0.1059
 1180ERGO    C116385   6.591  18.666   7.481 -0.0670  0.0664 -0.0126
 1180ERGO    C216386   6.625  18.803   7.826 -0.0694  0.1398 -0.2491
 1181ERGO   ROH16387   1.083  16.544   6.976 -0.2012 -0.1732  0.1564
 1181ERGO    R116388   1.161  16.661   7.221 -0.0825 -0.0649  0.0693
 1181ERGO    R216389   1.045  16.892   7.320 -0.0971 -0.0694  0.0673
 1181ERGO    R316390   1.002  16.737   7.540  0.0940 -0.0128  0.1456
 1181ERGO    R416391   1.059  17.004   7.647 -0.0840  0.0792  0.0156
 1181ERGO    R516392   1.159  16.818   7.701  0.0808  0.1803  0.0633
 1181ERGO    C116393   1.028  16.925   8.043  0.1030  0.2191  0.0589
 1181ERGO    C216394   1.115  17.130   8.362  0.5535  0.1393 -0.2828
 1182ERGO   ROH16395   1.402   6.418   6.600 -0.2585  0.2125 -0.0213
 1182ERGO    R116396   1.289   6.346   6.849 -0.3013  0.2330 -0.0341
 1182ERGO    R216397   1.433   6.354   7.085 -0.2171 -0.1374 -0.0654
 1182ERGO    R316398   1.227   6.510   7.168  0.0467  0.1395  0.0854
 1182ERGO    R416399   1.332   6.389   7.414 -0.2210 -0.3650 -0.0407
 1182ERGO    R516400   1.125   6.385   7.345 -0.2190  0.0982 -0.0940
 1182ERGO    C116401   1.079   6.557   7.683  0.0243 -0.2376  0.1152
 1182ERGO    C216402   1.068   6.713   8.049 -0.0412  0.0155 -0.2636
 1183ERGO   ROH16403   5.297   8.879   6.890  0.1721  0.1397 -0.1022
 1183ERGO    R116404   5.109   8.913   7.099  0.1194  0.1695 -0.1545
 1183ERGO    R216405   5.110   8.756   7.327 -0.0491  0.0843 -0.2140
 1183ERGO    R316406   5.120   8.996   7.453  0.0446  0.0313 -0.1181
 1183ERGO    R416407   5.071   8.801   7.667 -0.1739 -0.0281 -0.2120
 1183ERGO    R516408   4.953   8.980   7.625 -0.0460  0.0650 -0.1985
 1183ERGO    C116409   5.058   9.053   7.984 -0.1585 -0.1434 -0.1209
 1183ERGO    C216410   4.923   9.137   8.307  0.2992  0.4778  0.0359
 1184ERGO   ROH16411   4.341   5.403   6.334 -0.1056 -0.0451  0.1213
 1184ERGO    R116412   4.353   5.560   6.570  0.0000 -0.0077  0.0912
 1184ERGO    R216413   4.376   5.449   6.821 -0.0163  0.0274  0.1077
 1184ERGO    R316414   4.591   5.614   6.840  0.0634 -0.0685  0.0481
 1184ERGO    R416415   4.537   5.529   7.116  0.0582  0.0113  0.0717
 1184ERGO    R516416   4.556   5.734   7.044  0.1448 -0.0108  0.0288
 1184ERGO    C116417   4.834   5.731   7.305  0.1764 -0.0880 -0.0052
 1184ERGO    C216418   4.768   5.796   7.659 -0.2687 -0.0008  0.0004
 1185ERGO   ROH16419   8.363   1.897   9.240  0.1475  0.0067 -0.2040
 1185ERGO    R116420   8.285   1.924   8.969  0.2341  0.2100 -0.2112
 1185ERGO    R216421   8.459   2.009   8.772  0.4496 -0.1293 -0.1791
 1185ERGO    R316422   8.383   1.778   8.650 -0.0309  0.0363 -0.2158
 1185ERGO    R416423   8.446   1.961   8.430  0.5467 -0.1128 -0.1851
 1185ERGO    R516424   8.261   1.850   8.458  0.2546  0.3260 -0.2962
 1185ERGO    C116425   8.368   1.716   8.117  0.1521  0.0524 -0.2231
 1185ERGO    C216426   8.565   1.667   7.865 -0.3048  0.0914 -0.3255
 1186ERGO   ROH16427   6.181   2.194   9.646  0.0605 -0.2758  0.0186
 1186ERGO    R116428   6.066   2.293   9.407  0.0206 -0.0736  0.1190
 1186ERGO    R216429   6.217   2.402   9.203 -0.0115  0.0918  0.1753
 1186ERGO    R316430   6.087   2.217   9.052 -0.0441  0.2171  0.0520
 1186ERGO    R416431   6.186   2.413   8.859  0.1175  0.2371  0.1681
 1186ERGO    R516432   5.980   2.345   8.880  0.0824  0.3300  0.0624
 1186ERGO    C116433   6.046   2.246   8.517  0.1619  0.4394  0.0480
 1186ERGO    C216434   6.039   2.187   8.096  0.0234 -0.0550 -0.0613
 1187ERGO   ROH16435   6.950   1.912   9.356  0.0958  0.0366 -0.0138
 1187ERGO    R116436   7.084   1.859   9.113  0.1281  0.1565 -0.0216
 1187ERGO    R216437   6.990   1.678   8.927  0.2668  0.0912 -0.0216
 1187ERGO    R316438   7.011   1.890   8.758  0.0906  0.1134 -0.0194
 1187ERGO    R416439   6.980   1.657   8.582  0.1195  0.0964 -0.0188
 1187ERGO    R516440   7.139   1.806   8.573  0.0507  0.1766 -0.0823
 1187ERGO    C116441   6.994   1.843   8.222 -0.1317  0.1202 -0.0151
 1187ERGO    C216442   6.899   2.006   8.024 -0.1629  0.0898  0.2755
 1188ERGO   ROH16443  12.232  15.043   6.568  0.0893 -0.0717  0.0067
 1188ERGO    R116444  12.156  15.192   6.796  0.0791 -0.0082 -0.0375
 1188ERGO    R216445  11.900  15.288   6.833  0.0876  0.0430 -0.0973
 1188ERGO    R316446  11.918  15.155   7.070  0.0310  0.0907 -0.0661
 1188ERGO    R416447  11.685  15.332   7.100  0.0075  0.0719 -0.1662
 1188ERGO    R516448  11.857  15.319   7.234 -0.0317  0.1141 -0.1145
 1188ERGO    C116449  11.577  15.233   7.477 -0.0922  0.1333 -0.1771
 1188ERGO    C216450  11.311  15.281   7.652 -0.0600  0.0013 -0.2636
 1189ERGO   ROH16451   7.895   0.780   9.411  0.1896  0.1336  0.1298
 1189ERGO    R116452   7.810   0.739   9.145  0.0174  0.2066  0.1739
 1189ERGO    R216453   7.847   0.927   8.946  0.1588  0.1346  0.1439
 1189ERGO    R316454   7.967   0.720   8.817 -0.1565 -0.0275  0.0981
 1189ERGO    R416455   7.858   0.889   8.603  0.3155  0.3591  0.1206
 1189ERGO    R516456   7.823   0.675   8.630 -0.1343  0.3896 -0.0401
 1189ERGO    C116457   7.976   0.673   8.281  0.1106  0.3377  0.0641
 1189ERGO    C216458   7.853   0.731   7.953 -0.0024 -0.0039  0.2076
 1190ERGO   ROH16459  17.943   4.651   6.610 -0.0127 -0.0957 -0.0641
 1190ERGO    R116460  17.728   4.541   6.757 -0.0230  0.0831  0.0576
 1190ERGO    R216461  17.720   4.275   6.832 -0.2113  0.0844  0.0416
 1190ERGO    R316462  17.684   4.379   7.080  0.0292  0.0989  0.0731
 1190ERGO    R416463  17.655   4.090   7.116 -0.1886  0.1168  0.0684
 1190ERGO    R516464  17.513   4.243   7.178 -0.0258  0.2326  0.1688
 1190ERGO    C116465  17.583   4.080   7.515  0.0501  0.1493  0.1135
 1190ERGO    C216466  17.571   3.861   7.719  0.0493 -0.0819  0.3188
 1191ERGO   ROH16467   4.084   2.179   9.955 -0.0357  0.0894  0.1323
 1191ERGO    R116468   4.033   2.299   9.704 -0.1837  0.0142  0.1253
 1191ERGO    R216469   4.235   2.368   9.528 -0.2606  0.3069  0.1465
 1191ERGO    R316470   4.091   2.215   9.354 -0.0228  0.0928  0.1322
 1191ERGO    R416471   4.276   2.366   9.184 -0.3281  0.4934  0.1364
 1191ERGO    R516472   4.060   2.356   9.163 -0.3227  0.1021  0.1825
 1191ERGO    C116473   4.165   2.222   8.822 -0.1442  0.4010  0.1172
 1191ERGO    C216474   4.212   2.142   8.467  0.0988 -0.0704  0.0205
 1192ERGO   ROH16475  14.796   8.319   6.421 -0.2564 -0.0236  0.1214
 1192ERGO    R116476  14.879   8.387   6.683 -0.2485 -0.2017  0.1664
 1192ERGO    R216477  14.889   8.648   6.773  0.1999 -0.2194  0.1921
 1192ERGO    R316478  14.732   8.551   6.973 -0.0812  0.0523  0.1099
 1192ERGO    R416479  14.834   8.807   7.075  0.4191 -0.1758  0.2105
 1192ERGO    R516480  14.847   8.613   7.174 -0.0212 -0.2370  0.1685
 1192ERGO    C116481  14.654   8.809   7.438  0.2830  0.1047  0.1441
 1192ERGO    C216482  14.403   9.024   7.710 -0.0123  0.1053 -0.0646
 1193ERGO   ROH16483   8.311  14.547   9.562 -0.0255  0.0091  0.0761
 1193ERGO    R116484   8.357  14.634   9.297  0.0165  0.0442  0.0942
 1193ERGO    R216485   8.485  14.478   9.109 -0.0545  0.0225  0.0601
 1193ERGO    R316486   8.261  14.526   8.963 -0.0332  0.1578  0.0717
 1193ERGO    R416487   8.475  14.490   8.764 -0.0487  0.1364  0.0639
 1193ERGO    R516488   8.339  14.660   8.780  0.0199  0.1844  0.1154
 1193ERGO    C116489   8.259  14.542   8.426 -0.0254  0.3299  0.0771
 1193ERGO    C216490   8.275  14.395   8.220  0.0748 -0.1149  0.1574
 1194ERGO   ROH16491   7.877   3.189   9.355  0.1134 -0.1778 -0.1298
 1194ERGO    R116492   7.752   3.077   9.127  0.1705  0.0057 -0.2533
 1194ERGO    R216493   7.501   3.154   9.041  0.0702 -0.1290 -0.0791
 1194ERGO    R316494   7.630   3.197   8.805 -0.0337  0.3245 -0.0629
 1194ERGO    R416495   7.348   3.175   8.732 -0.0230 -0.0775 -0.0299
 1194ERGO    R516496   7.513   3.061   8.647  0.1631  0.2777 -0.1762
 1194ERGO    C116497   7.379   3.228   8.331 -0.1748  0.3781  0.0138
 1194ERGO    C216498   7.443   3.324   8.043  0.2309 -0.0347 -0.0185
 1195ERGO   ROH16499   7.821   5.368   6.291 -0.0588  0.0415  0.1325
 1195ERGO    R116500   7.905   5.333   6.559  0.0334  0.0109  0.0997
 1195ERGO    R216501   7.824   5.118   6.713  0.0967 -0.0116  0.0983
 1195ERGO    R316502   8.092   5.083   6.747  0.1098 -0.0037  0.0064
 1195ERGO    R416503   7.974   5.004   7.003  0.1891 -0.0729  0.0272
 1195ERGO    R516504   8.133   5.150   6.973  0.1731 -0.0541  0.0123
 1195ERGO    C116505   8.312   4.905   7.203  0.2554 -0.1011 -0.1005
 1195ERGO    C216506   8.582   4.821   7.411 -0.1315 -0.1285 -0.2159
 1196ERGO   ROH16507   1.646   6.098  10.019  0.0551 -0.0173 -0.2000
 1196ERGO    R116508   1.669   5.967   9.770  0.1291  0.0625 -0.2355
 1196ERGO    R216509   1.453   5.931   9.600  0.1190 -0.1387 -0.1776
 1196ERGO    R316510   1.616   6.052   9.420 -0.0683  0.0822 -0.2035
 1196ERGO    R416511   1.403   5.932   9.259  0.0208 -0.1537 -0.1636
 1196ERGO    R516512   1.618   5.904   9.232  0.0550  0.1028 -0.2242
 1196ERGO    C116513   1.527   6.047   8.890 -0.2122  0.0450 -0.1798
 1196ERGO    C216514   1.422   5.918   8.550 -0.0470  0.0681 -0.2753
 1197ERGO   ROH16515   3.156   2.962   6.450 -0.0178 -0.0998  0.0747
 1197ERGO    R116516   3.207   3.026   6.721 -0.0036 -0.0374  0.0573
 1197ERGO    R216517   3.403   2.899   6.869 -0.0210 -0.0284  0.0861
 1197ERGO    R316518   3.488   3.153   6.914  0.0187 -0.0298  0.0202
 1197ERGO    R416519   3.603   2.997   7.133 -0.1480  0.0371  0.1591
 1197ERGO    R516520   3.482   3.177   7.152 -0.1136  0.0782  0.0078
 1197ERGO    C116521   3.800   3.293   7.329 -0.1847  0.0739  0.1399
 1197ERGO    C216522   3.873   3.387   7.639 -0.2292 -0.1160 -0.1114
 1198ERGO   ROH16523   0.572   0.862   6.575  0.1139 -0.2210  0.1986
 1198ERGO    R116524   0.632   0.987   6.822 -0.0150 -0.2138  0.2267
 1198ERGO    R216525   0.492   1.205   6.916  0.0076 -0.1424  0.0924
 1198ERGO    R316526   0.459   1.048   7.136 -0.2214 -0.0978  0.0936
 1198ERGO    R416527   0.507   1.318   7.242 -0.0629 -0.1205  0.0888
 1198ERGO    R516528   0.616   1.136   7.295 -0.2276 -0.2027  0.1609
 1198ERGO    C116529   0.486   1.237   7.639 -0.3188 -0.0658  0.0877
 1198ERGO    C216530   0.540   1.378   8.016 -0.1975 -0.0289 -0.0285
 1199ERGO   ROH16531   7.457   8.113   9.490 -0.3459  0.1246  0.1149
 1199ERGO    R116532   7.427   8.262   9.251 -0.3659  0.1488  0.1330
 1199ERGO    R216533   7.583   8.217   9.027 -0.1937  0.3623  0.2128
 1199ERGO    R316534   7.342   8.191   8.904 -0.0978  0.1419  0.0642
 1199ERGO    R416535   7.529   8.261   8.689 -0.0508  0.5625  0.2138
 1199ERGO    R516536   7.342   8.363   8.737 -0.2208  0.2848  0.1999
 1199ERGO    C116537   7.271   8.262   8.376  0.1226  0.4721  0.0750
 1199ERGO    C216538   7.186   8.152   8.167  0.3394 -0.0901  0.0510
 1200ERGO   ROH16539   6.163  13.074   6.730 -0.0470  0.0981 -0.0955
 1200ERGO    R116540   6.170  12.994   7.002 -0.0678  0.2660 -0.0446
 1200ERGO    R216541   6.000  13.101   7.193 -0.1833  0.2798 -0.1528
 1200ERGO    R316542   5.939  12.840   7.237 -0.0353  0.2672 -0.0123
 1200ERGO    R416543   5.888  12.972   7.493 -0.1071  0.3730 -0.0834
 1200ERGO    R516544   6.014  12.798   7.460 -0.0094  0.4271  0.0093
 1200ERGO    C116545   5.765  12.652   7.709  0.0761  0.4155  0.0889
 1200ERGO    C216546   5.474  12.354   7.714  0.1976  0.1753  0.0881
 1201ERGO   ROH16547   0.098   2.719  10.317 -0.2473  0.0653  0.0473
 1201ERGO    R116548   0.046   2.565  10.085 -0.0046  0.0217  0.0184
 1201ERGO    R216549  -0.105   2.661   9.873 -0.0653 -0.1375 -0.0142
 1201ERGO    R316550   0.115   2.593   9.729  0.0566  0.1367  0.0390
 1201ERGO    R416551  -0.098   2.615   9.530  0.0178 -0.3478  0.0147
 1201ERGO    R516552   0.033   2.445   9.560  0.3063 -0.1131  0.1304
 1201ERGO    C116553   0.113   2.525   9.196  0.1808 -0.2129  0.0815
 1201ERGO    C216554   0.108   2.486   8.772  0.0360 -0.0703  0.0459
 1202ERGO   ROH16555  15.900   6.383   6.495 -0.1520  0.0106  0.0422
 1202ERGO    R116556  15.890   6.474   6.762  0.0140  0.1358  0.0081
 1202ERGO    R216557  15.744   6.344   6.958 -0.0534  0.3553  0.1089
 1202ERGO    R316558  15.982   6.344   7.090 -0.0113  0.1857  0.0346
 1202ERGO    R416559  15.799   6.198   7.266 -0.0486  0.2879  0.0760
 1202ERGO    R516560  15.922   6.370   7.320  0.0803  0.2007  0.0553
 1202ERGO    C116561  16.055   6.113   7.569 -0.0064  0.0895 -0.0129
 1202ERGO    C216562  16.142   6.036   7.932 -0.0561 -0.0474 -0.1831
 1203ERGO   ROH16563  12.067  12.095  10.228  0.2304 -0.3134 -0.0454
 1203ERGO    R116564  12.174  11.997   9.986 -0.0615 -0.3619 -0.1599
 1203ERGO    R216565  12.032  11.831   9.817 -0.4093 -0.0953 -0.1484
 1203ERGO    R316566  12.093  12.020   9.632 -0.2623 -0.0918 -0.0981
 1203ERGO    R416567  11.975  11.800   9.478 -0.1314 -0.0823 -0.1987
 1203ERGO    R516568  12.168  11.895   9.441 -0.1065 -0.0808 -0.0410
 1203ERGO    C116569  11.998  11.960   9.106  0.1683 -0.0713 -0.1806
 1203ERGO    C216570  12.049  11.911   8.689 -0.0190  0.2042  0.0490
 1204ERGO   ROH16571  17.445   6.990   6.283 -0.1105 -0.3488  0.1329
 1204ERGO    R116572  17.383   7.063   6.550 -0.3104 -0.2683  0.0673
 1204ERGO    R216573  17.176   6.948   6.692 -0.1352 -0.5604  0.0972
 1204ERGO    R316574  17.372   6.896   6.873 -0.0715 -0.0653  0.1841
 1204ERGO    R416575  17.124   6.887   7.028 -0.0790 -0.2820  0.1586
 1204ERGO    R516576  17.300   7.007   7.072 -0.2665  0.0407  0.0569
 1204ERGO    C116577  17.277   6.803   7.394  0.0136  0.3448  0.2759
 1204ERGO    C216578  17.485   6.618   7.667  0.0582 -0.0725  0.0258
 1205ERGO   ROH16579  14.592  14.248   6.744 -0.2429  0.0365 -0.0118
 1205ERGO    R116580  14.686  14.289   7.008 -0.1188  0.0353 -0.0544
 1205ERGO    R216581  14.591  14.145   7.224 -0.0730  0.0852  0.0024
 1205ERGO    R316582  14.855  14.092   7.263 -0.0725  0.0088 -0.1068
 1205ERGO    R416583  14.730  14.032   7.520  0.0438  0.1933 -0.0110
 1205ERGO    R516584  14.899  14.165   7.486  0.0738  0.1114 -0.1700
 1205ERGO    C116585  15.059  13.917   7.728  0.1125  0.1844 -0.1213
 1205ERGO    C216586  14.940  13.779   8.009  0.0351 -0.1559 -0.1120
 1206ERGO   ROH16587   4.602   2.836   6.306 -0.0989 -0.0926  0.0541
 1206ERGO    R116588   4.626   2.680   6.541 -0.1061 -0.1544  0.0150
 1206ERGO    R216589   4.616   2.403   6.537  0.0814 -0.1667 -0.0818
 1206ERGO    R316590   4.854   2.425   6.666  0.0072 -0.0418  0.0348
 1206ERGO    R416591   4.739   2.175   6.765  0.0869 -0.0820 -0.0003
 1206ERGO    R516592   4.811   2.341   6.886 -0.0544 -0.0412  0.0184
 1206ERGO    C116593   5.035   2.062   7.019  0.0205  0.0845  0.1566
 1206ERGO    C216594   5.249   1.825   7.061  0.0576  0.1307  0.2474
 1207ERGO   ROH16595   8.382   6.132   9.724 -0.0833 -0.3390 -0.0241
 1207ERGO    R116596   8.186   6.224   9.541 -0.0176 -0.1540 -0.0030
 1207ERGO    R216597   8.249   6.378   9.321  0.0761 -0.0280  0.1119
 1207ERGO    R316598   8.116   6.183   9.187  0.0375  0.1037 -0.0457
 1207ERGO    R416599   8.081   6.422   9.022  0.1454  0.2288  0.1082
 1207ERGO    R516600   7.923   6.293   9.097  0.0889  0.2274 -0.0082
 1207ERGO    C116601   7.858   6.265   8.722  0.1494  0.5019 -0.0418
 1207ERGO    C216602   7.771   6.138   8.350 -0.2825  0.2584  0.0316
 1208ERGO   ROH16603   8.400  15.767   6.333 -0.1615  0.0342  0.0321
 1208ERGO    R116604   8.428  15.699   6.606 -0.0556 -0.0645 -0.0030
 1208ERGO    R216605   8.216  15.703   6.783  0.0376 -0.0072  0.1072
 1208ERGO    R316606   8.294  15.447   6.831 -0.0713 -0.0635 -0.0109
 1208ERGO    R416607   8.105  15.510   7.048  0.1063 -0.0123  0.1329
 1208ERGO    R516608   8.308  15.433   7.070  0.0813 -0.1316 -0.0224
 1208ERGO    C116609   8.113  15.157   7.247  0.0442 -0.0682  0.0370
 1208ERGO    C216610   8.030  14.873   7.323  0.1284 -0.3743  0.1280
 1209ERGO   ROH16611   8.166   8.724   6.113 -0.0401 -0.0001 -0.0467
 1209ERGO    R116612   8.188   8.770   6.391 -0.0063 -0.0819 -0.0360
 1209ERGO    R216613   8.259   8.571   6.569  0.0240 -0.1307 -0.1051
 1209ERGO    R316614   8.449   8.750   6.644  0.0262 -0.1455 -0.0737
 1209ERGO    R416615   8.384   8.604   6.890 -0.1564 -0.0228 -0.0443
 1209ERGO    R516616   8.382   8.821   6.862 -0.0865 -0.0320 -0.1423
 1209ERGO    C116617   8.635   8.792   7.146 -0.2594  0.0260  0.0205
 1209ERGO    C216618   8.811   9.025   7.274 -0.0497  0.1559 -0.2960
 1210ERGO   ROH16619  16.114  17.152   6.443 -0.1973 -0.0470  0.0980
 1210ERGO    R116620  15.918  17.066   6.627 -0.1325 -0.0352  0.1736
 1210ERGO    R216621  15.971  16.880   6.825 -0.0705 -0.0406  0.1528
 1210ERGO    R316622  15.872  17.074   6.988  0.0070 -0.0364  0.1914
 1210ERGO    R416623  15.910  16.841   7.163 -0.0965 -0.0902  0.1421
 1210ERGO    R516624  15.726  16.956   7.138 -0.0460 -0.0079  0.1615
 1210ERGO    C116625  15.782  16.999   7.513 -0.0389 -0.1150  0.1720
 1210ERGO    C216626  16.034  16.941   7.803  0.0218 -0.1157  0.4359
 1211ERGO   ROH16627  17.105   8.996   6.299 -0.1379  0.1436  0.1103
 1211ERGO    R116628  17.110   8.889   6.561 -0.0151 -0.0239  0.0415
 1211ERGO    R216629  17.331   8.762   6.666  0.1434  0.1848 -0.0355
 1211ERGO    R316630  17.301   8.944   6.865 -0.0953  0.0195  0.0847
 1211ERGO    R416631  17.375   8.697   7.003  0.1855  0.0105 -0.0736
 1211ERGO    R516632  17.201   8.821   7.045  0.0301 -0.2213 -0.0062
 1211ERGO    C116633  17.372   8.829   7.386 -0.0139 -0.2461  0.0170
 1211ERGO    C216634  17.477   8.943   7.655  0.0167 -0.0420  0.4296
 1212ERGO   ROH16635  10.513   3.834   7.262 -0.1359  0.0567  0.1348
 1212ERGO    R116636  10.459   4.103   7.192 -0.0627  0.0936  0.2148
 1212ERGO    R216637  10.437   4.305   7.379  0.0486  0.0572  0.2734
 1212ERGO    R316638  10.627   4.424   7.226  0.0549  0.0266  0.2581
 1212ERGO    R416639  10.494   4.645   7.364  0.0425  0.0542  0.1833
 1212ERGO    R516640  10.524   4.626   7.149  0.0594  0.0010  0.1960
 1212ERGO    C116641  10.706   4.955   7.211  0.0447  0.0238  0.1164
 1212ERGO    C216642  10.700   5.251   7.285 -0.1695  0.0252 -0.1133
 1213ERGO   ROH16643   1.557  10.962   6.336  0.0060  0.0013  0.0867
 1213ERGO    R116644   1.410  11.001   6.574 -0.0543 -0.0452  0.0585
 1213ERGO    R216645   1.301  10.792   6.718 -0.0006 -0.0842  0.0505
 1213ERGO    R316646   1.440  10.903   6.923 -0.0783 -0.0185  0.0670
 1213ERGO    R416647   1.222  10.756   7.052 -0.0124 -0.1297  0.0420
 1213ERGO    R516648   1.272  10.966   7.082 -0.1227 -0.1076  0.0521
 1213ERGO    C116649   1.306  10.839   7.440 -0.0923 -0.0947  0.0526
 1213ERGO    C216650   1.398  10.704   7.709  0.2057 -0.3625 -0.2965
 1214ERGO   ROH16651   6.269   5.730   9.882  0.1191 -0.1045 -0.1624
 1214ERGO    R116652   6.163   5.672   9.626  0.1997 -0.1268 -0.1913
 1214ERGO    R216653   5.975   5.834   9.503  0.0047 -0.3010 -0.1316
 1214ERGO    R316654   6.156   5.835   9.300  0.0171  0.0055 -0.1225
 1214ERGO    R416655   5.898   5.883   9.169 -0.0311 -0.2363 -0.1135
 1214ERGO    R516656   6.043   5.728   9.118  0.1541 -0.0437 -0.1784
 1214ERGO    C116657   6.023   5.912   8.785 -0.0404  0.0892 -0.0946
 1214ERGO    C216658   6.006   5.918   8.430  0.0294  0.0309 -0.1105
 1215ERGO   ROH16659   0.820  10.002   6.338 -0.0170  0.1675 -0.0604
 1215ERGO    R116660   0.831  10.053   6.616  0.2006 -0.0729 -0.0216
 1215ERGO    R216661   0.609  10.127   6.763  0.3983  0.2480  0.1239
 1215ERGO    R316662   0.681   9.914   6.917  0.0509 -0.0224 -0.0712
 1215ERGO    R416663   0.543  10.096   7.101  0.5423  0.1570  0.1452
 1215ERGO    R516664   0.742  10.011   7.127  0.3920 -0.2891 -0.0357
 1215ERGO    C116665   0.572   9.879   7.442  0.2999 -0.1499 -0.0256
 1215ERGO    C216666   0.527   9.752   7.715 -0.2316 -0.2538 -0.0932
 1216ERGO   ROH16667   7.268   6.288   9.892 -0.2240  0.3138  0.1105
 1216ERGO    R116668   7.228   6.197   9.627  0.0044  0.1362  0.1345
 1216ERGO    R216669   6.988   6.225   9.494  0.0510 -0.1527 -0.0147
 1216ERGO    R316670   7.142   6.346   9.306  0.0434 -0.1123  0.0050
 1216ERGO    R416671   6.882   6.309   9.176  0.0415 -0.1261 -0.0042
 1216ERGO    R516672   7.076   6.244   9.100  0.0542 -0.0973 -0.0094
 1216ERGO    C116673   6.966   6.472   8.814  0.0289 -0.0726  0.0204
 1216ERGO    C216674   6.892   6.532   8.517  0.0623  0.1422  0.1320
 1217ERGO   ROH16675   0.408   8.000   6.286  0.0495 -0.0183  0.0495
 1217ERGO    R116676   0.323   7.889   6.531 -0.1529  0.0795  0.0246
 1217ERGO    R216677   0.486   7.873   6.753 -0.1781 -0.2570  0.0225
 1217ERGO    R316678   0.281   8.004   6.874  0.0460  0.0848  0.0488
 1217ERGO    R416679   0.394   7.834   7.084 -0.2323 -0.1468  0.0215
 1217ERGO    R516680   0.186   7.841   7.022 -0.2299  0.2217  0.0304
 1217ERGO    C116681   0.148   7.933   7.390 -0.0535  0.2383  0.0456
 1217ERGO    C216682   0.312   8.004   7.633  0.1570  0.1261 -0.0394
 1218ERGO   ROH16683   0.232  15.646   6.624 -0.1266 -0.0133 -0.0059
 1218ERGO    R116684   0.114  15.789   6.838 -0.0861 -0.0616  0.0493
 1218ERGO    R216685   0.238  15.822   7.082  0.0537  0.0644 -0.0382
 1218ERGO    R316686   0.193  16.086   7.034 -0.1629  0.0269 -0.0512
 1218ERGO    R416687   0.201  16.064   7.326  0.3450  0.1197 -0.0457
 1218ERGO    R516688   0.042  16.153   7.207  0.0913  0.0010  0.1899
 1218ERGO    C116689   0.138  16.452   7.423  0.3111  0.1167 -0.0623
 1218ERGO    C216690   0.198  16.528   7.686  0.0070 -0.0292 -0.2408
 1219ERGO   ROH16691  14.153   4.032   6.379 -0.0331 -0.3895 -0.1902
 1219ERGO    R116692  14.277   4.024   6.633  0.0099 -0.2878 -0.2071
 1219ERGO    R216693  14.134   4.024   6.869  0.0530 -0.0507 -0.1775
 1219ERGO    R316694  14.278   3.799   6.920 -0.0616 -0.0978 -0.0570
 1219ERGO    R416695  14.147   3.865   7.176  0.1120  0.2041 -0.0448
 1219ERGO    R516696  14.361   3.832   7.143  0.0740  0.0431 -0.1279
 1219ERGO    C116697  14.291   3.561   7.402  0.0388  0.3084  0.1455
 1219ERGO    C216698  14.083   3.303   7.563 -0.1224 -0.2234 -0.0284
 1220ERGO   ROH16699   7.063   0.836   6.171  0.1681  0.0188 -0.1606
 1220ERGO    R116700   7.207   0.972   6.373 -0.0755  0.0920 -0.0324
 1220ERGO    R216701   7.088   1.063   6.606 -0.2214 -0.4630  0.1191
 1220ERGO    R316702   7.285   0.918   6.724  0.1438 -0.1808 -0.1178
 1220ERGO    R416703   7.219   1.125   6.920 -0.2217 -0.4973  0.1261
 1220ERGO    R516704   7.416   1.079   6.842 -0.1430 -0.0066 -0.0148
 1220ERGO    C116705   7.479   1.024   7.214  0.1211 -0.2524 -0.0922
 1220ERGO    C216706   7.441   0.871   7.535 -0.0585 -0.0666  0.0045
 1221ERGO   ROH16707  14.633   0.446   6.257  0.1737  0.0296  0.1968
 1221ERGO    R116708  14.549   0.382   6.520  0.1508  0.0635  0.1994
 1221ERGO    R216709  14.452   0.572   6.696  0.1093  0.0867  0.1635
 1221ERGO    R316710  14.240   0.402   6.711  0.1272  0.0665  0.1570
 1221ERGO    R416711  14.258   0.522   6.978  0.0229  0.1491  0.1142
 1221ERGO    R516712  14.254   0.309   6.931  0.0641  0.1406  0.1861
 1221ERGO    C116713  13.946   0.334   7.156 -0.0104  0.1664  0.0792
 1221ERGO    C216714  13.792   0.412   7.396 -0.2455 -0.1191 -0.0094
 1222ERGO   ROH16715  15.945   2.328   6.539  0.4733 -0.1148 -0.1114
 1222ERGO    R116716  16.104   2.384   6.767  0.3181  0.0003 -0.0285
 1222ERGO    R216717  16.147   2.641   6.859  0.1737  0.0417 -0.0685
 1222ERGO    R316718  16.055   2.537   7.093  0.0665  0.0698 -0.0980
 1222ERGO    R416719  16.252   2.739   7.173  0.1209 -0.0132 -0.0338
 1222ERGO    R516720  16.248   2.530   7.235  0.0211 -0.0119 -0.0423
 1222ERGO    C116721  16.227   2.699   7.576 -0.0107 -0.0187 -0.0413
 1222ERGO    C216722  16.292   2.931   7.864 -0.0069  0.1602  0.0762
 1223ERGO   ROH16723  13.295   2.824   9.783 -0.2499  0.0471  0.0766
 1223ERGO    R116724  13.279   2.728   9.517 -0.0886  0.0634  0.0598
 1223ERGO    R216725  13.204   2.889   9.305 -0.1938  0.0179  0.0615
 1223ERGO    R316726  13.439   2.803   9.199 -0.0799  0.2613  0.1093
 1223ERGO    R416727  13.265   2.847   8.967 -0.1641 -0.1499  0.0868
 1223ERGO    R516728  13.374   2.664   9.015  0.0937  0.0315  0.2154
 1223ERGO    C116729  13.520   2.742   8.671 -0.0399 -0.0191  0.1465
 1223ERGO    C216730  13.487   2.755   8.370  0.2673  0.0766  0.2033
 1224ERGO   ROH16731   1.327  14.156   9.966 -0.0584 -0.0550  0.0443
 1224ERGO    R116732   1.372  14.280   9.715 -0.0566 -0.0671  0.0384
 1224ERGO    R216733   1.611  14.258   9.579 -0.0674 -0.1006  0.0259
 1224ERGO    R316734   1.451  14.172   9.377 -0.0886 -0.0853  0.0364
 1224ERGO    R416735   1.628  14.371   9.253  0.0091 -0.1872 -0.0006
 1224ERGO    R516736   1.410  14.369   9.247  0.0056 -0.0973 -0.0159
 1224ERGO    C116737   1.486  14.357   8.873  0.0337 -0.2233 -0.0061
 1224ERGO    C216738   1.383  14.243   8.515 -0.1885 -0.2143  0.1726
 1225ERGO   ROH16739  11.486   4.448   9.505 -0.0660 -0.2381  0.0979
 1225ERGO    R116740  11.449   4.500   9.229  0.2239 -0.1505  0.0724
 1225ERGO    R216741  11.576   4.353   9.032  0.1833 -0.3060  0.1549
 1225ERGO    R316742  11.322   4.319   8.940  0.1977  0.0557 -0.0466
 1225ERGO    R416743  11.495   4.270   8.707  0.3240 -0.3537  0.1316
 1225ERGO    R516744  11.328   4.410   8.718  0.5369 -0.0719 -0.0945
 1225ERGO    C116745  11.210   4.189   8.430  0.4194 -0.0420 -0.0712
 1225ERGO    C216746  11.152   4.225   8.073  0.0932 -0.3678 -0.1508
 1226ERGO   ROH16747   6.664   0.247   6.573  0.0698  0.1946  0.0017
 1226ERGO    R116748   6.483   0.389   6.738  0.0012  0.1289 -0.0162
 1226ERGO    R216749   6.327   0.265   6.929  0.0499  0.0755 -0.0108
 1226ERGO    R316750   6.441   0.448   7.095 -0.0361  0.1407 -0.0225
 1226ERGO    R416751   6.169   0.411   7.200 -0.0636  0.1197 -0.0996
 1226ERGO    R516752   6.263   0.600   7.147 -0.0807  0.1227 -0.1201
 1226ERGO    C116753   6.185   0.667   7.514 -0.2106  0.2067 -0.1623
 1226ERGO    C216754   6.121   0.893   7.743  0.1263 -0.3228 -0.1383
 1227ERGO   ROH16755   9.932   2.841   5.843  0.0409 -0.0586 -0.0161
 1227ERGO    R116756   9.816   2.902   6.094  0.1048 -0.0275  0.0056
 1227ERGO    R216757   9.547   2.863   6.147  0.0673  0.2204 -0.0047
 1227ERGO    R316758   9.643   2.718   6.356 -0.0733  0.0549 -0.0522
 1227ERGO    R416759   9.423   2.876   6.469 -0.0273  0.1135 -0.0358
 1227ERGO    R516760   9.628   2.867   6.543 -0.0520 -0.0353  0.0241
 1227ERGO    C116761   9.440   2.748   6.853 -0.2144 -0.1041 -0.0984
 1227ERGO    C216762   9.400   2.625   7.087  0.2418 -0.1617 -0.1000
 1228ERGO   ROH16763   4.653  10.700   6.253  0.2087 -0.1736  0.0834
 1228ERGO    R116764   4.518  10.882   6.423  0.1318 -0.2696  0.1264
 1228ERGO    R216765   4.346  11.076   6.328  0.4068 -0.0166  0.1255
 1228ERGO    R316766   4.172  10.962   6.504  0.0844 -0.0967 -0.2308
 1228ERGO    R416767   4.098  11.246   6.499  0.4765  0.0236  0.1864
 1228ERGO    R516768   4.146  11.127   6.675  0.1517 -0.3535  0.0338
 1228ERGO    C116769   3.792  11.239   6.763  0.2144 -0.0284 -0.1125
 1228ERGO    C216770   3.491  11.118   6.868 -0.3382 -0.0403 -0.1081
 1229ERGO   ROH16771  10.080   8.777   9.965 -0.0378  0.1616 -0.0095
 1229ERGO    R116772  10.213   8.777   9.715 -0.0204 -0.0448 -0.0031
 1229ERGO    R216773  10.195   8.566   9.537 -0.1980 -0.0966  0.0658
 1229ERGO    R316774  10.116   8.761   9.365 -0.0163 -0.0818 -0.0011
 1229ERGO    R416775  10.223   8.551   9.193 -0.1092 -0.1844  0.0776
 1229ERGO    R516776  10.281   8.760   9.193  0.0296 -0.2274  0.0475
 1229ERGO    C116777  10.165   8.725   8.831  0.1131 -0.2217  0.0215
 1229ERGO    C216778  10.316   8.895   8.591  0.2409  0.2400  0.0769
 1230ERGO   ROH16779   9.419   8.662   6.353 -0.1650  0.1987 -0.2547
 1230ERGO    R116780   9.555   8.724   6.593 -0.1027 -0.2632 -0.1597
 1230ERGO    R216781   9.516   8.961   6.729  0.4858 -0.1804 -0.0994
 1230ERGO    R316782   9.464   8.795   6.938 -0.0917 -0.1273 -0.1847
 1230ERGO    R416783   9.438   9.065   7.050  0.6586 -0.0763 -0.0910
 1230ERGO    R516784   9.564   8.904   7.127  0.1626 -0.4897 -0.1009
 1230ERGO    C116785   9.345   8.969   7.432  0.2172  0.0342 -0.1662
 1230ERGO    C216786   9.326   8.953   7.790  0.3156  0.1051 -0.2565
 1231ERGO   ROH16787  10.211  13.159   6.408 -0.1232  0.1541 -0.0546
 1231ERGO    R116788  10.076  13.144   6.657 -0.0914  0.1146 -0.0394
 1231ERGO    R216789  10.189  13.230   6.893 -0.0569  0.0675 -0.0378
 1231ERGO    R316790   9.961  13.378   6.910 -0.0488  0.0736  0.0181
 1231ERGO    R416791  10.057  13.357   7.187 -0.0022  0.0391 -0.0010
 1231ERGO    R516792   9.858  13.305   7.113 -0.0163  0.0546  0.0274
 1231ERGO    C116793   9.766  13.569   7.373  0.0372  0.0284  0.0729
 1231ERGO    C216794   9.739  13.809   7.589  0.0455 -0.0407  0.0345
 1232ERGO   ROH16795   9.607   0.340   9.679 -0.3163 -0.3174 -0.0395
 1232ERGO    R116796   9.768   0.322   9.448 -0.2854 -0.1765 -0.0293
 1232ERGO    R216797   9.738   0.121   9.261 -0.2897 -0.0375 -0.1773
 1232ERGO    R316798   9.716   0.329   9.088 -0.2297  0.0901 -0.0350
 1232ERGO    R416799   9.749   0.093   8.917 -0.1251  0.2137 -0.1957
 1232ERGO    R516800   9.868   0.275   8.911 -0.1391  0.2344 -0.0048
 1232ERGO    C116801   9.735   0.272   8.553  0.0270  0.4798 -0.0728
 1232ERGO    C216802   9.739   0.163   8.136 -0.2736 -0.1055 -0.2245
 1233ERGO   ROH16803   4.953   0.851  10.305 -0.0974  0.0317 -0.0361
 1233ERGO    R116804   4.802   0.907  10.073 -0.0121  0.1732 -0.0585
 1233ERGO    R216805   4.832   1.140   9.927  0.2008  0.1607 -0.0326
 1233ERGO    R316806   4.871   0.968   9.721  0.0983  0.1482 -0.0421
 1233ERGO    R416807   4.675   1.160   9.621  0.2631  0.3173 -0.0558
 1233ERGO    R516808   4.654   0.943   9.622  0.0913  0.3296 -0.0785
 1233ERGO    C116809   4.618   1.010   9.248  0.2031  0.3967 -0.0782
 1233ERGO    C216810   4.709   0.895   8.929  0.2713  0.0458 -0.0308
 1234ERGO   ROH16811   0.948   1.315   7.038  0.1732 -0.1812  0.0751
 1234ERGO    R116812   1.127   1.513   7.131  0.1067 -0.1430  0.1242
 1234ERGO    R216813   1.171   1.750   6.996  0.2018 -0.1928  0.0587
 1234ERGO    R316814   1.105   1.861   7.235  0.0275 -0.1025 -0.0298
 1234ERGO    R416815   1.330   2.022   7.138  0.0906 -0.1381  0.0787
 1234ERGO    R516816   1.316   1.923   7.331 -0.0478 -0.0627  0.1023
 1234ERGO    C116817   1.361   2.285   7.445 -0.1377 -0.0216  0.0072
 1234ERGO    C216818   1.325   2.619   7.499  0.1187 -0.0420  0.0724
 1235ERGO   ROH16819   4.087   3.292   9.950 -0.2727  0.0259 -0.1453
 1235ERGO    R116820   4.090   3.408   9.692 -0.2295  0.1241 -0.1020
 1235ERGO    R216821   4.275   3.337   9.499 -0.1323  0.2691 -0.0690
 1235ERGO    R316822   4.053   3.292   9.349 -0.0644  0.2347 -0.1577
 1235ERGO    R416823   4.276   3.284   9.158  0.0217  0.1410 -0.0493
 1235ERGO    R516824   4.096   3.407   9.143  0.0420  0.1516 -0.1806
 1235ERGO    C116825   4.067   3.210   8.818  0.1751  0.0342 -0.1211
 1235ERGO    C216826   4.120   3.169   8.499 -0.0790  0.0486 -0.2447
 1236ERGO   ROH16827   5.843   1.215   6.766 -0.1503 -0.0004  0.1624
 1236ERGO    R116828   5.611   1.195   6.928 -0.1009  0.0748  0.2437
 1236ERGO    R216829   5.621   1.203   7.205 -0.0173  0.2120  0.2368
 1236ERGO    R316830   5.441   1.404   7.172 -0.0311  0.1918  0.1937
 1236ERGO    R416831   5.453   1.364   7.460 -0.0276  0.2507  0.2055
 1236ERGO    R516832   5.274   1.364   7.338 -0.0283  0.2120  0.2034
 1236ERGO    C116833   5.187   1.647   7.578 -0.0467  0.2541  0.1467
 1236ERGO    C216834   5.230   1.878   7.919  0.1074 -0.1487  0.1791
 1237ERGO   ROH16835  16.366   5.424  10.247 -0.0191 -0.0064 -0.2122
 1237ERGO    R116836  16.402   5.573  10.010 -0.1244 -0.1258 -0.3036
 1237ERGO    R216837  16.650   5.615   9.896 -0.1313  0.1541 -0.2087
 1237ERGO    R316838  16.531   5.511   9.675  0.1288 -0.1807 -0.1993
 1237ERGO    R416839  16.712   5.718   9.572 -0.2870  0.1993 -0.2254
 1237ERGO    R516840  16.499   5.699   9.531 -0.2561 -0.2804 -0.2612
 1237ERGO    C116841  16.636   5.680   9.176 -0.1337 -0.0888 -0.2263
 1237ERGO    C216842  16.648   5.727   8.772 -0.1396 -0.2020 -0.1251
 1238ERGO   ROH16843  12.202  10.764   6.536  0.0110 -0.0379  0.0266
 1238ERGO    R116844  12.202  10.842   6.808  0.0171 -0.0370  0.0262
 1238ERGO    R216845  12.062  10.705   7.003  0.0422 -0.0509  0.0339
 1238ERGO    R316846  12.304  10.696   7.126  0.0495 -0.0246  0.0215
 1238ERGO    R416847  12.111  10.638   7.338  0.0740 -0.1576  0.0084
 1238ERGO    R516848  12.265  10.792   7.342  0.0294 -0.1135  0.0579
 1238ERGO    C116849  12.367  10.591   7.649  0.0993 -0.1951 -0.0180
 1238ERGO    C216850  12.535  10.320   7.765  0.2482 -0.1044 -0.1498
 1239ERGO   ROH16851   8.892   8.477   9.562  0.0448  0.2380  0.0218
 1239ERGO    R116852   8.787   8.532   9.304  0.1489  0.4096  0.0140
 1239ERGO    R216853   8.944   8.616   9.094  0.3266  0.0402 -0.0074
 1239ERGO    R316854   8.832   8.403   8.967 -0.1273  0.2409  0.0374
 1239ERGO    R416855   8.912   8.586   8.751  0.4471 -0.0386 -0.0125
 1239ERGO    R516856   8.713   8.500   8.783  0.2059  0.4544 -0.0760
 1239ERGO    C116857   8.787   8.370   8.432  0.0910  0.1040  0.0267
 1239ERGO    C216858   8.900   8.252   8.064 -0.2219  0.1726 -0.0587
 1240ERGO   ROH16859  13.362   3.592   6.367 -0.3331 -0.1735 -0.0952
 1240ERGO    R116860  13.250   3.649   6.621 -0.2639 -0.0629 -0.0891
 1240ERGO    R216861  13.300   3.885   6.757 -0.1452 -0.0488 -0.1608
 1240ERGO    R316862  13.028   3.901   6.761 -0.1388  0.0616 -0.1113
 1240ERGO    R416863  13.116   4.069   6.985 -0.0268 -0.0165 -0.0901
 1240ERGO    R516864  12.973   3.906   6.994 -0.0942  0.0381 -0.0979
 1240ERGO    C116865  12.755   4.192   7.121  0.0483  0.1059 -0.0025
 1240ERGO    C216866  12.563   4.388   7.298  0.0536  0.0055 -0.0030
 1241ERGO   ROH16867   1.510   7.265  10.258 -0.0391 -0.0255 -0.0531
 1241ERGO    R116868   1.626   7.177  10.016  0.0023 -0.1102 -0.0032
 1241ERGO    R216869   1.507   6.988   9.853 -0.0128 -0.1015 -0.0016
 1241ERGO    R316870   1.537   7.180   9.663  0.1055 -0.1480 -0.0304
 1241ERGO    R416871   1.482   6.934   9.513 -0.0259 -0.1449  0.0065
 1241ERGO    R516872   1.651   7.068   9.484  0.0531 -0.2434 -0.0062
 1241ERGO    C116873   1.495   7.082   9.136  0.0774 -0.2139 -0.0156
 1241ERGO    C216874   1.395   7.019   8.832 -0.3290  0.0778 -0.4653
 1242ERGO   ROH16875   8.198   7.517   6.474  0.0487  0.1276 -0.0384
 1242ERGO    R116876   8.252   7.585   6.744 -0.0856 -0.0860  0.0455
 1242ERGO    R216877   8.317   7.396   6.935  0.3068 -0.1975 -0.1847
 1242ERGO    R316878   8.534   7.556   6.972 -0.0114  0.2108 -0.0051
 1242ERGO    R416879   8.498   7.418   7.228  0.3144 -0.2288 -0.1869
 1242ERGO    R516880   8.513   7.634   7.197 -0.1387 -0.1444  0.1102
 1242ERGO    C116881   8.807   7.581   7.435  0.0200  0.1362 -0.0196
 1242ERGO    C216882   9.077   7.373   7.679  0.1169 -0.1138 -0.2481
 1243ERGO   ROH16883   6.799  15.563   6.809  0.0390 -0.3044  0.0640
 1243ERGO    R116884   6.574  15.487   6.964  0.0505 -0.1359  0.1671
 1243ERGO    R216885   6.571  15.503   7.240  0.0358  0.2602  0.1506
 1243ERGO    R316886   6.347  15.649   7.197  0.0042  0.1487 -0.0710
 1243ERGO    R416887   6.297  15.511   7.450 -0.0328  0.3873  0.0561
 1243ERGO    R516888   6.168  15.510   7.274  0.0234  0.1702  0.0135
 1243ERGO    C116889   5.925  15.653   7.531 -0.1025  0.3567 -0.2070
 1243ERGO    C216890   5.800  15.952   7.643 -0.0320 -0.1474  0.0789
 1244ERGO   ROH16891   9.278  15.053   6.398 -0.1673 -0.2388 -0.0630
 1244ERGO    R116892   9.248  14.917   6.645 -0.0805 -0.2617 -0.0652
 1244ERGO    R216893   9.434  14.735   6.738  0.1076 -0.0423 -0.0026
 1244ERGO    R316894   9.432  14.894   6.958 -0.1419 -0.0305 -0.0101
 1244ERGO    R416895   9.546  14.641   7.051  0.4253  0.2004 -0.0379
 1244ERGO    R516896   9.377  14.746   7.138  0.2305 -0.1447  0.0192
 1244ERGO    C116897   9.609  14.735   7.440  0.3762  0.3526 -0.0654
 1244ERGO    C216898   9.870  14.658   7.667 -0.3099 -0.2291  0.0642
 1245ERGO   ROH16899  16.509   5.157   7.044 -0.3044 -0.1123 -0.1239
 1245ERGO    R116900  16.359   5.210   7.279 -0.2891 -0.2125 -0.0898
 1245ERGO    R216901  16.232   5.010   7.422 -0.0565 -0.3151 -0.0096
 1245ERGO    R316902  16.375   5.113   7.629 -0.0885 -0.1332 -0.0776
 1245ERGO    R416903  16.170   4.947   7.756 -0.0773 -0.0399  0.0404
 1245ERGO    R516904  16.212   5.156   7.799 -0.1014 -0.0066 -0.1278
 1245ERGO    C116905  16.268   5.006   8.145 -0.1197  0.2910  0.0059
 1245ERGO    C216906  16.355   4.746   8.332  0.2306 -0.1456 -0.1706
 1246ERGO   ROH16907   5.092   4.315   5.967 -0.1055 -0.0084 -0.0423
 1246ERGO    R116908   5.050   4.277   6.245  0.0154  0.0810 -0.0119
 1246ERGO    R216909   5.225   4.133   6.404  0.0238  0.0377 -0.0671
 1246ERGO    R316910   5.226   4.361   6.552  0.2091  0.0722 -0.1173
 1246ERGO    R416911   5.346   4.159   6.727 -0.1192 -0.0422 -0.0054
 1246ERGO    R516912   5.177   4.288   6.774 -0.0008  0.1703 -0.1252
 1246ERGO    C116913   5.418   4.388   7.053 -0.0283 -0.0563 -0.0167
 1246ERGO    C216914   5.525   4.492   7.304  0.1975 -0.0575 -0.0922
 1247ERGO   ROH16915   9.155   8.015   6.286 -0.1945  0.0555  0.1738
 1247ERGO    R116916   9.306   7.869   6.475 -0.0801 -0.0345  0.0149
 1247ERGO    R216917   9.583   7.870   6.477 -0.0788  0.1765  0.0106
 1247ERGO    R316918   9.548   7.945   6.736 -0.1367 -0.1284  0.0956
 1247ERGO    R416919   9.797   7.790   6.736  0.0700  0.1889 -0.1073
 1247ERGO    R516920   9.623   7.757   6.863  0.1299 -0.1662 -0.1073
 1247ERGO    C116921   9.889   7.814   7.130  0.1022 -0.0900 -0.0960
 1247ERGO    C216922   9.869   7.657   7.426  0.1111  0.0073 -0.1040
 1248ERGO   ROH16923  11.431  17.730   6.053  0.3698  0.1349 -0.0937
 1248ERGO    R116924  11.351  17.771   6.321  0.0856  0.0813 -0.1664
 1248ERGO    R216925  11.353  17.569   6.509 -0.0091  0.0693 -0.1769
 1248ERGO    R316926  11.505  17.745   6.650 -0.2252  0.1290 -0.0133
 1248ERGO    R416927  11.356  17.595   6.854 -0.0887 -0.2092 -0.1530
 1248ERGO    R516928  11.364  17.812   6.832 -0.3293 -0.1773  0.0255
 1248ERGO    C116929  11.500  17.776   7.186 -0.3378 -0.3152  0.0146
 1248ERGO    C216930  11.522  17.620   7.503  0.2202  0.0539 -0.0050
 1249ERGO   ROH16931   9.945   1.320   9.359 -0.0970 -0.0348 -0.0616
 1249ERGO    R116932   9.848   1.276   9.096 -0.0772 -0.0052 -0.0742
 1249ERGO    R216933   9.658   1.438   8.978 -0.0515  0.0227 -0.0798
 1249ERGO    R316934   9.844   1.458   8.781 -0.0305  0.0202 -0.0598
 1249ERGO    R416935   9.603   1.361   8.646  0.0620 -0.2402 -0.0405
 1249ERGO    R516936   9.801   1.271   8.639  0.1269 -0.1068  0.0573
 1249ERGO    C116937   9.746   1.336   8.267  0.1478 -0.3957  0.0012
 1249ERGO    C216938   9.619   1.263   7.940  0.3279  0.0221 -0.1338
 1250ERGO   ROH16939  15.434   5.101  10.213 -0.0316 -0.2265 -0.1860
 1250ERGO    R116940  15.536   5.205   9.970 -0.0394 -0.0142 -0.1004
 1250ERGO    R216941  15.705   5.061   9.806  0.1356  0.2110 -0.1240
 1250ERGO    R316942  15.518   5.119   9.617  0.1462  0.1527 -0.1524
 1250ERGO    R416943  15.765   5.071   9.465  0.1514  0.0930 -0.1250
 1250ERGO    R516944  15.637   5.247   9.453  0.1576  0.0931 -0.1909
 1250ERGO    C116945  15.624   5.131   9.090  0.1705 -0.0303 -0.1522
 1250ERGO    C216946  15.607   5.136   8.813 -0.1664  0.0692  0.0850
 1251ERGO   ROH16947  18.169  13.263   6.168 -0.3138 -0.1695  0.0383
 1251ERGO    R116948  18.204  13.125   6.413 -0.0513 -0.0746  0.0588
 1251ERGO    R216949  18.447  13.111   6.543  0.0293  0.2275 -0.0415
 1251ERGO    R316950  18.305  13.210   6.752  0.0063  0.1235 -0.0084
 1251ERGO    R416951  18.552  13.107   6.872  0.0756  0.2581 -0.0564
 1251ERGO    R516952  18.349  13.057   6.931  0.1189  0.1358 -0.0301
 1251ERGO    C116953  18.480  13.198   7.260  0.0810  0.1780 -0.0339
 1251ERGO    C216954  18.711  13.376   7.376  0.2353  0.0880  0.1201
 1252ERGO   ROH16955  15.477  17.926   6.518  0.1117  0.1081 -0.0887
 1252ERGO    R116956  15.631  18.015   6.738  0.0917  0.0404 -0.0472
 1252ERGO    R216957  15.517  18.100   6.975  0.0655  0.0845 -0.0763
 1252ERGO    R316958  15.681  17.913   7.084 -0.0407  0.0141 -0.0349
 1252ERGO    R416959  15.596  18.079   7.311  0.0716  0.1308 -0.0746
 1252ERGO    R516960  15.801  18.032   7.254  0.0413 -0.0095 -0.0748
 1252ERGO    C116961  15.796  17.891   7.609 -0.0247  0.0919 -0.0348
 1252ERGO    C216962  15.925  17.893   7.955  0.1211 -0.0340 -0.0091
 1253ERGO   ROH16963   8.763   1.084   9.532  0.0159  0.1366 -0.0239
 1253ERGO    R116964   8.899   0.954   9.321  0.1441  0.1561  0.0457
 1253ERGO    R216965   8.773   0.775   9.151  0.3133 -0.0442  0.1288
 1253ERGO    R316966   8.871   0.940   8.958  0.1693 -0.0484  0.0502
 1253ERGO    R416967   8.791   0.697   8.815  0.3408 -0.1745  0.1600
 1253ERGO    R516968   8.986   0.793   8.808  0.2687 -0.0260  0.1019
 1253ERGO    C116969   8.893   0.806   8.438  0.2216 -0.2544  0.1042
 1253ERGO    C216970   8.830   0.557   8.112  0.0333 -0.0781  0.0468
 1254ERGO   ROH16971   9.581   5.707   9.423  0.0394  0.1721  0.0457
 1254ERGO    R116972   9.743   5.786   9.205  0.1323  0.0074  0.0546
 1254ERGO    R216973   9.823   5.609   9.007 -0.0310 -0.0756  0.0630
 1254ERGO    R316974   9.713   5.795   8.842  0.1644  0.0331  0.0524
 1254ERGO    R416975   9.936   5.682   8.689  0.0581 -0.2008  0.0649
 1254ERGO    R516976   9.900   5.894   8.730  0.2715 -0.1608  0.0568
 1254ERGO    C116977   9.899   5.900   8.349  0.2935 -0.1716  0.0561
 1254ERGO    C216978  10.092   5.917   8.100  0.1598 -0.1950  0.1844
 1255ERGO   ROH16979  16.476   4.159  10.318  0.0148 -0.1979  0.0468
 1255ERGO    R116980  16.443   4.066  10.053 -0.0820 -0.0940  0.0216
 1255ERGO    R216981  16.348   4.226   9.850  0.0127  0.0384  0.0810
 1255ERGO    R316982  16.577   4.150   9.725 -0.0554 -0.0914  0.0331
 1255ERGO    R416983  16.377   4.167   9.510 -0.0933  0.0095  0.0762
 1255ERGO    R516984  16.504   3.996   9.557 -0.1762 -0.0584  0.0542
 1255ERGO    C116985  16.610   4.060   9.196 -0.2187 -0.1291  0.0284
 1255ERGO    C216986  16.468   4.103   8.800 -0.1430 -0.2225 -0.2369
 1256ERGO   ROH16987   4.066  16.355   6.668  0.0953 -0.1771  0.1607
 1256ERGO    R116988   4.238  16.315   6.889  0.2799  0.0104  0.0561
 1256ERGO    R216989   4.481  16.444   6.914  0.0816  0.4224 -0.0059
 1256ERGO    R316990   4.380  16.520   7.155  0.0609  0.1334  0.0783
 1256ERGO    R416991   4.663  16.590   7.170  0.0220  0.2513  0.1350
 1256ERGO    R516992   4.552  16.468   7.312  0.0890  0.0579  0.0179
 1256ERGO    C116993   4.673  16.746   7.544 -0.0322 -0.1197  0.2960
 1256ERGO    C216994   4.728  16.797   7.943  0.3243 -0.0344 -0.2068
 1257ERGO   ROH16995  12.895   7.591   9.914 -0.2542 -0.1101 -0.1097
 1257ERGO    R116996  13.006   7.628   9.657 -0.1784  0.0601 -0.0544
 1257ERGO    R216997  12.987   7.437   9.458  0.1827  0.0399 -0.0782
 1257ERGO    R316998  12.883   7.643   9.315 -0.0383 -0.0933 -0.1129
 1257ERGO    R416999  13.063   7.507   9.128  0.3079  0.2159 -0.0132
 1257ERGO    R517000  13.064   7.719   9.179 -0.0559  0.2135  0.0277
 1257ERGO    C117001  13.010   7.741   8.802  0.1733  0.1934 -0.0081
 1257ERGO    C217002  12.963   7.800   8.355  0.3377 -0.0661 -0.3683
 1258ERGO   ROH17003  14.186   6.050   9.897  0.0238 -0.2407 -0.0310
 1258ERGO    R117004  14.296   5.981   9.646 -0.0302 -0.2747 -0.0468
 1258ERGO    R217005  14.147   5.862   9.445 -0.1229 -0.1365 -0.0705
 1258ERGO    R317006  14.239   6.072   9.298  0.0219 -0.1691 -0.0259
 1258ERGO    R417007  14.188   5.860   9.102 -0.3596  0.0015 -0.1013
 1258ERGO    R517008  14.374   5.970   9.128 -0.2150 -0.2340 -0.1721
 1258ERGO    C117009  14.299   6.055   8.764 -0.3614  0.0513 -0.0773
 1258ERGO    C217010  14.351   6.000   8.378 -0.2658  0.1088  0.0716
 1259ERGO   ROH17011   7.974  10.828   6.635 -0.0197  0.1300 -0.1690
 1259ERGO    R117012   7.917  10.790   6.909 -0.2135 -0.2015 -0.2503
 1259ERGO    R217013   7.943  10.992   7.096  0.1296 -0.5482  0.0866
 1259ERGO    R317014   7.685  10.929   7.153 -0.0367 -0.1124 -0.1275
 1259ERGO    R417015   7.758  11.131   7.353  0.3005 -0.5150  0.1950
 1259ERGO    R517016   7.674  10.934   7.392 -0.1236 -0.4212 -0.1149
 1259ERGO    C117017   7.408  11.153   7.556  0.2439 -0.0867  0.0571
 1259ERGO    C217018   7.206  11.476   7.517 -0.0114 -0.1267  0.3252
 1260ERGO   ROH17019   3.189   7.424   6.181  0.0703  0.1743  0.0180
 1260ERGO    R117020   3.128   7.268   6.409  0.0439  0.1405 -0.0137
 1260ERGO    R217021   3.209   7.005   6.436 -0.0844  0.0965 -0.1092
 1260ERGO    R317022   3.315   7.096   6.670  0.0143 -0.0310 -0.1017
 1260ERGO    R417023   3.193   6.838   6.738  0.1527 -0.1430 -0.2234
 1260ERGO    R517024   3.157   7.029   6.836  0.1289 -0.2223 -0.0583
 1260ERGO    C117025   3.283   6.826   7.133  0.3834 -0.4021 -0.2828
 1260ERGO    C217026   3.451   6.702   7.477 -0.1667  0.4211  0.0775
 1261ERGO   ROH17027   9.813  10.247   6.628 -0.0356 -0.0382 -0.2500
 1261ERGO    R117028   9.682  10.176   6.868  0.0694  0.1580 -0.1306
 1261ERGO    R217029   9.466  10.003   6.875  0.0492  0.1775  0.1053
 1261ERGO    R317030   9.620   9.870   7.056  0.1290  0.3049  0.1292
 1261ERGO    R417031   9.356   9.886   7.181  0.1112  0.0881  0.0927
 1261ERGO    R517032   9.545   9.950   7.268  0.0404  0.2398  0.1160
 1261ERGO    C117033   9.437   9.694   7.529  0.2223  0.1556  0.1079
 1261ERGO    C217034   9.331   9.532   7.740  0.1352  0.2017 -0.0309
 1262ERGO   ROH17035   4.001   6.607   6.322  0.1894 -0.0418 -0.0288
 1262ERGO    R117036   4.075   6.472   6.559  0.2961 -0.0888 -0.0889
 1262ERGO    R217037   4.318   6.514   6.685  0.1968  0.1701  0.0158
 1262ERGO    R317038   4.160   6.565   6.900  0.0526 -0.1824  0.0005
 1262ERGO    R417039   4.416   6.478   7.014  0.2447  0.3609  0.0238
 1262ERGO    R517040   4.220   6.395   7.059  0.4074 -0.0738 -0.0046
 1262ERGO    C117041   4.326   6.505   7.408  0.1371  0.1411  0.0142
 1262ERGO    C217042   4.470   6.621   7.701 -0.0967  0.1330  0.2484
 1263ERGO   ROH17043   3.299   0.722   6.690  0.0625 -0.3671 -0.0170
 1263ERGO    R117044   3.435   0.892   6.872 -0.0824 -0.2854  0.0172
 1263ERGO    R217045   3.468   0.828   7.139  0.0292 -0.3446 -0.0111
 1263ERGO    R317046   3.731   0.869   7.083 -0.0195 -0.0493 -0.0416
 1263ERGO    R417047   3.701   0.944   7.366 -0.0220 -0.3529  0.0460
 1263ERGO    R517048   3.787   1.066   7.207 -0.1719 -0.1144  0.1402
 1263ERGO    C117049   4.084   1.049   7.446 -0.0974 -0.0805  0.0506
 1263ERGO    C217050   4.235   0.919   7.704 -0.0930  0.0147  0.3002
 1264ERGO   ROH17051   6.031   6.785  10.086  0.1440 -0.0006 -0.1491
 1264ERGO    R117052   6.105   6.876   9.828  0.0588 -0.0729 -0.1997
 1264ERGO    R217053   6.213   6.708   9.636  0.0294 -0.1202 -0.1774
 1264ERGO    R317054   6.008   6.802   9.485 -0.0279 -0.1982 -0.1490
 1264ERGO    R417055   6.216   6.734   9.292 -0.0137 -0.0754 -0.1743
 1264ERGO    R517056   6.115   6.925   9.310 -0.1019 -0.1266 -0.1427
 1264ERGO    C117057   6.025   6.838   8.949 -0.0925 -0.1226 -0.1457
 1264ERGO    C217058   5.951   6.899   8.675  0.0962 -0.2110 -0.2263
 1265ERGO   ROH17059   5.652   4.592   9.780  0.1700  0.4312  0.0296
 1265ERGO    R117060   5.529   4.648   9.531  0.1505  0.2694  0.0003
 1265ERGO    R217061   5.665   4.768   9.323  0.1734  0.0232 -0.1396
 1265ERGO    R317062   5.579   4.550   9.184  0.0444 -0.0656  0.0780
 1265ERGO    R417063   5.635   4.752   8.979 -0.1164 -0.2205 -0.1060
 1265ERGO    R517064   5.449   4.641   9.005 -0.0969 -0.1893  0.1229
 1265ERGO    C117065   5.537   4.537   8.649 -0.4063 -0.4458  0.1178
 1265ERGO    C217066   5.660   4.522   8.373  0.1963  0.1938  0.1446
 1266ERGO   ROH17067   7.504  14.534   6.422  0.0223  0.0446 -0.0397
 1266ERGO    R117068   7.572  14.374   6.646 -0.0993  0.0073 -0.0297
 1266ERGO    R217069   7.808  14.408   6.787 -0.1192 -0.1004  0.0244
 1266ERGO    R317070   7.639  14.430   6.999 -0.1568 -0.0359 -0.0111
 1266ERGO    R417071   7.904  14.404   7.119 -0.1500  0.2189  0.0403
 1266ERGO    R517072   7.730  14.283   7.164 -0.0830  0.1458  0.1160
 1266ERGO    C117073   7.801  14.423   7.511 -0.2033  0.4652  0.0162
 1266ERGO    C217074   7.834  14.304   7.899  0.2176  0.0679  0.4039
 1267ERGO   ROH17075   3.845   7.647   9.852  0.3607 -0.2911  0.0444
 1267ERGO    R117076   3.824   7.789   9.608  0.3773 -0.2462  0.0694
 1267ERGO    R217077   3.940   7.702   9.373  0.2231 -0.3091  0.0153
 1267ERGO    R317078   3.687   7.727   9.276  0.2036 -0.1052  0.1127
 1267ERGO    R417079   3.859   7.730   9.038  0.1120 -0.2532  0.0458
 1267ERGO    R517080   3.710   7.879   9.092  0.2545 -0.1286  0.1002
 1267ERGO    C117081   3.575   7.770   8.752  0.0290 -0.0293  0.1550
 1267ERGO    C217082   3.684   7.788   8.434 -0.2715 -0.0637 -0.0180
 1268ERGO   ROH17083   6.239   4.048   6.740  0.2466  0.0422 -0.0187
 1268ERGO    R117084   6.366   4.030   6.992  0.1447 -0.0883  0.0242
 1268ERGO    R217085   6.256   3.891   7.205  0.0525 -0.1887 -0.0877
 1268ERGO    R317086   6.496   3.764   7.204  0.0471 -0.1995 -0.0540
 1268ERGO    R417087   6.355   3.654   7.436 -0.0201 -0.2503 -0.1188
 1268ERGO    R517088   6.553   3.744   7.435 -0.0157 -0.2589 -0.0432
 1268ERGO    C117089   6.639   3.398   7.570 -0.0673 -0.2961 -0.1051
 1268ERGO    C217090   6.783   3.103   7.558 -0.1066  0.1014  0.3446
 1269ERGO   ROH17091   8.049   4.021   6.792 -0.0550 -0.0111 -0.0981
 1269ERGO    R117092   8.262   4.022   6.978 -0.0878  0.0202 -0.0601
 1269ERGO    R217093   8.331   4.247   7.124 -0.1198  0.0430 -0.0768
 1269ERGO    R317094   8.301   4.079   7.336 -0.1542  0.0697 -0.0611
 1269ERGO    R417095   8.396   4.331   7.452  0.1979 -0.0354 -0.1165
 1269ERGO    R517096   8.484   4.134   7.481  0.0051 -0.1313 -0.1839
 1269ERGO    C117097   8.405   4.224   7.843  0.3505 -0.0560 -0.1249
 1269ERGO    C217098   8.486   4.455   8.156  0.2516 -0.3446  0.0681
 1270ERGO   ROH17099  15.773  17.230  10.167  0.0075  0.2943 -0.0306
 1270ERGO    R117100  15.772  17.136   9.900  0.0540  0.1718  0.0128
 1270ERGO    R217101  15.584  17.217   9.714  0.0675  0.0599 -0.0461
 1270ERGO    R317102  15.804  17.281   9.568  0.0756  0.0224 -0.0517
 1270ERGO    R417103  15.602  17.202   9.369  0.0034  0.2107 -0.0574
 1270ERGO    R517104  15.804  17.121   9.388 -0.0307  0.1035 -0.1265
 1270ERGO    C117105  15.819  17.253   9.031 -0.0263  0.2632 -0.0692
 1270ERGO    C217106  15.691  17.178   8.714 -0.0345  0.0018 -0.2769
 1271ERGO   ROH17107   0.677   5.441   6.605  0.0289 -0.0566 -0.1525
 1271ERGO    R117108   0.574   5.198   6.707 -0.3145  0.0680 -0.1907
 1271ERGO    R217109   0.674   5.078   6.935 -0.2576 -0.2718 -0.3924
 1271ERGO    R317110   0.415   5.087   7.015 -0.1554  0.1739 -0.0673
 1271ERGO    R417111   0.550   4.921   7.217 -0.1996 -0.1984 -0.3246
 1271ERGO    R517112   0.372   4.867   7.102 -0.4558  0.1948 -0.1427
 1271ERGO    C117113   0.233   4.838   7.456 -0.0699  0.2628  0.0201
 1271ERGO    C217114   0.483   4.763   7.715  0.1333  0.2424  0.0316
 1272ERGO   ROH17115   0.333   6.898   6.832 -0.2726  0.0942 -0.3235
 1272ERGO    R117116   0.189   6.822   7.063 -0.1577  0.0920 -0.2539
 1272ERGO    R217117   0.156   6.990   7.280 -0.0950  0.1050 -0.2658
 1272ERGO    R317118  -0.108   6.937   7.239 -0.1069  0.0491 -0.1341
 1272ERGO    R417119  -0.091   7.017   7.521  0.0105  0.1881 -0.1638
 1272ERGO    R517120  -0.180   6.834   7.443 -0.0011  0.1308 -0.0454
 1272ERGO    C117121  -0.482   6.984   7.622  0.0608  0.1841  0.0192
 1272ERGO    C217122  -0.810   7.112   7.791 -0.0329 -0.0033 -0.6234
 1273ERGO   ROH17123  14.720  12.338   6.667  0.0511  0.0829 -0.0140
 1273ERGO    R117124  14.830  12.281   6.922  0.0288 -0.0079 -0.0255
 1273ERGO    R217125  14.742  12.404   7.154  0.0965  0.0005 -0.0105
 1273ERGO    R317126  14.709  12.148   7.238 -0.0260  0.0055 -0.0389
 1273ERGO    R417127  14.689  12.309   7.481  0.2665 -0.0155  0.0140
 1273ERGO    R517128  14.821  12.140   7.449  0.1265 -0.1101 -0.1178
 1273ERGO    C117129  14.627  12.013   7.752  0.2504 -0.0200  0.0017
 1273ERGO    C217130  14.406  11.877   7.936  0.0581  0.1139  0.1644
 1274ERGO   ROH17131   4.114   2.714   9.898 -0.0944  0.3456  0.2106
 1274ERGO    R117132   4.063   2.845   9.652 -0.2739  0.0952  0.1115
 1274ERGO    R217133   4.249   2.856   9.448 -0.2402  0.2965  0.1527
 1274ERGO    R317134   4.047   2.750   9.301 -0.0207 -0.1700  0.1672
 1274ERGO    R417135   4.236   2.856   9.103 -0.3458  0.4323  0.1555
 1274ERGO    R517136   4.022   2.901   9.117 -0.4750 -0.1306  0.2471
 1274ERGO    C117137   4.037   2.756   8.764 -0.2013  0.0735  0.1708
 1274ERGO    C217138   4.075   2.686   8.409 -0.0854  0.1319  0.1118
 1275ERGO   ROH17139  13.379   9.173   6.506  0.2568  0.0383  0.0418
 1275ERGO    R117140  13.282   9.092   6.759  0.2111  0.0278  0.0207
 1275ERGO    R217141  13.026   8.995   6.797  0.1610  0.1538 -0.0066
 1275ERGO    R317142  13.157   8.785   6.909  0.0471  0.0566 -0.0530
 1275ERGO    R417143  12.898   8.794   7.047  0.1519  0.3461  0.1455
 1275ERGO    R517144  13.095   8.793   7.140  0.2289  0.1823 -0.0047
 1275ERGO    C117145  12.947   8.480   7.298  0.0398  0.3668  0.1905
 1275ERGO    C217146  12.889   8.307   7.590 -0.1201  0.0192  0.1237
 1276ERGO   ROH17147  17.079   7.286  10.412 -0.2869  0.0492 -0.0937
 1276ERGO    R117148  17.121   7.118  10.188 -0.1847  0.0790 -0.0972
 1276ERGO    R217149  16.916   7.042  10.018 -0.1197  0.0377 -0.1541
 1276ERGO    R317150  17.081   7.144   9.827 -0.1002  0.0954 -0.1067
 1276ERGO    R417151  16.875   6.998   9.678  0.0584 -0.0967 -0.1592
 1276ERGO    R517152  17.091   6.973   9.660  0.0906  0.0456 -0.0519
 1276ERGO    C117153  17.006   7.068   9.301  0.1801 -0.1208 -0.1177
 1276ERGO    C217154  17.132   6.967   9.001  0.5761 -0.0057 -0.2017
 1277ERGO   ROH17155  15.247   1.168   6.369  0.1504 -0.0410  0.1515
 1277ERGO    R117156  15.241   1.240   6.642  0.1498  0.1133  0.1115
 1277ERGO    R217157  15.203   1.500   6.726 -0.1190  0.1230 -0.0316
 1277ERGO    R317158  15.000   1.390   6.870  0.0456 -0.0223  0.0922
 1277ERGO    R417159  15.139   1.566   7.059 -0.1149  0.2762 -0.0604
 1277ERGO    R517160  15.095   1.355   7.088  0.1438  0.2383  0.0957
 1277ERGO    C117161  14.912   1.501   7.389  0.0420  0.2290  0.0391
 1277ERGO    C217162  14.813   1.338   7.725  0.0494 -0.0021 -0.0434
 1278ERGO   ROH17163   8.706  16.767   6.281  0.1199  0.1843  0.1807
 1278ERGO    R117164   8.738  16.938   6.504  0.0033  0.1761  0.2046
 1278ERGO    R217165   8.551  17.128   6.574 -0.0665  0.1268  0.1559
 1278ERGO    R317166   8.560  17.004   6.815 -0.1183  0.1107  0.1494
 1278ERGO    R417167   8.438  17.266   6.870 -0.2449  0.0578  0.1209
 1278ERGO    R517168   8.612  17.179   6.970 -0.2525  0.1186  0.1863
 1278ERGO    C117169   8.381  17.229   7.269 -0.3974  0.0028  0.0945
 1278ERGO    C217170   8.150  17.471   7.381  0.0085 -0.1794  0.0002
 1279ERGO   ROH17171  12.579  10.739   6.276 -0.2000  0.0051 -0.0179
 1279ERGO    R117172  12.625  10.586   6.509 -0.0051  0.0385 -0.0320
 1279ERGO    R217173  12.838  10.632   6.679 -0.0083  0.2316 -0.0775
 1279ERGO    R317174  12.643  10.648   6.867  0.0167  0.0450 -0.0344
 1279ERGO    R417175  12.894  10.667   7.018  0.0327  0.2460 -0.0858
 1279ERGO    R517176  12.731  10.527   7.054  0.1605  0.1017 -0.0647
 1279ERGO    C117177  12.743  10.703   7.393  0.0799  0.0792 -0.0502
 1279ERGO    C217178  12.989  10.864   7.565 -0.0606  0.5510  0.2544
 1280ERGO   ROH17179  17.122  11.609   6.497 -0.1502 -0.1812  0.0433
 1280ERGO    R117180  17.109  11.683   6.770 -0.0878 -0.1122  0.0268
 1280ERGO    R217181  17.068  11.498   6.972 -0.0593 -0.0538  0.0757
 1280ERGO    R317182  17.295  11.608   7.073 -0.0326 -0.0472  0.0120
 1280ERGO    R417183  17.139  11.530   7.308 -0.1435  0.2707  0.0667
 1280ERGO    R517184  17.223  11.727   7.267 -0.0395  0.1989 -0.1294
 1280ERGO    C117185  17.394  11.652   7.599 -0.1675  0.4659  0.0018
 1280ERGO    C217186  17.512  11.587   7.849  0.1948 -0.0815 -0.2277
 1281ERGO   ROH17187   6.228   3.509   9.846 -0.0218 -0.0203 -0.0388
 1281ERGO    R117188   6.204   3.364   9.604  0.0759  0.0496 -0.0915
 1281ERGO    R217189   6.003   3.413   9.420  0.0895  0.0325 -0.1084
 1281ERGO    R317190   6.212   3.439   9.248  0.1079  0.1692 -0.0665
 1281ERGO    R417191   5.977   3.412   9.075  0.1703 -0.1485 -0.1147
 1281ERGO    R517192   6.159   3.292   9.067  0.2989  0.0302 -0.0154
 1281ERGO    C117193   6.159   3.435   8.713  0.2347 -0.1256 -0.0792
 1281ERGO    C217194   5.968   3.478   8.404 -0.2018  0.2538 -0.1441
 1282ERGO   ROH17195  17.587  15.137   6.422  0.0644 -0.0681 -0.0523
 1282ERGO    R117196  17.550  15.189   6.697 -0.0029  0.0431 -0.0806
 1282ERGO    R217197  17.301  15.185   6.818 -0.0298  0.0224 -0.1222
 1282ERGO    R317198  17.422  15.008   6.986 -0.0036  0.1291 -0.0293
 1282ERGO    R417199  17.192  15.109   7.137 -0.0482  0.1091 -0.1084
 1282ERGO    R517200  17.400  15.107   7.202 -0.0663  0.2007 -0.0745
 1282ERGO    C117201  17.242  14.900   7.480 -0.0341  0.2597 -0.0131
 1282ERGO    C217202  17.151  14.823   7.836  0.0119  0.0767 -0.2825
 1283ERGO   ROH17203   3.287  15.944   9.928 -0.1446  0.3049  0.0119
 1283ERGO    R117204   3.380  15.844   9.680  0.0578  0.3038  0.0866
 1283ERGO    R217205   3.209  15.757   9.481  0.2252  0.0651  0.0453
 1283ERGO    R317206   3.346  15.935   9.329  0.1167  0.1444  0.0376
 1283ERGO    R417207   3.207  15.767   9.135  0.1468  0.1055  0.0460
 1283ERGO    R517208   3.420  15.809   9.140  0.1317  0.1973  0.0062
 1283ERGO    C117209   3.335  15.940   8.792 -0.0007  0.2033  0.0394
 1283ERGO    C217210   3.374  15.866   8.474 -0.0696 -0.2579 -0.2404
 1284ERGO   ROH17211  14.049  12.839   6.471  0.1714 -0.2036 -0.0469
 1284ERGO    R117212  14.053  12.928   6.739  0.2378 -0.1913 -0.0521
 1284ERGO    R217213  13.831  12.920   6.903  0.2303 -0.0126 -0.0538
 1284ERGO    R317214  13.997  12.782   7.067  0.1242 -0.1297 -0.0429
 1284ERGO    R417215  13.757  12.830   7.228  0.1746  0.1156 -0.0304
 1284ERGO    R517216  13.962  12.880   7.283  0.2271 -0.0542 -0.0576
 1284ERGO    C117217  13.870  12.649   7.573  0.0426  0.0803 -0.0066
 1284ERGO    C217218  13.742  12.395   7.767 -0.1257 -0.1193 -0.1459
 1285ERGO   ROH17219   9.276   6.608   9.328  0.1345 -0.1281  0.1793
 1285ERGO    R117220   9.204   6.637   9.056 -0.0364 -0.3378  0.1995
 1285ERGO    R217221   9.285   6.853   8.903 -0.5088 -0.2172  0.1073
 1285ERGO    R317222   9.378   6.659   8.737 -0.2032 -0.0891  0.1222
 1285ERGO    R417223   9.419   6.910   8.589 -0.2828 -0.0063  0.2378
 1285ERGO    R517224   9.314   6.733   8.518 -0.0762 -0.0734  0.0887
 1285ERGO    C117225   9.585   6.760   8.251  0.1357  0.2369  0.3280
 1285ERGO    C217226   9.746   6.903   8.072 -0.2890  0.0542 -0.0635
 1286ERGO   ROH17227   3.620   8.622   6.090 -0.1394 -0.0567 -0.0685
 1286ERGO    R117228   3.630   8.479   6.334 -0.1133  0.0058 -0.0322
 1286ERGO    R217229   3.799   8.549   6.541 -0.0454  0.0220 -0.0917
 1286ERGO    R317230   3.569   8.550   6.686 -0.0103  0.1150 -0.0357
 1286ERGO    R417231   3.776   8.465   6.876 -0.0244 -0.1428 -0.1313
 1286ERGO    R517232   3.590   8.360   6.831 -0.1140  0.0192 -0.1437
 1286ERGO    C117233   3.546   8.416   7.206  0.0207 -0.1515 -0.1017
 1286ERGO    C217234   3.667   8.567   7.399  0.0015  0.0353  0.0501
 1287ERGO   ROH17235   8.088  12.820  10.138 -0.0539 -0.2905 -0.0095
 1287ERGO    R117236   8.127  12.735   9.871 -0.0063 -0.2111 -0.0297
 1287ERGO    R217237   7.930  12.605   9.727  0.0053 -0.1457 -0.1165
 1287ERGO    R317238   7.976  12.804   9.548  0.0684 -0.0894 -0.0370
 1287ERGO    R417239   7.905  12.572   9.384  0.2134 -0.0458 -0.1415
 1287ERGO    R517240   8.083  12.695   9.364  0.1945 -0.0081 -0.0052
 1287ERGO    C117241   7.935  12.741   9.016  0.3938  0.0653 -0.0813
 1287ERGO    C217242   7.917  12.714   8.625  0.0763 -0.0727 -0.1404
 1288ERGO   ROH17243  11.230   6.981   9.862 -0.2761 -0.1791 -0.0182
 1288ERGO    R117244  11.262   6.883   9.599 -0.1455 -0.0347 -0.0576
 1288ERGO    R217245  11.164   7.015   9.377 -0.0712  0.0648 -0.0289
 1288ERGO    R317246  11.421   6.996   9.292 -0.0313  0.1538  0.0680
 1288ERGO    R417247  11.259   6.966   9.049  0.0566 -0.1276  0.0349
 1288ERGO    R517248  11.414   6.830   9.119  0.1196  0.0154  0.1892
 1288ERGO    C117249  11.557   6.920   8.777  0.1686 -0.1561  0.1631
 1288ERGO    C217250  11.564   7.040   8.422 -0.0285  0.4924 -0.1964
 1289ERGO   ROH17251   2.715   8.489   6.363  0.0134  0.0021 -0.0527
 1289ERGO    R117252   2.645   8.380   6.615 -0.1651 -0.0861 -0.1395
 1289ERGO    R217253   2.476   8.162   6.641  0.0709 -0.2994 -0.3532
 1289ERGO    R317254   2.683   8.060   6.784  0.0245 -0.0414 -0.0950
 1289ERGO    R417255   2.443   7.972   6.927 -0.0389 -0.1519 -0.2662
 1289ERGO    R517256   2.613   8.079   7.012 -0.2055  0.0408 -0.1700
 1289ERGO    C117257   2.619   7.765   7.228 -0.1463  0.1763  0.0268
 1289ERGO    C217258   2.571   7.643   7.603  0.1782 -0.3736  0.0658
 1290ERGO   ROH17259  12.306  16.582   6.303  0.1226 -0.2941  0.0608
 1290ERGO    R117260  12.455  16.622   6.540  0.2974 -0.0789 -0.0807
 1290ERGO    R217261  12.600  16.852   6.589 -0.0846  0.1884 -0.1728
 1290ERGO    R317262  12.453  16.857   6.818  0.1341 -0.1535 -0.0161
 1290ERGO    R417263  12.694  17.013   6.880 -0.0150  0.1567 -0.1772
 1290ERGO    R517264  12.616  16.844   6.993  0.3386 -0.0256 -0.1887
 1290ERGO    C117265  12.611  17.112   7.264  0.2310 -0.1827 -0.0325
 1290ERGO    C217266  12.468  17.305   7.365 -0.1072  0.0060  0.0227
 1291ERGO   ROH17267  12.450   4.830   9.551 -0.0822 -0.0235  0.0154
 1291ERGO    R117268  12.478   4.705   9.299 -0.0729  0.0111 -0.0007
 1291ERGO    R217269  12.533   4.847   9.069 -0.1453  0.0534  0.0060
 1291ERGO    R317270  12.740   4.671   9.048 -0.0912  0.1207 -0.0345
 1291ERGO    R417271  12.687   4.758   8.772 -0.2090  0.0565 -0.0282
 1291ERGO    R517272  12.695   4.552   8.845 -0.1146  0.0727  0.0006
 1291ERGO    C117273  12.970   4.540   8.580 -0.1954  0.1215 -0.0864
 1291ERGO    C217274  13.273   4.529   8.382  0.1832  0.2344 -0.6009
 1292ERGO   ROH17275   6.092  10.857  10.120 -0.0577  0.0124  0.1391
 1292ERGO    R117276   6.056  11.017   9.889 -0.0117  0.0196  0.1369
 1292ERGO    R217277   6.266  11.085   9.722  0.0159 -0.0107  0.1557
 1292ERGO    R317278   6.104  10.979   9.531  0.0163  0.0134  0.1420
 1292ERGO    R417279   6.269  11.173   9.387  0.0658 -0.0299  0.1510
 1292ERGO    R517280   6.052  11.162   9.387  0.0669  0.0134  0.1272
 1292ERGO    C117281   6.120  11.124   9.014  0.0952 -0.0184  0.1355
 1292ERGO    C217282   6.014  11.056   8.670 -0.0508 -0.0522  0.0831
 1293ERGO   ROH17283  13.111   0.699   6.024  0.1943 -0.2001  0.0179
 1293ERGO    R117284  12.853   0.750   6.129  0.2064 -0.0436 -0.0267
 1293ERGO    R217285  12.650   0.563   6.122  0.1046  0.0706 -0.0348
 1293ERGO    R317286  12.642   0.609   6.389  0.0856  0.1061 -0.0410
 1293ERGO    R417287  12.369   0.530   6.319  0.1338 -0.1064 -0.0208
 1293ERGO    R517288  12.428   0.710   6.426  0.0093 -0.0426 -0.0498
 1293ERGO    C117289  12.197   0.554   6.686  0.1330 -0.1763 -0.0185
 1293ERGO    C217290  11.971   0.361   6.840  0.1434  0.1188  0.1851
 1294ERGO   ROH17291  11.058   8.729  10.084 -0.0541 -0.0990 -0.0662
 1294ERGO    R117292  11.123   8.882   9.856  0.0558 -0.1013 -0.0372
 1294ERGO    R217293  11.288   8.787   9.654 -0.0586 -0.2055 -0.0854
 1294ERGO    R317294  11.078   8.853   9.496 -0.0237  0.0292 -0.0382
 1294ERGO    R417295  11.301   8.819   9.311 -0.0894 -0.1641 -0.0823
 1294ERGO    R517296  11.171   8.993   9.326  0.0849 -0.0365 -0.0321
 1294ERGO    C117297  11.111   8.899   8.962 -0.0746  0.0804 -0.0363
 1294ERGO    C217298  11.164   8.808   8.775 -0.0828  0.2809 -0.1977
 1295ERGO   ROH17299   6.204  16.018  10.069  0.0197  0.0209  0.0210
 1295ERGO    R117300   6.250  15.915   9.809 -0.0300 -0.0337  0.0322
 1295ERGO    R217301   6.046  15.836   9.642 -0.0664 -0.1076  0.0974
 1295ERGO    R317302   6.164  16.009   9.469 -0.1343 -0.1233  0.0366
 1295ERGO    R417303   6.014  15.823   9.298 -0.3032 -0.0324  0.1152
 1295ERGO    R517304   6.226  15.873   9.281 -0.3088 -0.1016 -0.0283
 1295ERGO    C117305   6.107  15.979   8.935 -0.5049 -0.0034  0.0684
 1295ERGO    C217306   6.085  15.823   8.662 -0.0972 -0.1423  0.1514
 1296ERGO   ROH17307  13.502   7.755   6.359 -0.1130  0.0883 -0.0902
 1296ERGO    R117308  13.537   7.842   6.626 -0.1501  0.0541 -0.0742
 1296ERGO    R217309  13.377   7.755   6.833 -0.0669 -0.1095 -0.0780
 1296ERGO    R317310  13.615   7.688   6.946 -0.0063  0.0377 -0.1160
 1296ERGO    R417311  13.425   7.690   7.169  0.0061 -0.1730 -0.1001
 1296ERGO    R517312  13.614   7.799   7.158 -0.0760 -0.0251 -0.0826
 1296ERGO    C117313  13.677   7.590   7.471  0.1055 -0.0718 -0.1487
 1296ERGO    C217314  13.656   7.266   7.670 -0.0877 -0.1352  0.1934
 1297ERGO   ROH17315  13.063   0.235   6.034 -0.2944  0.0025  0.1910
 1297ERGO    R117316  13.078   0.324   6.302 -0.2095  0.0173  0.1822
 1297ERGO    R217317  13.292   0.468   6.399 -0.2027  0.0718  0.0929
 1297ERGO    R317318  13.099   0.644   6.473 -0.2151  0.0296  0.1589
 1297ERGO    R417319  13.337   0.730   6.621 -0.1263  0.2165 -0.0912
 1297ERGO    R517320  13.141   0.685   6.705 -0.0353  0.1788  0.1006
 1297ERGO    C117321  13.181   1.047   6.819 -0.0937  0.2611 -0.1364
 1297ERGO    C217322  13.367   1.185   7.069 -0.2380  0.2398 -0.3662
 1298ERGO   ROH17323  10.552   9.495   7.587 -0.1327 -0.1669  0.0141
 1298ERGO    R117324  10.755   9.299   7.610 -0.1649 -0.1929  0.1200
 1298ERGO    R217325  10.705   9.044   7.703 -0.2560 -0.2180  0.0491
 1298ERGO    R317326  10.821   8.970   7.469 -0.1137 -0.1724  0.1073
 1298ERGO    R417327  10.868   8.744   7.650 -0.1533 -0.1666  0.0835
 1298ERGO    R517328  11.019   8.852   7.535 -0.1278 -0.1304  0.1819
 1298ERGO    C117329  11.072   8.500   7.398  0.0403 -0.0936  0.1583
 1298ERGO    C217330  11.094   8.016   7.518 -0.3334  0.0318  0.0798
 1299ERGO   ROH17331  11.044   1.622   9.527  0.0742 -0.0710 -0.0489
 1299ERGO    R117332  11.145   1.653   9.264  0.1194 -0.0996 -0.0349
 1299ERGO    R217333  11.240   1.442   9.115  0.0625 -0.1293 -0.0278
 1299ERGO    R317334  11.060   1.531   8.932  0.1186 -0.0597 -0.0498
 1299ERGO    R417335  11.254   1.375   8.776 -0.0129 -0.2790 -0.0024
 1299ERGO    R517336  11.192   1.581   8.738  0.1468 -0.2424 -0.0808
 1299ERGO    C117337  11.093   1.420   8.407 -0.0042 -0.3009 -0.0084
 1299ERGO    C217338  11.060   1.457   8.071  0.2191  0.2108 -0.3703
 1300ERGO   ROH17339  11.634   9.076   6.181  0.2430  0.1651  0.1892
 1300ERGO    R117340  11.460   9.160   6.388  0.0081  0.0326  0.0501
 1300ERGO    R217341  11.193   9.217   6.344 -0.0181 -0.2312 -0.1549
 1300ERGO    R317342  11.156   9.036   6.544  0.0091 -0.2363 -0.1537
 1300ERGO    R417343  10.937   9.229   6.576  0.1757 -0.0766  0.0557
 1300ERGO    R517344  11.079   9.168   6.729  0.2560 -0.2077 -0.0684
 1300ERGO    C117345  10.753   9.067   6.899  0.3141  0.0088  0.1794
 1300ERGO    C217346  10.431   8.957   7.023  0.0361 -0.1470 -0.1874
 1301ERGO   ROH17347   9.883  16.956   6.237 -0.0797 -0.2105  0.0151
 1301ERGO    R117348   9.721  16.996   6.465  0.0762 -0.1524  0.1177
 1301ERGO    R217349   9.814  16.961   6.722  0.2880  0.0289  0.0690
 1301ERGO    R317350   9.723  17.215   6.756  0.2085  0.0107 -0.0035
 1301ERGO    R417351   9.743  17.106   7.028 -0.0352 -0.0023  0.0122
 1301ERGO    R517352   9.568  17.198   6.937  0.0338 -0.0288 -0.1537
 1301ERGO    C117353   9.616  17.429   7.237 -0.2980 -0.0376 -0.0890
 1301ERGO    C217354   9.505  17.624   7.546  0.1824  0.3899 -0.1698
 1302ERGO   ROH17355  11.174  14.036   6.922  0.0275 -0.1857 -0.0120
 1302ERGO    R117356  11.014  13.908   7.117 -0.0369 -0.1650 -0.0508
 1302ERGO    R217357  10.991  14.002   7.376  0.0524 -0.2608 -0.0058
 1302ERGO    R317358  10.725  13.995   7.321  0.0417 -0.0607  0.0158
 1302ERGO    R417359  10.747  13.889   7.593 -0.0209 -0.0752  0.0104
 1302ERGO    R517360  10.648  13.793   7.424 -0.1056 -0.0008  0.0210
 1302ERGO    C117361  10.355  13.817   7.667 -0.0737  0.2208  0.0401
 1302ERGO    C217362  10.147  13.808   7.891  0.0820 -0.2713  0.0144
 1303ERGO   ROH17363   4.076  15.952   6.410  0.0836  0.2215  0.1695
 1303ERGO    R117364   3.969  15.868   6.659 -0.1718 -0.1613 -0.0603
 1303ERGO    R217365   3.912  15.604   6.714  0.4350 -0.3500 -0.2829
 1303ERGO    R317366   4.071  15.649   6.930 -0.0835  0.0095  0.0485
 1303ERGO    R417367   3.974  15.374   6.964  0.7125 -0.3663 -0.3621
 1303ERGO    R517368   3.960  15.536   7.110 -0.0755 -0.4967 -0.2407
 1303ERGO    C117369   4.159  15.281   7.313  0.3874 -0.0382 -0.0971
 1303ERGO    C217370   4.145  15.023   7.505  0.2266  0.0714 -0.4765
 1304ERGO   ROH17371  10.792   6.833   6.027 -0.2925 -0.0900  0.0637
 1304ERGO    R117372  10.794   6.883   6.305 -0.0304 -0.0399  0.0546
 1304ERGO    R217373  10.903   6.706   6.487  0.0979 -0.0285 -0.0109
 1304ERGO    R317374  11.047   6.923   6.564  0.2137 -0.0444 -0.1776
 1304ERGO    R417375  11.055   6.743   6.795  0.0093  0.1748  0.0099
 1304ERGO    R517376  10.992   6.952   6.796  0.1456  0.2216 -0.2219
 1304ERGO    C117377  11.279   6.969   7.047  0.0664  0.2782 -0.1345
 1304ERGO    C217378  11.489   6.963   7.318  0.0710  0.3733 -0.0094
 1305W        W17379  10.845   7.554  13.209  0.1137 -0.2479  0.2359
 1306W        W17380   3.324  17.882   5.648 -0.2833  0.0530 -0.0197
 1307W        W17381   4.718   0.219  12.592 -0.0265 -0.0856 -0.0291
 1308W        W17382  14.159   8.104  13.654  0.2755 -0.1119 -0.0329
 1309W        W17383   1.886  14.091   3.516 -0.2116 -0.0728  0.0936
 1310W        W17384   7.736   3.702  14.853 -0.0688  0.0762 -0.1659
 1311W        W17385  12.087   5.169   5.369 -0.0457 -0.0767  0.4853
 1312W        W17386   1.620  12.563  12.666 -0.2298 -0.1073 -0.1746
 1313W        W17387  10.068  12.769   2.134 -0.2410 -0.0764  0.0316
 1314W        W17388  12.625  17.211  14.512 -0.1972 -0.0247  0.1735
 1315W        W17389   2.445  14.601  11.695 -0.3821  0.1160 -0.1024
 1316W        W17390  14.396   8.803  14.307  0.0004 -0.0469 -0.2141
 1317W        W17391   5.907  13.838  15.230  0.0904 -0.1076 -0.0084
 1318W        W17392  12.992   6.794   0.019 -0.0970  0.1430  0.1340
 1319W        W17393   6.199  11.825   2.454  0.2547 -0.1984 -0.0231
 1320W        W17394   5.431   1.988   2.180  0.0407 -0.0562  0.0111
 1321W        W17395   8.232  10.578   2.875 -0.1446 -0.2828 -0.2284
 1322W        W17396  12.851   2.971  12.459 -0.0919  0.1153  0.0902
 1323W        W17397   8.030   7.056   0.952 -0.0744  0.0248  0.3023
 1324W        W17398  16.546   0.538  15.885  0.1530  0.0449  0.5440
 1325W        W17399   6.211   4.313   4.174  0.1684  0.1580  0.0071
 1326W        W17400  16.006   1.066   1.005 -0.1560  0.0358  0.1747
 1327W        W17401  11.657  11.202  14.655  0.1518 -0.0153 -0.1453
 1328W        W17402  12.953   6.709  12.139 -0.0590  0.0684 -0.1611
 1329W        W17403   6.780   9.223   3.490  0.0109 -0.0795  0.2692
 1330W        W17404   7.152   9.796   3.603  0.3205  0.1398 -0.1019
 1331W        W17405  11.862   6.229   0.695 -0.3318 -0.2686 -0.0463
 1332W        W17406  16.267  14.951   5.296 -0.0395  0.3203 -0.4128
 1333W        W17407   9.980   8.882  12.569 -0.0445  0.0668  0.0528
 1334W        W17408  18.135  16.838  12.457  0.1509 -0.1793 -0.1360
 1335W        W17409   3.362  12.703   2.031  0.0573 -0.0039  0.0878
 1336W        W17410  14.582   6.019  15.936 -0.0322 -0.0203  0.1168
 1337W        W17411  17.875   0.732   1.184  0.1089 -0.3243  0.0679
 1338W        W17412   1.147   4.000  13.914  0.0556  0.2734  0.1888
 1339W        W17413  11.328  15.643  14.541  0.1667 -0.1799 -0.0655
 1340W        W17414  15.077   8.244   4.661 -0.2543 -0.2019 -0.1081
 1341W        W17415   4.735   5.116  13.664 -0.2433  0.0829  0.0134
 1342W        W17416  12.897   6.660  11.186 -0.2737 -0.0469  0.3844
 1343W        W17417  12.190   7.811   0.736 -0.2114  0.2139 -0.2467
 1344W        W17418   0.760   0.402   2.568 -0.0782  0.2399 -0.0306
 1345W        W17419   8.480   7.010  14.472  0.1646 -0.0613 -0.0295
 1346W        W17420   2.873   0.688   0.465 -0.1816  0.2944 -0.4641
 1347W        W17421   7.576  14.781   4.864  0.1913  0.0315  0.2418
 1348W        W17422  14.490   7.195  12.315 -0.1645 -0.0323  0.0127
 1349W        W17423   6.362   7.631  14.612  0.2621 -0.2624 -0.0446
 1350W        W17424   8.867  16.983  13.192 -0.0230  0.1447 -0.1975
 1351W        W17425  13.180   5.501  15.241 -0.1996 -0.2494  0.1386
 1352W        W17426   8.141   7.392   4.682  0.3831  0.1898  0.0071
 1353W        W17427   8.607   2.818   2.328  0.0397  0.2869  0.0849
 1354W        W17428  17.962   0.003   6.277 -0.3342 -0.0957  0.0721
 1355W        W17429   8.958   0.061  10.297 -0.2354  0.1677  0.3251
 1356W        W17430   1.979  12.151   0.394  0.0907 -0.0859  0.2193
 1357W        W17431   8.310   6.282   1.507  0.0040  0.2096 -0.1604
 1358W        W17432  16.957   4.048   2.449 -0.5821  0.1869 -0.1291
 1359W        W17433   2.699   4.059  11.739  0.0766 -0.2668  0.0975
 1360W        W17434   1.271  16.920   3.481  0.0402  0.0956  0.0091
 1361W        W17435   1.488   0.574  12.889 -0.1234  0.1303 -0.1289
 1362W        W17436  16.780  13.306   0.230  0.2455 -0.1682 -0.1834
 1363W        W17437   9.235   5.333   3.170 -0.2965 -0.0990  0.2415
 1364W        W17438   0.830   9.742   0.346 -0.0477  0.1358  0.0268
 1365W        W17439   4.046  12.514  15.389 -0.1912 -0.2906  0.0051
 1366W        W17440   5.593  11.781  12.819 -0.1015 -0.2008  0.0667
 1367W        W17441  14.109   6.326  14.707 -0.1933 -0.0905  0.0264
 1368W        W17442   3.052   7.196  14.592  0.2223  0.3393 -0.1806
 1369W        W17443   1.858   7.632   0.369  0.4694  0.4495  0.0802
 1370W        W17444   7.843  11.660   3.334 -0.0008 -0.3898 -0.1273
 1371W        W17445  17.512   6.800   3.660  0.1706 -0.2654 -0.1322
 1372W        W17446   6.306  17.094   3.993 -0.3484  0.0391  0.0889
 1373W        W17447   4.180   9.911   1.540  0.1127 -0.1110 -0.0286
 1374W        W17448   4.774   2.598   5.790 -0.0581  0.0072  0.1247
 1375W        W17449  18.137  17.759  12.946 -0.0740  0.0578 -0.0429
 1376W        W17450  16.058  15.368   1.985  0.2647  0.0452  0.1826
 1377W        W17451   1.649  17.773   2.548 -0.1730  0.0011  0.1828
 1378W        W17452  16.341   8.841   1.563  0.1454 -0.1570  0.1420
 1379W        W17453  15.235  16.169   5.482 -0.1938  0.0802 -0.2324
 1380W        W17454  12.000  16.417  12.156 -0.2058 -0.0729  0.2437
 1381W        W17455   0.843   0.119   4.937  0.4295  0.3815 -0.2380
 1382W        W17456   3.129   2.747   4.357 -0.2993  0.0483  0.1872
 1383W        W17457   5.687   7.097  15.102  0.2444 -0.0668  0.1861
 1384W        W17458   5.836   9.867   2.168 -0.0383  0.0729  0.3895
 1385W        W17459   3.449   5.550   2.469  0.1743 -0.0425  0.0399
 1386W        W17460  11.441   7.363  14.841  0.0128 -0.0296  0.0543
 1387W        W17461   0.854   4.189   2.644 -0.1926 -0.0390  0.4861
 1388W        W17462  18.326   5.645   0.472  0.2716  0.0704  0.1829
 1389W        W17463  13.834   9.460   2.183 -0.2171  0.3520 -0.0800
 1390W        W17464  16.637   6.342   1.673 -0.1895 -0.0377 -0.0078
 1391W        W17465  11.554  17.099   0.610  0.0551 -0.0033  0.2548
 1392W        W17466   5.921  12.202  14.438  0.0070  0.0817 -0.2214
 1393W        W17467  14.591  10.875   2.507  0.0198  0.1507 -0.1105
 1394W        W17468   4.529  17.599   4.381 -0.2814 -0.1062  0.2114
 1395W        W17469  13.169   5.321  10.644  0.3182 -0.0427  0.1790
 1396W        W17470   9.330  14.187   5.187  0.1611  0.1782 -0.3152
 1397W        W17471  18.167   9.670  13.676 -0.3331 -0.2866  0.2488
 1398W        W17472   5.214  17.663   1.458 -0.1306  0.0850  0.1632
 1399W        W17473  16.448  18.135  12.188  0.0003 -0.0550  0.4187
 1400W        W17474  16.661  12.625  13.083 -0.0183 -0.0429  0.1818
 1401W        W17475  12.093   9.296   3.260 -0.0192  0.1273  0.3296
 1402W        W17476   3.089   2.116   0.288 -0.0281 -0.0113 -0.0631
 1403W        W17477  12.452   2.576  14.488 -0.0413  0.1857  0.0528
 1404W        W17478   0.167   3.811  15.829 -0.3969  0.2062  0.0695
 1405W        W17479   7.067  13.356  12.692  0.4406 -0.0125 -0.1455
 1406W        W17480  12.130  13.150   2.781 -0.1458  0.0513 -0.1677
 1407W        W17481   2.109  10.359   2.198  0.2450 -0.2184 -0.2192
 1408W        W17482   7.624  10.798  12.251 -0.2589  0.1350 -0.0904
 1409W        W17483   3.436   7.089   5.866 -0.1688  0.2442 -0.1130
 1410W        W17484  10.248   3.945   4.977 -0.1862  0.1637  0.1069
 1411W        W17485   7.261   0.920  15.810  0.2797 -0.4658 -0.1170
 1412W        W17486   0.712  15.595  10.736  0.0927 -0.2361 -0.0149
 1413W        W17487  11.552   2.868   1.891 -0.2732  0.0594  0.3764
 1414W        W17488  14.290   1.014   1.267  0.0947  0.0440  0.0503
 1415W        W17489   0.243  15.648   3.283 -0.0406 -0.0095 -0.0598
 1416W        W17490  15.788  11.450  15.852  0.3521  0.1021  0.4125
 1417W        W17491  13.446  16.412  14.269  0.0974  0.1732  0.0094
 1418W        W17492  10.359   5.302   1.347 -0.2890  0.1333  0.2818
 1419W        W17493  11.568  17.620  12.743  0.1205 -0.0755  0.1737
 1420W        W17494   5.388   0.282  16.137 -0.0671 -0.1476 -0.0552
 1421W        W17495   1.333  10.904  12.819 -0.1257 -0.0758  0.1575
 1422W        W17496  10.408  15.354   1.038 -0.0416 -0.1354 -0.3070
 1423W        W17497   0.815  17.345   0.064 -0.2507  0.2471  0.0782
 1424W        W17498   4.500   8.961  11.459 -0.0033  0.0973  0.0183
 1425W        W17499   8.809   5.847  15.467 -0.0288 -0.0401 -0.1247
 1426W        W17500  16.648   5.024   1.383 -0.3036 -0.1871  0.0582
 1427W        W17501   4.925   2.669   5.244 -0.2292 -0.2696 -0.0978
 1428W        W17502   3.719  11.875   1.600  0.1560  0.0374 -0.2211
 1429W        W17503   1.194   1.292   4.532  0.0561 -0.3641  0.3650
 1430W        W17504   4.890   2.451   3.904  0.1482  0.2460  0.2151
 1431W        W17505   8.869  11.256  15.234  0.0507  0.0576  0.1554
 1432W        W17506   2.157   7.251   0.433 -0.2551 -0.1922  0.0322
 1433W        W17507  13.097  16.776   3.240 -0.2006  0.1945 -0.0839
 1434W        W17508   7.334  17.833   4.870  0.1199  0.2452 -0.1660
 1435W        W17509   7.605   4.937  15.415 -0.1518 -0.0754  0.1538
 1436W        W17510   5.404   0.739  13.012  0.0161 -0.1129  0.4859
 1437W        W17511   1.584   5.335  14.976 -0.1688  0.1022 -0.2051
 1438W        W17512  10.730   5.974   0.899  0.0243  0.1814 -0.1899
 1439W        W17513   4.501   2.739  15.347 -0.0755 -0.1850 -0.3812
 1440W        W17514   7.311   8.816  16.063  0.0460  0.2304 -0.0105
 1441W        W17515  15.195  13.783   1.377  0.1624  0.1268 -0.1113
 1442W        W17516   6.256  12.783  13.866 -0.1653  0.1935  0.2879
 1443W        W17517  13.525  10.704  13.128  0.3622  0.0690  0.1260
 1444W        W17518   8.236  13.096   1.008  0.2115 -0.0895  0.1408
 1445W        W17519  17.735   8.902   5.909 -0.0207 -0.2251  0.0621
 1446W        W17520   9.324   7.949  12.461 -0.1397  0.1617 -0.0686
 1447W        W17521  14.549  16.977  13.613 -0.1919  0.0413 -0.3154
 1448W        W17522  18.003  15.574   2.532  0.0514  0.0116  0.3475
 1449W        W17523   2.793  11.698  11.576 -0.3500  0.0857  0.0704
 1450W        W17524  10.351   9.092   2.617 -0.0019  0.0340 -0.1479
 1451W        W17525   4.132   9.049  12.953 -0.0183  0.1660 -0.0748
 1452W        W17526   1.992  14.042   0.521  0.0020 -0.0005 -0.1688
 1453W        W17527   2.316   9.909   0.244  0.0690  0.0101  0.3311
 1454W        W17528  16.793   9.675   0.522 -0.2479  0.2338  0.1696
 1455W        W17529   1.765  14.394   4.067  0.0478  0.0281 -0.0192
 1456W        W17530   3.874   3.209  16.101  0.2937  0.1237  0.3080
 1457W        W17531   5.643   6.086  12.392  0.0193  0.1995  0.1239
 1458W        W17532   2.939   8.570   3.193 -0.1481 -0.0815  0.0916
 1459W        W17533   2.363  14.450   2.890  0.2274 -0.0650 -0.3480
 1460W        W17534  12.766   2.421  14.035 -0.3051 -0.4245  0.1145
 1461W        W17535  14.864   3.062   0.633 -0.3305  0.1201  0.3034
 1462W        W17536   8.298  17.883  10.961 -0.0932 -0.0273 -0.1780
 1463W        W17537   8.151   4.355   1.752  0.0490 -0.3936 -0.0008
 1464W        W17538   9.454   8.437   1.393  0.4253  0.1677  0.1296
 1465W        W17539   0.828  10.852  12.562 -0.2727 -0.1568 -0.1371
 1466W        W17540  13.741   8.164  16.198 -0.1289  0.1538  0.1685
 1467W        W17541  18.133  17.614   0.696  0.1913  0.2090 -0.0518
 1468W        W17542   9.229  10.845  14.169 -0.1292  0.0272 -0.0156
 1469W        W17543   6.281  17.317  14.079  0.0181 -0.3955  0.0384
 1470W        W17544   7.901  17.333   4.072 -0.1956  0.1623 -0.0630
 1471W        W17545   3.507  13.435   0.999 -0.0084 -0.3150  0.0824
 1472W        W17546  15.637  14.142   1.002  0.3349 -0.1716 -0.3932
 1473W        W17547   5.004   6.877   2.855  0.2996 -0.2850  0.2878
 1474W        W17548  12.321  15.234   3.777  0.0503  0.0845 -0.0654
 1475W        W17549   6.009  12.667   4.385  0.0545  0.1189  0.2355
 1476W        W17550   9.284  10.418   4.622  0.1158 -0.4228  0.0226
 1477W        W17551   6.648  17.951   0.198 -0.1793 -0.1795 -0.0749
 1478W        W17552   3.842  11.200  15.631 -0.0288 -0.0418  0.0892
 1479W        W17553   5.861  11.497  15.950  0.2947 -0.3257 -0.1330
 1480W        W17554  16.832  15.808   3.303 -0.1155  0.0581  0.0982
 1481W        W17555  11.311   6.613  14.762 -0.0004 -0.0910 -0.2295
 1482W        W17556  14.589   1.045  11.095 -0.1668 -0.2874 -0.2964
 1483W        W17557  18.027  18.038   1.232  0.1716 -0.0142 -0.2216
 1484W        W17558  13.463   4.711  14.563 -0.3181 -0.2273 -0.0813
 1485W        W17559   9.882   5.240   0.498 -0.1616 -0.2234 -0.1355
 1486W        W17560  14.182  17.855   4.680 -0.1241  0.0276 -0.1523
 1487W        W17561  11.970  13.159   4.105  0.1814 -0.2736 -0.2109
 1488W        W17562   2.193   3.545   0.067  0.0141 -0.1519 -0.3489
 1489W        W17563   7.631  15.414   3.958 -0.0047  0.0488 -0.0219
 1490W        W17564  17.549  15.179  16.174 -0.1384  0.2539  0.2767
 1491W        W17565   9.655  17.338   4.639 -0.0009  0.1871  0.4598
 1492W        W17566   1.236  14.170  11.787  0.2540  0.0202  0.0084
 1493W        W17567  17.211   5.136   2.633  0.1635  0.1074  0.1017
 1494W        W17568   8.895   2.553   1.111  0.1255 -0.2238 -0.3974
 1495W        W17569  13.390   2.137   2.008 -0.2154 -0.2764  0.2678
 1496W        W17570   2.352   1.886   5.489 -0.0807 -0.1797  0.1237
 1497W        W17571   7.969   7.774   0.624 -0.3393 -0.1790 -0.1938
 1498W        W17572  15.787   0.710  14.478  0.0519 -0.1338 -0.0076
 1499W        W17573   7.892   2.140   1.829 -0.2606  0.0240  0.0823
 1500W        W17574   4.834  12.982  15.018  0.1179  0.0815  0.2924
 1501W        W17575   7.495   2.518  15.276 -0.3619  0.5214 -0.2416
 1502W        W17576  15.661   0.415  15.065  0.0635 -0.1838 -0.0315
 1503W        W17577   5.364  11.394   5.483 -0.1615  0.0476  0.2260
 1504W        W17578  17.745  17.796  13.747 -0.0370  0.2662  0.2599
 1505W        W17579   8.542   6.958  13.513  0.1061  0.0082 -0.0782
 1506W        W17580   0.061  13.902  11.899  0.1863  0.0104  0.0137
 1507W        W17581   6.971  13.210   3.526  0.1843 -0.2533  0.0641
 1508W        W17582   5.727   1.069   6.249  0.1529 -0.2230  0.1345
 1509W        W17583   6.061  14.133  14.776 -0.1724  0.3319  0.3570
 1510W        W17584  15.887   8.014  16.144 -0.2334  0.1751  0.1392
 1511W        W17585   9.798  17.936  14.406 -0.2913  0.2768 -0.0593
 1512W        W17586  12.909  15.620  15.826  0.1022  0.2681  0.3819
 1513W        W17587  17.170   8.237  12.868  0.3501  0.0304  0.3378
 1514W        W17588   3.797  15.513  12.246 -0.0006 -0.2236  0.0565
 1515W        W17589   0.049   8.232  14.298 -0.1623  0.0692  0.2043
 1516W        W17590  16.821  18.026   2.179  0.5762  0.2326  0.1015
 1517W        W17591   7.561  16.738   1.852  0.1895 -0.0674 -0.0268
 1518W        W17592   6.955  16.325  13.234  0.0617 -0.0479  0.1560
 1519W        W17593  12.837   0.038   3.620  0.1045  0.1818  0.2331
 1520W        W17594   6.600   6.485  12.210  0.1740  0.0190  0.5048
 1521W        W17595  16.969  11.811   1.470 -0.0375 -0.1447  0.2927
 1522W        W17596   6.208  16.882   1.283 -0.0811 -0.0941 -0.1454
 1523W        W17597   3.643   9.608  12.124 -0.1059 -0.2220  0.0619
 1524W        W17598   9.284   5.910   2.988 -0.1930 -0.0576  0.3929
 1525W        W17599  17.772  16.030   0.851 -0.1150  0.0910 -0.1683
 1526W        W17600   1.172  14.477   3.041  0.0487 -0.1532  0.0883
 1527W        W17601   9.287  11.867   5.903  0.1939 -0.3883 -0.1566
 1528W        W17602  16.698   1.521   1.645 -0.3098  0.2167  0.0554
 1529W        W17603   8.622  11.985   3.513  0.0259 -0.2318 -0.0258
 1530W        W17604   0.555   3.172   4.313 -0.1888 -0.0935  0.0606
 1531W        W17605  18.136   0.894  13.453 -0.0667  0.0942  0.0533
 1532W        W17606   0.622  15.113   0.505  0.2244  0.0576  0.1971
 1533W        W17607   2.518  15.174  15.744 -0.1739  0.2741 -0.1458
 1534W        W17608  11.783  18.307   4.866 -0.2129 -0.1717  0.4233
 1535W        W17609   8.914   3.968  14.991  0.3572 -0.0158  0.0299
 1536W        W17610   4.802  15.820  14.670  0.8062  0.3919  0.1396
 1537W        W17611  10.658  14.017  15.564 -0.2684 -0.2083 -0.1494
 1538W        W17612   1.310   8.691   1.168 -0.0477 -0.1695  0.2304
 1539W        W17613   9.425  10.195  12.393  0.0918  0.1110 -0.0851
 1540W        W17614   8.221   8.166  15.308  0.0158 -0.2072 -0.0819
 1541W        W17615  14.067   0.735   4.280  0.2301 -0.0352  0.1796
 1542W        W17616  10.616   5.649   1.998 -0.1406  0.3521 -0.1071
 1543W        W17617   6.705  12.877   4.358 -0.1293  0.4303 -0.1106
 1544W        W17618  11.306   8.963  12.024  0.0589 -0.0559 -0.0666
 1545W        W17619   8.317  12.644   0.831  0.1958 -0.2012  0.3046
 1546W        W17620   1.587  17.138  15.452 -0.2033 -0.0415 -0.0806
 1547W        W17621   2.033   2.327   3.311  0.3053 -0.0950  0.1020
 1548W        W17622   8.244  16.472   2.541 -0.2680  0.1844  0.1713
 1549W        W17623  11.939  12.152   1.855  0.3519  0.2272  0.0816
 1550W        W17624  12.438  13.553   2.779 -0.1631 -0.0741 -0.1636
 1551W        W17625   0.283   0.881   0.645 -0.0537 -0.0599  0.1836
 1552W        W17626   3.794   9.961   0.599  0.1643 -0.2551  0.3336
 1553W        W17627  13.975  10.481  15.960 -0.1589  0.1454 -0.0597
 1554W        W17628   7.166   1.825  12.732 -0.2446  0.2431 -0.0514
 1555W        W17629   9.718  16.444   0.584 -0.2179 -0.1953  0.0423
 1556W        W17630  12.572  11.728  15.563 -0.3412  0.0494 -0.1025
 1557W        W17631   2.910  10.174  13.213  0.2271  0.0131 -0.1947
 1558W        W17632  18.287  17.332  12.707 -0.1014 -0.0296 -0.1985
 1559W        W17633   2.844   6.619   2.909 -0.0648  0.3645  0.2657
 1560W        W17634   8.984  13.564   2.508 -0.3678  0.1062  0.0737
 1561W        W17635  10.772   4.910  12.745  0.0518 -0.0907  0.2473
 1562W        W17636   9.723  11.678  13.967 -0.1504 -0.1897  0.2308
 1563W        W17637  14.362  18.004   2.655 -0.1134  0.2351 -0.0216
 1564W        W17638   8.196   7.072  13.151 -0.1885  0.0857 -0.1046
 1565W        W17639   8.530   3.596   0.544 -0.2686 -0.2264  0.1465
 1566W        W17640   3.477  12.153  11.557  0.1314  0.0477  0.2529
 1567W        W17641   6.925  13.136  13.217 -0.1495 -0.1075 -0.0643
 1568W        W17642  14.010   2.255   5.121  0.0278  0.2194  0.0503
 1569W        W17643   0.842   4.337   5.011 -0.1628  0.0339  0.0621
 1570W        W17644   3.048  12.533  15.215 -0.1092 -0.0963  0.2022
 1571W        W17645   6.634  16.615   1.483  0.0649  0.1838  0.2224
 1572W        W17646   9.727   4.225   2.831 -0.0629 -0.3769  0.0827
 1573W        W17647   0.913  16.818   3.816 -0.1802  0.0374  0.0095
 1574W        W17648   2.506  10.461   3.026  0.0223 -0.1109  0.2199
 1575W        W17649   1.677   8.801  12.721  0.2665 -0.1984 -0.1454
 1576W        W17650   2.831  12.164   4.791  0.0366 -0.2555 -0.0957
 1577W        W17651  11.444   4.650   3.227  0.2462 -0.1580  0.0904
 1578W        W17652   4.809   3.550   2.598 -0.0895 -0.1452  0.0729
 1579W        W17653   1.986   7.878  14.255  0.1981  0.1379  0.1152
 1580W        W17654   4.558   1.548   5.296  0.0755 -0.0760  0.1055
 1581W        W17655  11.904   5.205   3.925 -0.1563 -0.1375 -0.0285
 1582W        W17656  11.653  17.356  16.079  0.0556 -0.0854  0.0109
 1583W        W17657   1.487  11.738  15.675  0.1092 -0.2518  0.0848
 1584W        W17658  16.926   0.123  14.104 -0.1748 -0.0918 -0.2989
 1585W        W17659  15.305   2.051  12.506  0.0690  0.0400 -0.0037
 1586W        W17660   8.180   2.468  14.014  0.0644  0.0604 -0.0011
 1587W        W17661  14.932  12.767  16.352 -0.1100 -0.1318 -0.2993
 1588W        W17662   4.701   7.551   3.162  0.2240 -0.0958 -0.2567
 1589W        W17663   9.088   3.431  13.391  0.0314  0.0714  0.1235
 1590W        W17664   0.154  10.195   3.892 -0.0625 -0.1702  0.1019
 1591W        W17665  13.544   5.293   3.694  0.1856 -0.0688  0.0746
 1592W        W17666  17.898   0.251   1.965 -0.1876 -0.3095  0.0143
 1593W        W17667  10.966   0.707  14.840  0.0454 -0.0860  0.2198
 1594W        W17668   7.888   5.309   3.852  0.3250  0.1706  0.3065
 1595W        W17669   7.653   9.178   5.221 -0.0625  0.1418  0.0422
 1596W        W17670   4.352   7.825  14.304  0.2164  0.1471 -0.1037
 1597W        W17671   3.510   6.573   0.296 -0.1325 -0.0403 -0.0757
 1598W        W17672  12.909   8.970   0.397  0.0522 -0.0273 -0.2914
 1599W        W17673  12.367   6.087   3.852  0.2832 -0.2476  0.2531
 1600W        W17674   9.441  12.433   4.654  0.1822  0.2763 -0.0327
 1601W        W17675  15.402  10.916  13.093  0.0276 -0.1376  0.0510
 1602W        W17676  15.833   1.997   4.378 -0.3670  0.2455  0.3664
 1603W        W17677  10.007  10.714  13.459  0.2932 -0.2284 -0.0303
 1604W        W17678   9.372   2.051  11.660 -0.1519  0.2134  0.4207
 1605W        W17679  13.628   5.906  11.363 -0.0580  0.1906 -0.1818
 1606W        W17680  10.404   1.476   3.798 -0.1684 -0.2708  0.0759
 1607W        W17681   2.549  16.606   4.865 -0.0283  0.0617  0.4740
 1608W        W17682   2.949   2.368  12.732  0.2476 -0.0254  0.0247
 1609W        W17683   4.087   0.201  12.020 -0.2401 -0.0701  0.0004
 1610W        W17684  14.288  15.366   5.111 -0.1451 -0.0610 -0.0023
 1611W        W17685  17.291  15.843   3.598 -0.0250 -0.1179  0.0635
 1612W        W17686  10.379  13.041  14.675 -0.3858  0.0023  0.1968
 1613W        W17687  12.874   2.753   3.245 -0.0316  0.2705  0.1930
 1614W        W17688  12.010   5.225   4.410 -0.0833  0.1284 -0.0913
 1615W        W17689   6.392   9.555  13.560 -0.2034  0.0646  0.1279
 1616W        W17690   5.133   5.072   2.747 -0.1887  0.1648 -0.1131
 1617W        W17691  15.057  11.120  15.797  0.0687 -0.0676  0.1397
 1618W        W17692  13.865  17.089   2.812 -0.3042  0.0157 -0.2647
 1619W        W17693  12.416   3.087   4.010  0.0287  0.1571 -0.0309
 1620W        W17694   4.882  16.078   2.316 -0.4021 -0.3108  0.0522
 1621W        W17695  13.835   5.900   0.183  0.0270 -0.0430 -0.0345
 1622W        W17696   3.255   8.631  16.010 -0.2185  0.1941 -0.2072
 1623W        W17697  14.289   8.977   4.559 -0.1600 -0.1847 -0.0537
 1624W        W17698   3.962   2.527  10.384  0.1795 -0.1080  0.1136
 1625W        W17699   1.816   5.692   5.112 -0.3923  0.2411 -0.1743
 1626W        W17700   1.529   3.152   1.995 -0.0498  0.0925  0.2855
 1627W        W17701   8.803   9.504   3.060 -0.2388  0.4185 -0.0492
 1628W        W17702  11.167  16.116  14.103  0.1296 -0.2283 -0.0910
 1629W        W17703  12.737   4.496   2.949 -0.1070  0.1032 -0.0551
 1630W        W17704   8.260   8.046  12.722  0.1361 -0.0127  0.1706
 1631W        W17705   9.071   8.240  12.101  0.1285  0.2286 -0.0761
 1632W        W17706  17.147  16.511  13.937 -0.1129 -0.0380  0.0384
 1633W        W17707   7.088  11.844   1.117  0.0625 -0.0532  0.2272
 1634W        W17708   9.144   3.416   2.710 -0.1303 -0.3997  0.0020
 1635W        W17709   6.772   0.620  16.058 -0.0080 -0.0299  0.3272
 1636W        W17710   3.908  11.377   2.677 -0.0554 -0.0463 -0.1330
 1637W        W17711   9.728   0.887   0.189  0.0007  0.1516  0.3340
 1638W        W17712  12.067  10.567  14.519 -0.1953 -0.1035  0.0373
 1639W        W17713   5.474   6.023  15.523 -0.0401  0.1458 -0.0540
 1640W        W17714   9.121  17.780  14.248 -0.2586 -0.4679 -0.1385
 1641W        W17715  11.814   3.275  11.219 -0.4024 -0.6113  0.0192
 1642W        W17716  13.447  13.567  13.390 -0.1671 -0.0269  0.0441
 1643W        W17717   8.390  15.237   5.165  0.1088  0.0919 -0.2154
 1644W        W17718  16.714  11.677   1.919 -0.0710 -0.0197 -0.0386
 1645W        W17719  13.754  15.352   5.260  0.2438  0.1500  0.1597
 1646W        W17720   6.260  12.981  15.610  0.0798  0.1929 -0.0085
 1647W        W17721  13.757  11.675  13.622  0.0908  0.1672 -0.0957
 1648W        W17722  11.186   6.820  14.162 -0.2406 -0.0166 -0.1299
 1649W        W17723  15.198  11.579   2.639 -0.1377  0.2647 -0.0281
 1650W        W17724   0.910  10.141  13.474 -0.0856  0.1304 -0.0213
 1651W        W17725   9.183   9.734   4.960  0.1733  0.1271  0.1617
 1652W        W17726   4.477  10.395  13.656  0.1880 -0.1975 -0.0455
 1653W        W17727  11.215   4.166  12.228 -0.2064 -0.3709  0.0252
 1654W        W17728   1.271  10.616   5.403 -0.0574  0.0718 -0.1596
 1655W        W17729   4.411   4.368  11.095 -0.2161  0.4243 -0.1107
 1656W        W17730  10.910   0.972  10.826 -0.1789 -0.0352  0.1654
 1657W        W17731  17.201   5.839  14.738 -0.2247 -0.0318 -0.0475
 1658W        W17732   5.186   8.428   3.295  0.4075 -0.2601 -0.0940
 1659W        W17733   0.126  16.074  13.502 -0.1075  0.0735  0.2017
 1660W        W17734   5.917  15.925   4.088  0.1063 -0.3511 -0.3500
 1661W        W17735   0.207   3.408  13.195 -0.0736  0.1647 -0.1096
 1662W        W17736  14.365  12.972   5.795 -0.2469 -0.3058  0.1805
 1663W        W17737   0.465   2.311  14.181 -0.3580  0.1399 -0.0663
 1664W        W17738   4.692  18.197  14.209  0.0175  0.0191 -0.1287
 1665W        W17739   4.325   9.188  12.477  0.1274 -0.0098  0.2257
 1666W        W17740  11.159  17.907  14.300  0.0194 -0.0345 -0.0831
 1667W        W17741  15.025  17.710  13.877  0.1889 -0.4783  0.0656
 1668W        W17742  15.575   0.582   4.245 -0.2237  0.1054  0.2429
 1669W        W17743  15.912  14.498   4.128 -0.2454 -0.2603  0.0093
 1670W        W17744   4.309  15.532   5.532  0.0124  0.0539  0.0107
 1671W        W17745  12.883   5.764  10.905 -0.3217 -0.2018  0.3105
 1672W        W17746   7.235   3.292  10.960 -0.2539  0.0078 -0.1101
 1673W        W17747   8.144  10.760   3.562  0.0572  0.0166  0.0762
 1674W        W17748  12.911   8.516   0.630  0.0783 -0.0340  0.1732
 1675W        W17749   1.550   3.067  11.580 -0.0545 -0.1928 -0.0894
 1676W        W17750   8.503   2.247  11.576 -0.0261  0.1077 -0.1501
 1677W        W17751   9.815  12.549  15.728  0.0693  0.0570  0.1443
 1678W        W17752  16.933   9.228   0.767 -0.2194 -0.4184  0.5365
 1679W        W17753  17.710  16.632   4.463  0.1540 -0.2218  0.1773
 1680W        W17754  12.761   7.821  15.735 -0.3073  0.2026 -0.2113
 1681W        W17755   3.643   0.931  11.350  0.0715  0.1492 -0.1618
 1682W        W17756   4.549   2.849   3.864 -0.0511  0.0766  0.1315
 1683W        W17757  17.927  18.109   0.769 -0.1479 -0.3927  0.4247
 1684W        W17758  10.800  11.498   3.872 -0.0446  0.0387 -0.0198
 1685W        W17759   6.051  12.640   5.735  0.2076  0.0581 -0.0729
 1686W        W17760   3.605  10.959  12.466 -0.0740 -0.2604 -0.1004
 1687W        W17761   3.701  11.645   0.396  0.1841  0.0570 -0.4777
 1688W        W17762  16.165   2.964   1.862  0.4227  0.2587  0.0798
 1689W        W17763   1.828   4.839  16.003 -0.0049  0.2031  0.1990
 1690W        W17764   6.970   4.736   5.004 -0.1667  0.3035 -0.1637
 1691W        W17765  14.749   4.326   1.858 -0.0848  0.1825  0.1442
 1692W        W17766  16.762  16.007  14.510  0.2438  0.1108 -0.1649
 1693W        W17767  12.754   9.218   5.289  0.1160 -0.0281 -0.1585
 1694W        W17768   0.188  12.979  15.170 -0.1990  0.2877  0.0309
 1695W        W17769  11.603  14.010   5.158 -0.1093  0.0925  0.0440
 1696W        W17770   4.324  13.851   5.355 -0.0547 -0.1895 -0.3802
 1697W        W17771   9.590  16.638  11.092  0.2070 -0.0011  0.0462
 1698W        W17772  10.101  13.138   0.783  0.0125 -0.2027 -0.0604
 1699W        W17773   9.301   3.562  14.885  0.0578 -0.3946 -0.2255
 1700W        W17774   9.807   6.391  13.548 -0.2169 -0.2978  0.1014
 1701W        W17775   1.742  13.204  16.126 -0.0878  0.0075  0.0528
 1702W        W17776  17.612  15.984  11.023  0.0388  0.1235  0.0403
 1703W        W17777   6.183  17.008   4.505 -0.0472 -0.1087  0.0315
 1704W        W17778   7.792   4.804   4.572  0.0693  0.1424  0.2007
 1705W        W17779  10.459   1.960  14.193  0.1017 -0.2609 -0.2683
 1706W        W17780   3.520   7.393  13.090 -0.1166  0.1083  0.4066
 1707W        W17781  15.948   8.799   2.048  0.1092  0.0297  0.0080
 1708W        W17782   1.522  17.454  13.749  0.2238  0.2458 -0.2122
 1709W        W17783   7.285   0.817   2.938  0.1869  0.1271  0.0512
 1710W        W17784  10.961  12.582  15.551  0.2408  0.1038  0.2221
 1711W        W17785  16.536  11.635   0.621 -0.0112 -0.1218  0.6529
 1712W        W17786  14.258  16.378   2.902  0.0607  0.0122  0.1432
 1713W        W17787  17.336   3.544  12.980 -0.0759 -0.0518  0.5146
 1714W        W17788   0.874  12.547  11.182 -0.0454 -0.0312 -0.0695
 1715W        W17789  10.897   0.331   4.213  0.2838  0.0278  0.0603
 1716W        W17790   3.890  10.068   1.155 -0.2573  0.0923  0.3532
 1717W        W17791  16.245  13.463  13.428 -0.1485 -0.1454 -0.0374
 1718W        W17792  12.774   9.119   4.714 -0.0482  0.1322  0.2584
 1719W        W17793  18.035   1.366   1.317 -0.0586  0.0938  0.1573
 1720W        W17794  12.767   8.332  16.078  0.1885 -0.0313  0.2011
 1721W        W17795   3.210   8.882   5.129  0.0657 -0.1335  0.0064
 1722W        W17796   7.400   4.042   5.453 -0.1400  0.1724  0.0715
 1723W        W17797  10.790   8.902   2.014  0.2819  0.2875  0.0520
 1724W        W17798  17.488   6.624   2.433 -0.2795 -0.0944 -0.1712
 1725W        W17799   7.803   6.884   5.290 -0.0966  0.1166 -0.2562
 1726W        W17800  16.597  13.969  14.069  0.4139  0.1717 -0.1323
 1727W        W17801   5.438   2.427   3.426  0.2679  0.0658  0.2114
 1728W        W17802   2.565   4.732  12.737  0.2206  0.2856 -0.1368
 1729W        W17803   0.771  14.257   5.791 -0.1621 -0.2536  0.0480
 1730W        W17804   3.906   0.527  11.693 -0.2287 -0.2128 -0.1051
 1731W        W17805  14.241   9.238  11.387 -0.0547  0.0386 -0.1268
 1732W        W17806   8.484  10.501   0.573  0.1540  0.2419 -0.2783
 1733W        W17807   7.404   2.359   3.136 -0.1022 -0.4405 -0.0261
 1734W        W17808  11.026   4.406   2.469  0.1006 -0.2397 -0.3493
 1735W        W17809  15.762   8.689   4.269  0.1478 -0.1766  0.1021
 1736W        W17810   8.134   6.849  14.814  0.2727 -0.0458 -0.1935
 1737W        W17811  12.478   2.213  16.046 -0.0814 -0.0128  0.0528
 1738W        W17812  15.352   5.287  11.962 -0.0367  0.1704 -0.1399
 1739W        W17813   7.270   1.982   3.426 -0.1677 -0.0151  0.0426
 1740W        W17814  17.691   9.605   4.076 -0.2678  0.0298 -0.3500
 1741W        W17815   0.552  12.555   2.764 -0.2767 -0.0038  0.0374
 1742W        W17816   5.002   2.752  11.521 -0.3524  0.0964  0.4016
 1743W        W17817   0.392   1.267  12.644  0.1728  0.0791 -0.0351
 1744W        W17818  14.754  13.615   3.385  0.0069 -0.0529 -0.2681
 1745W        W17819   3.197   5.574   3.423 -0.3442  0.1015  0.3023
 1746W        W17820   8.989   4.095  11.043  0.1053  0.2322  0.0428
 1747W        W17821   7.267  14.147  15.775  0.2029  0.0663 -0.4253
 1748W        W17822   2.406   5.384  15.077 -0.0089 -0.0920  0.2303
 1749W        W17823  18.165   7.932  13.865  0.2084 -0.0770  0.1272
 1750W        W17824   1.664   1.720   4.418  0.0796  0.0021 -0.0096
 1751W        W17825  10.901  13.416   3.778  0.2462 -0.0058 -0.0527
 1752W        W17826  14.815  15.143  15.807  0.2466  0.0482 -0.1946
 1753W        W17827  14.996   5.092  12.269  0.0041 -0.3297  0.1463
 1754W        W17828  15.026  13.408   0.745  0.1016  0.2409 -0.0343
 1755W        W17829   5.162  14.047  11.604 -0.1851 -0.0867  0.0996
 1756W        W17830  14.982   7.872  13.366  0.5813  0.3407 -0.1691
 1757W        W17831   7.824  11.872  16.076  0.0170 -0.2179 -0.1043
 1758W        W17832   1.728  18.219   5.830  0.2255 -0.2030 -0.0958
 1759W        W17833   1.981   7.760   5.574 -0.0447 -0.1567  0.2906
 1760W        W17834  14.457   4.158   3.847 -0.2517 -0.1124  0.1100
 1761W        W17835   2.668   5.515   4.105  0.1102 -0.0726  0.1072
 1762W        W17836  12.299  17.968  12.023  0.4456  0.0169  0.1167
 1763W        W17837  15.358  14.650   1.882  0.2534 -0.0401  0.0571
 1764W        W17838  15.673   5.880   5.238  0.0827  0.3729  0.0308
 1765W        W17839  17.995   2.932   2.191  0.0096 -0.1309  0.1606
 1766W        W17840   0.400  11.105  12.648  0.3043 -0.0066 -0.1420
 1767W        W17841  10.517  11.655   3.368  0.1091 -0.1828  0.1607
 1768W        W17842   6.548   8.757   3.518  0.0274  0.4973  0.0447
 1769W        W17843   8.895  17.542  13.878  0.0696  0.0356 -0.2489
 1770W        W17844   2.110   5.589  11.550  0.0136 -0.1890 -0.0472
 1771W        W17845   1.474   3.330   4.575 -0.1586 -0.0268  0.0654
 1772W        W17846   0.919  12.404   4.010  0.1631 -0.0516  0.0671
 1773W        W17847  13.303  17.620  13.608 -0.0776  0.1866  0.0398
 1774W        W17848   1.969   9.410  14.637 -0.2744 -0.0582 -0.2058
 1775W        W17849  11.641  12.316  12.671 -0.0559  0.1015 -0.1600
 1776W        W17850  13.480   3.009   1.783  0.2252  0.0221  0.1867
 1777W        W17851   3.197   3.077   3.725 -0.0408 -0.3678  0.0358
 1778W        W17852  12.305  14.065  14.624 -0.3124 -0.1707  0.0434
 1779W        W17853   9.058  13.215   3.914 -0.0596  0.1557  0.1323
 1780W        W17854   3.206  11.384   4.080  0.0334 -0.0215 -0.1245
 1781W        W17855   2.361  12.713  14.035 -0.0472 -0.1268  0.0020
 1782W        W17856  17.304   6.664  14.522  0.1259 -0.0441 -0.1350
 1783W        W17857  11.399  10.244   2.580 -0.1828 -0.1146  0.1903
 1784W        W17858   8.075   1.440   0.943 -0.2047  0.3271 -0.3975
 1785W        W17859  15.749  14.901  15.546 -0.1120 -0.1770 -0.0293
 1786W        W17860  17.832  12.545  15.491  0.1687  0.1175 -0.1169
 1787W        W17861  14.572   0.488   4.427  0.1118 -0.0533 -0.1628
 1788W        W17862  15.514   6.978  11.686  0.1261  0.0633 -0.1263
 1789W        W17863   3.087  12.574  11.519 -0.1472  0.1429  0.3198
 1790W        W17864   9.595  15.063   0.384 -0.2690  0.0473  0.2994
 1791W        W17865   7.511   2.645  13.372 -0.5320 -0.3239  0.0106
 1792W        W17866   9.735  12.441   5.494  0.2024 -0.2199  0.0746
 1793W        W17867   0.881   8.536  14.832  0.0260 -0.2947 -0.3541
 1794W        W17868  16.145  14.718  14.377 -0.0567 -0.1728  0.1772
 1795W        W17869  11.884  10.336   1.841 -0.1643  0.1128  0.0067
 1796W        W17870  13.118  17.724  11.767  0.1996  0.1228 -0.0280
 1797W        W17871   7.105   5.354  15.610 -0.3170  0.0195  0.0440
 1798W        W17872  10.193  14.502   0.628  0.3744  0.1635  0.1584
 1799W        W17873  17.362   9.955  16.130 -0.0324 -0.1167 -0.0111
 1800W        W17874   5.372  17.279  16.203 -0.6061  0.0743  0.0554
 1801W        W17875   8.357   0.740  16.289  0.0748  0.1435  0.2087
 1802W        W17876  16.552   9.425   3.116 -0.0044 -0.1283  0.1177
 1803W        W17877  11.680   7.751  14.187 -0.3289  0.0178  0.3312
 1804W        W17878   1.017   7.348   4.693 -0.1501 -0.0250  0.0510
 1805W        W17879   6.080   4.217  11.583  0.3698 -0.0997  0.0655
 1806W        W17880   6.583   4.325   3.452 -0.1371  0.2725  0.0318
 1807W        W17881  15.775   8.765   5.778  0.0604 -0.0991 -0.1683
 1808W        W17882  15.015   3.559   3.032 -0.0401  0.3543 -0.3048
 1809W        W17883  15.410   9.678  15.921  0.3219 -0.0557 -0.0673
 1810W        W17884   3.871   3.763  12.884  0.0041 -0.0315 -0.2049
 1811W        W17885  12.809   9.775  13.417 -0.2514 -0.4381  0.1896
 1812W        W17886   5.561  16.554   0.870  0.0930  0.0025 -0.1654
 1813W        W17887   9.344   8.657  13.042 -0.2481 -0.0742  0.0679
 1814W        W17888   0.033  17.258  11.835 -0.1180  0.2321  0.0898
 1815W        W17889   8.866  17.456   3.585  0.0157  0.0454 -0.0640
 1816W        W17890   8.088   4.129   1.059  0.1160  0.4076  0.0411
 1817W        W17891   5.803  10.463   5.233 -0.1359  0.0617  0.2237
 1818W        W17892  15.946  12.093   4.449 -0.3707  0.2882 -0.3352
 1819W        W17893  15.373   4.858   2.710 -0.0402  0.0356 -0.0610
 1820W        W17894  13.477  13.575   0.307 -0.0734  0.1337 -0.1231
 1821W        W17895  17.741   4.486  14.290  0.1633 -0.0328 -0.1008
 1822W        W17896   5.119  14.080  13.967 -0.0024  0.1493 -0.1751
 1823W        W17897   6.047  12.855  13.122 -0.1436  0.2327 -0.1160
 1824W        W17898   7.025   7.431  11.174  0.0830  0.0838  0.2947
 1825W        W17899   4.580  16.667   4.476 -0.3170 -0.0622  0.1835
 1826W        W17900   9.463   0.547   2.817  0.1881  0.3248 -0.0107
 1827W        W17901  18.107   9.752   1.768  0.0316 -0.0799 -0.1049
 1828W        W17902   4.130  13.259  12.078 -0.1111 -0.1708 -0.1247
 1829W        W17903  16.793   1.110  13.720 -0.2187  0.1343  0.3240
 1830W        W17904  12.746   4.653   3.944  0.1276  0.2151  0.3145
 1831W        W17905   5.868   0.626   2.222 -0.0474 -0.1474 -0.0006
 1832W        W17906  11.307  16.648   0.649 -0.3534  0.0213 -0.0055
 1833W        W17907  17.630  18.212   3.225  0.0246 -0.1419 -0.3188
 1834W        W17908   2.166   7.495  11.057 -0.0424  0.1064 -0.2698
 1835W        W17909   2.492   9.344  15.934 -0.2040  0.1266 -0.0564
 1836W        W17910   6.619  13.571  12.805 -0.2293  0.0984 -0.1411
 1837W        W17911  14.853   7.988   5.136  0.1197 -0.2154  0.0768
 1838W        W17912  13.311   8.563   4.142  0.1759  0.1410  0.3900
 1839W        W17913  16.718   0.159  16.232  0.1884  0.3451  0.0358
 1840W        W17914   7.512  13.946   2.054 -0.0185  0.1850 -0.2341
 1841W        W17915   8.615  17.534  16.123 -0.0252  0.1137  0.1596
 1842W        W17916   9.953  17.900  11.559  0.0487 -0.0289 -0.0586
 1843W        W17917   5.301   9.827   1.347  0.2116 -0.0199 -0.0441
 1844W        W17918   5.607  13.629  15.753 -0.1467  0.3912  0.2600
 1845W        W17919  15.593  13.287  13.976 -0.0775 -0.1551 -0.0407
 1846W        W17920   9.837   2.322   3.368 -0.0370 -0.2445  0.1259
 1847W        W17921   2.677  16.497  15.853 -0.0744 -0.0739 -0.2571
 1848W        W17922   4.034   9.540  12.701 -0.1466  0.5884 -0.2108
 1849W        W17923   0.204  15.633   0.336  0.1499  0.3813  0.2027
 1850W        W17924   2.276   1.446  15.260 -0.0184 -0.1830 -0.0897
 1851W        W17925  10.661   5.065  15.643 -0.1968 -0.2103  0.3392
 1852W        W17926  17.575  13.925   0.004 -0.1945  0.3799 -0.2126
 1853W        W17927   9.017   7.714  15.082  0.0002  0.1606 -0.2386
 1854W        W17928   0.810   5.517  11.075 -0.0014 -0.2683 -0.0298
 1855W        W17929  15.765  12.820   4.985  0.1085  0.0510 -0.0843
 1856W        W17930  13.410  15.381   5.795  0.2544 -0.1561  0.2960
 1857W        W17931  15.012   4.736   0.773 -0.1881 -0.1690  0.0014
 1858W        W17932   7.699  18.300   3.780  0.0709  0.0454 -0.1184
 1859W        W17933   2.795   4.237  12.203 -0.2094 -0.1300  0.1030
 1860W        W17934  16.923   7.903  12.118  0.1569 -0.2042 -0.1938
 1861W        W17935  15.499   9.631   5.440 -0.0726 -0.0005 -0.2655
 1862W        W17936   6.781   9.235  13.582 -0.0270  0.2362  0.0219
 1863W        W17937   2.354   0.986  14.928  0.0704 -0.0910 -0.0381
 1864W        W17938   3.303  16.845   5.502  0.1195  0.1994 -0.1035
 1865W        W17939   8.767   6.037  15.975  0.1438 -0.1841  0.0511
 1866W        W17940  11.641   0.805  16.372  0.2089 -0.0212  0.1790
 1867W        W17941   2.760  13.597  15.701  0.2280  0.2344 -0.0137
 1868W        W17942  11.860   7.467   1.430  0.0511 -0.3378  0.1139
 1869W        W17943  17.858   8.234   4.151 -0.3571  0.2957  0.1053
 1870W        W17944   8.566   7.394   4.918  0.0611  0.0835  0.3166
 1871W        W17945   4.345   6.654   1.963 -0.0906  0.0657 -0.1568
 1872W        W17946   0.341   8.597   3.196 -0.1965  0.0676  0.0945
 1873W        W17947   1.447   9.077   3.027  0.1449  0.3003  0.0097
 1874W        W17948   3.964  13.795   4.414 -0.0454  0.1739 -0.2734
 1875W        W17949  12.035   4.248  11.500 -0.2576  0.0664 -0.3487
 1876W        W17950   0.703  17.776  13.474  0.2233  0.1414  0.2018
 1877W        W17951   7.947   6.368  13.495  0.0166 -0.0742 -0.1036
 1878W        W17952   0.605  14.939  13.500  0.3689  0.3484 -0.1019
 1879W        W17953   1.477  15.768   6.134  0.0451 -0.1991  0.3227
 1880W        W17954  17.358  10.996   1.475  0.1469  0.2668  0.2904
 1881W        W17955   9.810   0.259  15.415 -0.1903  0.1429 -0.1891
 1882W        W17956   6.197   2.893  13.064 -0.2661 -0.1064  0.0048
 1883W        W17957   2.478  11.199  15.605  0.0079 -0.1660  0.0491
 1884W        W17958   0.344  10.849  11.795  0.1654  0.0085 -0.0962
 1885W        W17959   9.215   3.010  15.557  0.0052  0.0567  0.3480
 1886W        W17960  10.607   1.530   4.623  0.0436  0.0804  0.0711
 1887W        W17961   1.672  18.190  13.232 -0.0065 -0.0103  0.1364
 1888W        W17962  17.349  18.026   5.114  0.1435  0.1531 -0.2366
 1889W        W17963   5.330   8.840  15.405 -0.2204 -0.0060  0.1637
 1890W        W17964   4.388   4.706   0.098  0.1792 -0.1697 -0.2556
 1891W        W17965   9.334   7.355   0.478 -0.0297 -0.1524  0.3688
 1892W        W17966   3.067   5.169   0.948  0.2014 -0.1239 -0.0534
 1893W        W17967   5.884  12.132  12.482  0.2837  0.3321 -0.1717
 1894W        W17968  14.427  13.735   5.317  0.2078  0.2981 -0.0066
 1895W        W17969  14.662  14.106  14.272 -0.1428 -0.5201 -0.0615
 1896W        W17970  11.114  10.891   3.554  0.2026 -0.1711  0.1713
 1897W        W17971   7.847   0.064   5.971  0.0320  0.0115  0.0472
 1898W        W17972  11.323  11.420   0.648 -0.1163 -0.1332 -0.1536
 1899W        W17973  11.265  12.320   0.446 -0.0674  0.0646  0.3481
 1900W        W17974  14.207   8.779  11.694 -0.1982  0.1662  0.0555
 1901W        W17975   4.090   6.809  12.385 -0.3633 -0.4346  0.0343
 1902W        W17976  16.079  15.029   2.409  0.1604  0.0467  0.1586
 1903W        W17977  12.898   6.901  13.559 -0.0596  0.0552 -0.0441
 1904W        W17978  14.039   2.689  15.674  0.2356 -0.0403 -0.1026
 1905W        W17979   8.957   5.108   3.476 -0.0970  0.4750  0.0403
 1906W        W17980  10.690  14.459   3.698  0.1012 -0.2379 -0.0839
 1907W        W17981  17.797  12.655  12.047 -0.0147 -0.0490 -0.1187
 1908W        W17982   8.843  14.757   3.848 -0.4067 -0.1911 -0.1060
 1909W        W17983   1.673  16.125  14.609  0.0299 -0.1870 -0.2243
 1910W        W17984   3.993   1.369   4.359 -0.1044  0.0240 -0.0185
 1911W        W17985  10.944   5.412   3.396  0.1157  0.2956  0.0550
 1912W        W17986   5.795  17.626   2.986  0.1703  0.0949  0.0976
 1913W        W17987  11.281   3.912  15.813 -0.0856  0.3209 -0.2292
 1914W        W17988  16.389   5.380  16.100 -0.0827 -0.3492 -0.0703
 1915W        W17989  17.364  15.104   4.672 -0.1682  0.0221 -0.1304
 1916W        W17990   0.574   1.497   4.757  0.0164 -0.0979  0.0071
 1917W        W17991  13.089  10.207   3.351 -0.3079 -0.0067 -0.0678
 1918W        W17992  13.672   4.144  14.295  0.3863  0.0819  0.0636
 1919W        W17993  17.695   5.819   0.216  0.1011 -0.0241 -0.0040
 1920W        W17994  14.860   8.820  16.366 -0.6044 -0.0825 -0.0275
 1921W        W17995   0.181   1.518  16.367  0.0708  0.1178 -0.0099
 1922W        W17996   2.127   1.775  11.493 -0.3556  0.3081 -0.0009
 1923W        W17997   8.232   4.875  14.802  0.0624 -0.2812  0.2724
 1924W        W17998  11.836   0.503   2.294 -0.3706  0.1432 -0.1893
 1925W        W17999  10.644  10.980   0.059  0.3642 -0.1141 -0.0260
 1926W        W18000   9.068   9.489   3.933  0.2312 -0.1317  0.1001
 1927W        W18001   9.919  13.159  13.735  0.0948 -0.0855  0.0993
 1928W        W18002  13.805   6.790   2.291 -0.0973  0.0882  0.3035
 1929W        W18003  11.562  10.968   0.432 -0.1329  0.2141  0.0111
 1930W        W18004  14.916  13.043  15.174  0.0534 -0.2534 -0.2644
 1931W        W18005  16.391  11.808   1.529 -0.0042 -0.1599  0.1819
 1932W        W18006   0.735  14.888  14.717  0.2866 -0.2359  0.0817
 1933W        W18007   8.050   9.903  11.436  0.0260  0.1958  0.0161
 1934W        W18008   3.761   0.362  14.457 -0.1107 -0.5798 -0.2202
 1935W        W18009  13.600   4.264   2.262  0.1063 -0.0697  0.0361
 1936W        W18010   7.924   0.583   1.670 -0.1440 -0.1657  0.0424
 1937W        W18011   1.184  15.282   1.008 -0.2664 -0.2109 -0.0585
 1938W        W18012   1.981  15.518   1.034 -0.0698 -0.3228 -0.0186
 1939W        W18013  12.658   1.942   5.301  0.1268  0.1443  0.0618
 1940W        W18014  15.414   6.660  14.672 -0.2845  0.1697 -0.0061
 1941W        W18015   3.776  10.032  12.643  0.3965  0.0846 -0.0983
 1942W        W18016   5.675   5.235   5.399 -0.4333 -0.4001  0.0450
 1943W        W18017   1.632   3.762   2.689 -0.0505  0.0052 -0.1893
 1944W        W18018   6.531   2.303   5.126  0.0144 -0.0825 -0.0635
 1945W        W18019  18.010   4.219  11.463 -0.0644  0.5904 -0.2071
 1946W        W18020   5.728   9.248  11.912  0.0399  0.0862 -0.1528
 1947W        W18021   7.171   3.688  11.438 -0.2360  0.1587 -0.0957
 1948W        W18022  16.814   1.499   3.596 -0.1016  0.0450 -0.0308
 1949W        W18023   1.028   6.703   0.910 -0.0419 -0.2288  0.0888
 1950W        W18024   3.092   3.341   5.348 -0.2101 -0.1823 -0.0115
 1951W        W18025  11.001  14.539  14.767  0.0477  0.0908  0.0550
 1952W        W18026  15.839  10.524  13.617 -0.0685  0.1753 -0.0688
 1953W        W18027  15.134  17.951   3.526 -0.2003  0.0184 -0.1290
 1954W        W18028  12.095   9.519   4.500  0.2961  0.2612  0.0708
 1955W        W18029   0.359   2.287  16.264 -0.2614 -0.0515  0.1666
 1956W        W18030   8.206  11.693   3.745 -0.0070 -0.1266 -0.2154
 1957W        W18031   2.076  10.888   4.071  0.3617  0.1154  0.0812
 1958W        W18032   1.591   9.078  14.698  0.0261  0.1322  0.0306
 1959W        W18033  10.067  16.870   2.677  0.0139  0.0077 -0.1231
 1960W        W18034  10.797  10.369  13.085 -0.0453  0.1718  0.1396
 1961W        W18035  11.972  14.146   2.255 -0.1157  0.1096  0.0418
 1962W        W18036   8.349   2.330   4.426  0.3491  0.3123 -0.3415
 1963W        W18037  16.160  11.197  13.655 -0.1953 -0.1395  0.1657
 1964W        W18038  16.690   9.582  15.446  0.0346 -0.0369  0.4287
 1965W        W18039  12.381  17.562  13.063  0.1456 -0.3280 -0.0647
 1966W        W18040   2.225   1.460   2.675 -0.1557  0.2047  0.2469
 1967W        W18041   5.605   8.500   4.870  0.2243  0.1507 -0.0688
 1968W        W18042  13.006   2.325   1.734 -0.1434  0.0247 -0.2237
 1969W        W18043   7.354   2.624  12.057  0.3461 -0.2902 -0.2695
 1970W        W18044   5.099   2.015  12.105 -0.1826 -0.0795 -0.0453
 1971W        W18045   2.543   3.493   5.429  0.0778  0.2944  0.0611
 1972W        W18046   2.456   2.037   1.632 -0.0652  0.2708 -0.0740
 1973W        W18047   4.132   3.172  14.465  0.0986  0.2232 -0.1099
 1974W        W18048   7.785  10.926  14.108 -0.3863  0.2502  0.3186
 1975W        W18049  12.609  11.946  13.640  0.1485  0.2067  0.0601
 1976W        W18050   6.784   3.766  15.734  0.1197 -0.1582  0.1034
 1977W        W18051   1.101  13.384   1.063  0.0410  0.1124  0.0336
 1978W        W18052   0.574  17.184   5.780 -0.2372  0.0711  0.0394
 1979W        W18053  10.986   4.849  15.970 -0.1681 -0.2026 -0.1404
 1980W        W18054  10.138   4.592   5.830 -0.0128  0.1237  0.2153
 1981W        W18055  11.731   0.305  13.312  0.1979  0.0730 -0.0093
 1982W        W18056  14.652  17.931   2.244 -0.1232 -0.1728 -0.2399
 1983W        W18057   2.478   2.703   2.032  0.1757  0.1190  0.0317
 1984W        W18058   6.177  16.085  13.780  0.0154  0.4609  0.2184
 1985W        W18059  16.195   2.823  13.763  0.0956  0.0915  0.0546
 1986W        W18060   2.341  16.719   2.359 -0.2285 -0.1408 -0.1613
 1987W        W18061  16.270   1.087   3.737  0.1937 -0.0384  0.2391
 1988W        W18062   6.063  16.000  15.451  0.0100 -0.2008 -0.2780
 1989W        W18063  15.422   8.503  14.462 -0.0426  0.1691 -0.0707
 1990W        W18064  14.445   9.650  14.996  0.1972  0.2924 -0.1142
 1991W        W18065  15.783   6.427   0.567  0.0550 -0.2055 -0.0584
 1992W        W18066  14.065   3.127  10.843  0.2224  0.2198 -0.0985
 1993W        W18067   6.516  13.955   1.378 -0.1571  0.1134 -0.0866
 1994W        W18068   9.445  11.923  12.993 -0.1001 -0.1294 -0.2158
 1995W        W18069  14.703   8.930  11.624 -0.0447 -0.4405 -0.1895
 1996W        W18070  10.799   1.047  11.299  0.0168  0.0355 -0.0868
 1997W        W18071  12.856  10.877  15.125  0.0414 -0.2816  0.1319
 1998W        W18072  12.973  16.884   2.732  0.0395 -0.0329  0.1717
 1999W        W18073  13.261  17.598   3.184  0.5272 -0.0084 -0.1356
 2000W        W18074   1.447  12.914  13.090 -0.1246  0.0595  0.0340
 2001W        W18075   6.416   2.364   4.010  0.0151  0.0943 -0.3112
 2002W        W18076  11.415   8.406   5.372  0.0351 -0.0806 -0.0049
 2003W        W18077   2.645  10.784   5.279 -0.0513 -0.4069 -0.1725
 2004W        W18078   4.294   1.736   1.649  0.0679  0.0694  0.4511
 2005W        W18079   8.763  16.522   0.071  0.2750  0.3342  0.1636
 2006W        W18080  13.183   2.560   3.905  0.1437 -0.1451  0.1029
 2007W        W18081   6.173   8.720   3.078  0.1800 -0.0282 -0.0028
 2008W        W18082  12.191  17.834   1.868 -0.0761  0.1517 -0.4736
 2009W        W18083   4.213  11.851   2.438  0.4048  0.2713  0.0135
 2010W        W18084   1.517   4.750   3.565  0.3764  0.0023 -0.2865
 2011W        W18085   0.221   8.937   4.708 -0.0597 -0.2326 -0.1020
 2012W        W18086   3.857   3.881  13.408  0.2126 -0.1825 -0.1439
 2013W        W18087   2.878   5.661   3.006 -0.1029 -0.1353 -0.2362
 2014W        W18088  17.912  13.217   2.737 -0.1286  0.3358  0.2624
 2015W        W18089   0.672   8.057   0.360  0.1850 -0.0163 -0.3394
 2016W        W18090  10.176   2.779   4.213 -0.0284 -0.2284  0.2269
 2017W        W18091  14.216   7.035   1.631  0.1469  0.1304 -0.1413
 2018W        W18092   6.513   7.510   1.489 -0.0493 -0.5150 -0.2346
 2019W        W18093   8.731   8.605  14.726 -0.0060  0.3780 -0.0912
 2020W        W18094   9.415  16.538   5.178  0.0666 -0.0916 -0.3477
 2021W        W18095   8.463   4.609   0.937  0.1178  0.0940  0.1746
 2022W        W18096  14.030  11.647  16.048  0.1170  0.0561 -0.1623
 2023W        W18097   9.963  15.502   5.217  0.1741  0.1620 -0.0519
 2024W        W18098  15.470  12.295  15.552 -0.0731  0.0374  0.0541
 2025W        W18099   4.993   9.119  11.161 -0.1487 -0.0757  0.2146
 2026W        W18100   4.867   6.929  12.929  0.1020 -0.0875  0.1681
 2027W        W18101   7.540   2.894   4.396 -0.3005  0.1510 -0.0672
 2028W        W18102  12.520  17.907   4.552  0.1662 -0.3217  0.1058
 2029W        W18103  13.381  17.600  12.242  0.1051  0.2507 -0.3523
 2030W        W18104   6.815   7.722  15.379 -0.1941  0.1025  0.1140
 2031W        W18105   8.010  17.198  11.498  0.1171  0.0197  0.1736
 2032W        W18106   8.299  10.002   0.560  0.2487 -0.1612 -0.1274
 2033W        W18107   3.205   1.816   3.550  0.1374  0.0544  0.0933
 2034W        W18108   9.211  16.060   2.823 -0.0422  0.0065  0.1560
 2035W        W18109  12.884   9.412  12.948 -0.5873  0.2100 -0.0607
 2036W        W18110   2.199   9.642   2.884 -0.0641 -0.2784 -0.0317
 2037W        W18111  17.314  11.777   5.605  0.0622  0.1351 -0.1621
 2038W        W18112  16.131  11.901  13.354  0.1394  0.0919 -0.1002
 2039W        W18113   6.113   7.574  15.009 -0.0034  0.0225 -0.0808
 2040W        W18114   6.549  17.237   1.624  0.1580  0.4038  0.1275
 2041W        W18115  15.287  10.053  14.694  0.3028 -0.0934  0.1185
 2042W        W18116   5.100   8.005   0.990  0.2625 -0.1541  0.1590
 2043W        W18117  15.561   1.902   5.210  0.0239 -0.0709 -0.1041
 2044W        W18118   6.352   7.550  15.445  0.1193 -0.0606  0.1340
 2045W        W18119   9.581   2.414  11.382 -0.0720 -0.2722  0.0224
 2046W        W18120  12.052   3.210   3.157 -0.2407 -0.4396  0.2841
 2047W        W18121   2.306  15.296  16.288  0.0668  0.0240  0.1947
 2048W        W18122   0.606  12.062  15.952  0.2613 -0.1168 -0.0997
 2049W        W18123   5.430   6.869  16.178 -0.0801 -0.3358  0.2410
 2050W        W18124   3.389  12.522   0.667 -0.2131  0.2313  0.1080
 2051W        W18125   5.310   9.849   2.873 -0.3248  0.0292  0.0314
 2052W        W18126   1.457  12.376   0.801 -0.4172  0.0537 -0.1062
 2053W        W18127   8.362   9.529  11.281 -0.0082 -0.1129  0.0843
 2054W        W18128   0.708  14.622   0.627 -0.2659  0.0141  0.0448
 2055W        W18129  16.913   5.730   5.678  0.2596 -0.3630  0.1188
 2056W        W18130   2.897   2.559  13.835 -0.3447 -0.1958 -0.2682
 2057W        W18131  14.510   7.839  16.376 -0.1316 -0.1823  0.1274
 2058W        W18132  16.893  10.058  16.190 -0.1831 -0.1338 -0.1260
 2059W        W18133   3.390  10.113  12.323  0.1299  0.0962 -0.1415
 2060W        W18134   1.012   0.663   1.578 -0.0834  0.3182 -0.2134
 2061W        W18135   0.396   3.305  12.506 -0.0034  0.1242  0.2149
 2062W        W18136  13.424   0.982  11.563 -0.3469 -0.2128 -0.0203
 2063W        W18137  16.268  14.617   1.401 -0.2516 -0.1788  0.0124
 2064W        W18138   7.221  13.558   4.019 -0.1603  0.2806 -0.0497
 2065W        W18139   2.655   0.780  14.168  0.0205  0.0106  0.0968
 2066W        W18140  10.963   0.018  14.147  0.2326 -0.3555  0.2261
 2067W        W18141  15.417   0.357  12.713  0.5165 -0.0054 -0.0174
 2068W        W18142  10.520   6.897   3.672 -0.1439 -0.0815  0.1377
 2069W        W18143  13.212   6.860  15.193 -0.2373 -0.1086  0.1906
 2070W        W18144   6.830   1.918   3.731  0.0523  0.2315  0.1970
 2071W        W18145  11.933   9.989   2.761  0.1023  0.0435  0.0661
 2072W        W18146   0.325  11.390   0.803 -0.2414  0.0383  0.0981
 2073W        W18147  15.499   3.098  14.982  0.0952  0.0053  0.1409
 2074W        W18148   9.326  10.023  13.757  0.1516  0.1630 -0.0599
 2075W        W18149   9.176  17.121   1.080  0.1385  0.2941  0.4387
 2076W        W18150   7.382  14.454   1.456  0.1806 -0.2461 -0.2841
 2077W        W18151   3.218  13.101   2.508  0.1283 -0.1202  0.1249
 2078W        W18152  15.159  11.888  15.187  0.1592 -0.1633  0.0613
 2079W        W18153  16.630  18.056  12.759 -0.1230  0.0081 -0.0484
 2080W        W18154   2.956  15.962  11.389 -0.1563  0.0400 -0.2494
 2081W        W18155   3.648  10.573   1.346  0.1309  0.0257  0.0711
 2082W        W18156  11.034  14.131   0.814  0.1100 -0.1164  0.0428
 2083W        W18157   4.489  15.300  13.899  0.3711 -0.0505 -0.0996
 2084W        W18158   4.817   4.569  16.305  0.0265  0.4195  0.2345
 2085W        W18159  17.018  15.282   0.914 -0.3376  0.1946  0.0649
 2086W        W18160   1.946   6.013  11.989 -0.1262 -0.0132  0.2972
 2087W        W18161   0.531  16.871  13.421  0.4877 -0.1462  0.0506
 2088W        W18162   0.496   5.247  16.061 -0.0211  0.2735  0.4717
 2089W        W18163  16.247  10.982  14.182 -0.3498 -0.0428 -0.1110
 2090W        W18164   6.153  12.152   0.874 -0.1496  0.1339  0.2231
 2091W        W18165  11.067   7.228  11.288 -0.0152  0.0450  0.0734
 2092W        W18166  15.996  15.342  15.808  0.4733 -0.1403 -0.2576
 2093W        W18167   3.437  10.907  11.937 -0.0341  0.0741  0.0269
 2094W        W18168  15.279   5.400  12.948  0.2828  0.4274 -0.0935
 2095W        W18169   4.130  13.703  12.975  0.2764 -0.1548  0.2283
 2096W        W18170  16.972  15.638   2.634  0.1184 -0.1211 -0.0373
 2097W        W18171   5.208   6.113   5.264 -0.1145 -0.0054  0.0959
 2098W        W18172  16.588  11.963   2.311  0.1193  0.0706  0.3641
 2099W        W18173  14.028  16.610   5.134  0.3108  0.0569 -0.2339
 2100W        W18174  14.626   9.916   3.520  0.4431  0.1528  0.0070
 2101W        W18175   7.989  15.724   1.990  0.0142 -0.1613 -0.1581
 2102W        W18176   4.014   8.033  12.525 -0.0717 -0.0161  0.0437
 2103W        W18177  13.504  16.786  16.168 -0.2967  0.1524  0.3068
 2104W        W18178   1.092  17.797   4.145 -0.2591  0.0149 -0.2731
 2105W        W18179  12.202  17.214   0.952  0.1920 -0.2273  0.0727
 2106W        W18180  17.473   9.746  12.502  0.3366 -0.2175  0.1774
 2107W        W18181   6.591   2.825   1.079 -0.2716  0.0853  0.2995
 2108W        W18182   8.741  10.685   3.015  0.0714  0.1713 -0.0914
 2109W        W18183   7.777  15.020   0.398  0.0131 -0.0484 -0.2829
 2110W        W18184   3.913   1.730   0.727  0.1556 -0.2346 -0.0727
 2111W        W18185  10.741  15.127   1.379  0.0583 -0.3721 -0.0090
 2112W        W18186  14.613  18.251   1.231 -0.0140  0.0057 -0.3025
 2113W        W18187   3.833   8.580   3.752 -0.0501  0.3810 -0.2462
 2114W        W18188  13.378  10.924  12.222  0.5589  0.0413  0.1371
 2115W        W18189  16.410  12.970  15.837 -0.2621 -0.1081  0.2329
 2116W        W18190  16.341  16.843   0.776 -0.0332  0.1156 -0.5014
 2117W        W18191   3.744  13.396  13.118  0.1744 -0.1065 -0.0473
 2118W        W18192   6.032   3.681  12.694  0.0211 -0.0165  0.2566
 2119W        W18193   8.995  13.614   3.036  0.2344 -0.0321 -0.2477
 2120W        W18194  10.097   8.442  14.042  0.3573 -0.1304 -0.1265
 2121W        W18195   3.565  17.521   5.955  0.1874 -0.4031 -0.1595
 2122W        W18196  15.837  15.818   0.752 -0.1539 -0.4156  0.1135
 2123W        W18197   8.629   1.409   0.992 -0.0128  0.1199  0.1044
 2124W        W18198   3.893  12.956   5.761 -0.1686 -0.1668  0.1641
 2125W        W18199  18.031   8.867  13.812 -0.0823 -0.0795 -0.1825
 2126W        W18200   8.689  14.140  10.891 -0.1013 -0.0232 -0.0252
 2127W        W18201   2.038  14.207   0.972  0.2831  0.1277 -0.0354
 2128W        W18202   1.821  12.454  13.104  0.1097 -0.1158 -0.0356
 2129W        W18203  16.875  12.064  13.588  0.1199 -0.2803  0.0306
 2130W        W18204  14.944  18.324   4.954 -0.2117  0.0500 -0.1943
 2131W        W18205   4.138  16.349   4.475 -0.1415  0.2971 -0.0604
 2132W        W18206   9.948   3.640  12.317  0.0936 -0.4653 -0.0757
 2133W        W18207  17.219  17.439   3.433 -0.0856  0.0073 -0.1874
 2134W        W18208   8.732  10.888  14.264 -0.2627  0.1398  0.1077
 2135W        W18209   4.365  11.296   3.068 -0.1657 -0.0228 -0.0805
 2136W        W18210   7.174  12.418   0.099  0.1533  0.2187  0.1234
 2137W        W18211   7.058   6.230  13.374 -0.0980  0.1110 -0.0072
 2138W        W18212   5.801   8.912   1.305 -0.2912 -0.0180 -0.0437
 2139W        W18213   8.177   4.844   1.852 -0.1161 -0.1895  0.0748
 2140W        W18214   6.202  15.047  13.630  0.1417 -0.1505 -0.0929
 2141W        W18215   3.639  12.325   1.209  0.1246 -0.0528  0.0176
 2142W        W18216   6.443   8.602  15.575  0.1085 -0.2357  0.0058
 2143W        W18217   6.635  16.854   4.776 -0.3470 -0.1311 -0.1943
 2144W        W18218   7.346   0.534  16.314  0.0768  0.1679 -0.0123
 2145W        W18219  15.359   5.462   1.216 -0.2133  0.1379 -0.0472
 2146W        W18220  17.590  10.071   4.038  0.0272 -0.3638  0.1902
 2147W        W18221   1.289  10.683  14.535 -0.1482 -0.0118 -0.2598
 2148W        W18222   1.402  10.869   3.610  0.0607  0.0482  0.1937
 2149W        W18223   1.730   9.847  14.690  0.0148  0.4149 -0.0859
 2150W        W18224   2.716   8.756   2.807 -0.2432 -0.0730  0.0744
 2151W        W18225   6.058  17.468   5.247 -0.3259 -0.0491  0.2114
 2152W        W18226  14.446  10.759   4.365  0.2918  0.1109 -0.2063
 2153W        W18227   2.234   0.909  15.406 -0.1888 -0.0190 -0.1071
 2154W        W18228   6.249  11.437  15.575 -0.0377 -0.1816  0.1666
 2155W        W18229  11.831  10.472   2.585 -0.0414 -0.1321  0.2020
 2156W        W18230   1.264  15.142   5.208  0.1191 -0.3058 -0.1357
 2157W        W18231  10.020   3.361   2.638  0.0428 -0.1349 -0.3343
 2158W        W18232  14.682   2.270   5.132  0.1475  0.2701  0.1283
 2159W        W18233  12.701   0.061   4.583 -0.0822  0.1737  0.0483
 2160W        W18234  11.213   9.004   1.013  0.4570  0.0365 -0.1795
 2161W        W18235   9.349  13.343  14.201 -0.1910  0.1194  0.2868
 2162W        W18236   3.799  12.664   0.934 -0.1868  0.1456 -0.2569
 2163W        W18237   2.912   9.724  12.928  0.2485  0.0151 -0.3590
 2164W        W18238  10.994   9.763  15.893 -0.1845 -0.0714 -0.3144
 2165W        W18239  16.684   9.945   4.496  0.2026 -0.1187  0.2503
 2166W        W18240  18.178  12.385  15.079 -0.0540 -0.0623  0.3005
 2167W        W18241   6.706  11.707   2.511 -0.2716  0.0603  0.0281
 2168W        W18242   2.770   3.154  15.137  0.0892  0.2840  0.2220
 2169W        W18243  12.826  11.710   4.741 -0.1078 -0.2266  0.0988
 2170W        W18244  13.372  18.064  11.996  0.0446 -0.0313 -0.1770
 2171W        W18245  15.418   8.776   2.225  0.2721 -0.0983 -0.0955
 2172W        W18246   3.748   7.666   4.870  0.1433  0.0581 -0.0038
 2173W        W18247  10.867   3.850  15.582 -0.1228  0.2985 -0.0497
 2174W        W18248  10.526  16.899  14.760  0.3500 -0.1847 -0.3067
 2175W        W18249   1.205   5.764  14.933 -0.0543 -0.2598  0.3965
 2176W        W18250   9.175   3.896   4.202 -0.3130  0.0126  0.1873
 2177W        W18251   5.533  17.644   4.091 -0.0273 -0.3125  0.1262
 2178W        W18252  17.276  17.849   0.359  0.0463 -0.1096 -0.0621
 2179W        W18253   9.444   2.836  14.620 -0.0980  0.0380 -0.3661
 2180W        W18254   7.533  16.104  13.350 -0.0088  0.1954 -0.1527
 2181W        W18255   7.455  10.843   0.145 -0.1075 -0.2994 -0.3396
 2182W        W18256  14.975   9.753   3.882  0.1056 -0.3865 -0.0182
 2183W        W18257  12.381  17.606  14.765  0.0204  0.1286 -0.3206
 2184W        W18258   9.474  16.394   4.274 -0.0245 -0.2166 -0.1321
 2185W        W18259  12.502  11.466   1.997  0.0906  0.0442 -0.2877
 2186W        W18260   1.555  13.687  12.623  0.2499 -0.0481  0.0672
 2187W        W18261  14.875   4.457  13.711 -0.0130  0.1166 -0.0931
 2188W        W18262   5.236   8.084   0.038  0.2841 -0.1787  0.1821
 2189W        W18263  18.257   4.283  15.093  0.0796  0.1222  0.0657
 2190W        W18264  11.384   5.052  12.436  0.1031 -0.5274 -0.2044
 2191W        W18265   7.852  15.426  16.086  0.0575  0.1419 -0.3531
 2192W        W18266  17.720  16.580  12.283  0.1756 -0.4125  0.2559
 2193W        W18267  17.804   5.104  14.058  0.2976  0.2262  0.1362
 2194W        W18268   8.590   9.590   2.118  0.1443  0.1057 -0.0678
 2195W        W18269  15.181   4.788   2.247  0.1550  0.0615  0.5770
 2196W        W18270   2.315  12.367   1.495 -0.0600  0.0187 -0.2105
 2197W        W18271  13.041   9.642  16.375  0.1673  0.3956  0.0486
 2198W        W18272  17.554  12.842  14.995 -0.4696  0.0744 -0.0567
 2199W        W18273  18.119   3.460   1.480  0.4797  0.0255 -0.2626
 2200W        W18274  12.216   4.586  12.563  0.0319  0.0113 -0.1033
 2201W        W18275   9.684  15.741  10.136  0.2505  0.1125 -0.2438
 2202W        W18276  13.645   5.758   3.705 -0.2943  0.1025 -0.1527
 2203W        W18277   3.785  10.739   3.601  0.2305  0.0894 -0.1397
 2204W        W18278   8.313   2.458  12.046 -0.0858  0.0747 -0.2587
 2205W        W18279  17.122   1.128  14.329  0.1698 -0.0041 -0.2603
 2206W        W18280   2.274  15.383   4.276  0.2911 -0.0343  0.1719
 2207W        W18281  10.869  13.303  12.921 -0.1548 -0.1837  0.1165
 2208W        W18282   6.497  15.293   4.697  0.3538  0.0679 -0.1172
 2209W        W18283  12.171  13.248  13.018 -0.1069 -0.0211 -0.2822
 2210W        W18284  11.560   6.370   3.366  0.1750  0.1158 -0.1436
 2211W        W18285   5.043  17.452   4.177  0.0487  0.3873  0.1437
 2212W        W18286  15.720   9.139   3.545 -0.3740 -0.0535 -0.1182
 2213W        W18287  15.474   8.255  12.229  0.0218 -0.0680 -0.0184
 2214W        W18288  13.421  14.643   3.915  0.0782  0.1668  0.1329
 2215W        W18289   8.526  11.626   5.030 -0.0742 -0.0301  0.4057
 2216W        W18290   6.777   7.689   2.336  0.0084  0.2168  0.2197
 2217W        W18291   4.876  17.383   1.191  0.0498  0.1438 -0.0443
 2218W        W18292  14.171   7.865   1.998 -0.0390 -0.2896  0.0174
 2219W        W18293   5.999   6.016  11.883 -0.1067 -0.0987  0.0590
 2220W        W18294   3.863   3.052   0.313  0.0254 -0.0454 -0.5854
 2221W        W18295  16.783   9.702   1.744 -0.1069 -0.2939  0.2974
 2222W        W18296   8.462   2.384  10.908 -0.0209  0.0410 -0.1649
 2223W        W18297  13.722   5.631  15.104  0.0605  0.3134 -0.1431
 2224W        W18298   6.831   5.171  13.391 -0.5788 -0.2556 -0.4074
 2225W        W18299  15.906   4.780  15.447 -0.1430  0.3269  0.2101
 2226W        W18300   6.838  14.456  13.613 -0.0179 -0.0114  0.0402
 2227W        W18301   4.862   0.323  14.233  0.2546 -0.0154 -0.0819
 2228W        W18302   7.547   5.334   2.703  0.0607  0.0923 -0.1066
 2229W        W18303  13.979   1.454   1.102  0.0257 -0.0542  0.0420
 2230W        W18304   3.673   1.223   1.078 -0.1386  0.1642 -0.0185
 2231W        W18305   9.511  12.990   3.321 -0.2202  0.1046  0.1317
 2232W        W18306  10.744   2.560  13.057 -0.2574 -0.0172 -0.1644
 2233W        W18307   0.031  14.570  14.353 -0.0809 -0.0312  0.0041
 2234W        W18308   8.315   2.188  14.898  0.0300  0.0912  0.2120
 2235W        W18309   6.347  11.789   1.319  0.0017 -0.0365  0.3339
 2236W        W18310   7.992   6.627   3.644 -0.0011  0.1928  0.3744
 2237W        W18311   8.318   0.464   2.743 -0.4370 -0.1819  0.0899
 2238W        W18312   1.631   7.954   2.478 -0.0499 -0.2352 -0.0654
 2239W        W18313  14.273   7.525  14.651  0.1283  0.0705  0.1951
 2240W        W18314  13.167  15.404   1.148 -0.2589  0.3424  0.0828
 2241W        W18315  12.204  10.061   0.638  0.2466  0.1375  0.2331
 2242W        W18316   9.183   0.720  13.052 -0.1141  0.0340  0.3375
 2243W        W18317  17.292   1.596   0.978 -0.1297  0.0700 -0.3211
 2244W        W18318  12.768  16.445  15.195 -0.0100 -0.1284  0.3785
 2245W        W18319   2.811   6.484   0.475 -0.0474 -0.0433  0.1635
 2246W        W18320   7.252   2.834   0.678  0.1895 -0.2245  0.1775
 2247W        W18321   8.211   5.301   2.266  0.0603  0.1610  0.1134
 2248W        W18322  10.773   2.193  13.505 -0.0090  0.1921 -0.1212
 2249W        W18323   4.203   8.551   5.227  0.0760 -0.0645  0.2338
 2250W        W18324   7.518  16.501  15.073 -0.1056  0.1504  0.1865
 2251W        W18325  12.463  13.743   2.290 -0.1448 -0.1641  0.0760
 2252W        W18326   5.425   6.502  14.713  0.1477 -0.0796 -0.1153
 2253W        W18327   5.177  16.190   3.195  0.1125 -0.0316  0.1995
 2254W        W18328  14.651  16.169  12.573  0.2054  0.0419  0.1363
 2255W        W18329  14.020   2.629  11.042  0.2356 -0.4121 -0.0880
 2256W        W18330   6.049  11.928   2.015 -0.0478  0.0946  0.3209
 2257W        W18331  12.701  16.784  11.408  0.2695 -0.0356 -0.0556
 2258W        W18332  16.091  16.844  12.717  0.1395  0.1436 -0.0570
 2259W        W18333  17.551  11.197   5.438  0.0565  0.0803  0.0803
 2260W        W18334   6.309   5.269  15.181 -0.2481 -0.0130 -0.0929
 2261W        W18335   2.517  18.194   5.308  0.5020 -0.2675  0.0692
 2262W        W18336  15.534  15.407  11.786  0.0183 -0.1199  0.0660
 2263W        W18337  13.986   8.295  15.196 -0.0164 -0.2158  0.0275
 2264W        W18338   0.162   6.836   3.809  0.0305 -0.0138  0.0517
 2265W        W18339  14.772   5.593   2.833  0.0896  0.0784 -0.0962
 2266W        W18340  16.752   8.551   1.464  0.1977  0.0473  0.2343
 2267W        W18341   1.337  12.176   4.224 -0.0595  0.2474 -0.0479
 2268W        W18342   0.345   1.663   5.726  0.0239  0.0640  0.2854
 2269W        W18343   8.312   6.459  15.197  0.0372  0.0895 -0.3081
 2270W        W18344   3.391   8.767   1.155  0.3916  0.0080  0.0424
 2271W        W18345  13.298  11.340  11.539 -0.1950  0.3877  0.2082
 2272W        W18346   6.712   3.410  14.003 -0.0261 -0.0996  0.2308
 2273W        W18347  18.089   7.643  12.728  0.4866 -0.2985 -0.0406
 2274W        W18348   1.577  14.186  11.400  0.2604 -0.0419 -0.0177
 2275W        W18349  15.337  15.308  13.691  0.0795 -0.0035  0.3377
 2276W        W18350   4.970   2.966  13.399  0.1638  0.1148 -0.2677
 2277W        W18351  11.665   2.953  14.754  0.1528  0.2738  0.0272
 2278W        W18352   9.259  17.648   4.654  0.0427 -0.0424  0.1923
 2279W        W18353   1.398  13.940  12.237 -0.0580  0.0876 -0.3739
 2280W        W18354  11.296   5.820   5.305  0.2443  0.2170  0.2303
 2281W        W18355   1.342   4.425   2.204 -0.1240 -0.4905 -0.0830
 2282W        W18356   7.154  16.082   5.106 -0.2301  0.0283 -0.1632
 2283W        W18357   7.404  10.821  16.038 -0.0149 -0.2659  0.0479
 2284W        W18358   5.408   4.646   1.333 -0.0205  0.1959  0.1216
 2285W        W18359   4.911   3.833  10.584  0.1391 -0.1525  0.4037
 2286W        W18360   9.150   4.129  14.004  0.2852  0.1688 -0.0341
 2287W        W18361   7.697  15.581   4.586 -0.1591 -0.1885  0.3310
 2288W        W18362   9.219  14.385  10.269  0.0301 -0.0742  0.1519
 2289W        W18363  12.154  14.256   3.590 -0.2257  0.0483  0.2671
 2290W        W18364  10.768  11.978   4.315 -0.1586 -0.3586 -0.1378
 2291W        W18365   0.705   8.981  11.617  0.2212 -0.0070 -0.0070
 2292W        W18366   1.412  13.948   2.240  0.1334 -0.0637 -0.2098
 2293W        W18367  16.771   9.669  14.059 -0.0707 -0.0918 -0.1613
 2294W        W18368  13.736  12.372   5.226 -0.2366  0.0391 -0.1736
 2295W        W18369   7.703   8.086  14.013 -0.3228  0.1556 -0.0401
 2296W        W18370  17.628   9.940   4.573 -0.0877 -0.1563  0.2570
 2297W        W18371   9.834  11.940   3.988 -0.1151  0.0185 -0.3625
 2298W        W18372   8.000  16.710   2.051 -0.0315  0.0592  0.0876
 2299W        W18373   3.775   5.951   0.906 -0.0543 -0.1122 -0.3137
 2300W        W18374  11.659  11.645  15.745 -0.0086  0.1380 -0.3961
 2301W        W18375  14.511  10.844   2.991 -0.2244 -0.3138  0.1298
 2302W        W18376   8.053   0.072  10.978  0.2261 -0.2262 -0.0961
 2303W        W18377   1.946  13.010   1.360  0.0399  0.1080  0.1224
 2304W        W18378  16.830  16.086   0.586  0.0460  0.1599  0.0601
 2305W        W18379  15.618  12.639   5.613  0.0071  0.0408  0.0482
 2306W        W18380   6.229   5.335   1.153  0.0302 -0.2484  0.1862
 2307W        W18381   0.522   6.951   0.517  0.0592  0.3373  0.6510
 2308W        W18382   2.214   5.148   1.991 -0.3094 -0.2212  0.0216
 2309W        W18383   1.741  12.780  15.872  0.0962 -0.1524  0.2455
 2310W        W18384   6.377  11.314  14.634 -0.1661 -0.0808 -0.2813
 2311W        W18385  14.574   5.617  11.408  0.2075  0.1458  0.1575
 2312W        W18386   5.407   4.943  14.207  0.0278  0.0195  0.0182
 2313W        W18387   7.037   9.781  13.401 -0.0168 -0.0240 -0.0114
 2314W        W18388   5.595  17.312  14.334  0.1147 -0.3966  0.1473
 2315W        W18389   5.316  10.349   5.328 -0.0172 -0.3047 -0.2128
 2316W        W18390   2.616   4.637   3.400 -0.0266 -0.2141 -0.1120
 2317W        W18391  15.891  13.956   4.077  0.1981 -0.1653  0.2073
 2318W        W18392  14.783   7.556  11.263 -0.2238  0.1032 -0.2890
 2319W        W18393   5.941   0.637  15.287  0.0314  0.1687  0.0985
 2320W        W18394  14.173  16.019   4.320  0.0694 -0.1015 -0.0181
 2321W        W18395   0.538   8.055  14.317  0.2513 -0.1693 -0.2944
 2322W        W18396  12.640  15.768   6.280  0.1771  0.0251  0.0142
 2323W        W18397  10.001  11.167  13.096 -0.1199  0.0443 -0.0086
 2324W        W18398   1.743  14.590  15.117 -0.2223 -0.3293 -0.0175
 2325W        W18399   3.653   9.264  13.000 -0.0211  0.2277 -0.1555
 2326W        W18400  16.325  17.268   5.407 -0.1144 -0.0369  0.2119
 2327W        W18401   4.851   3.021  12.436 -0.2061 -0.0940  0.2497
 2328W        W18402  10.147  17.140  14.513  0.0896  0.2434 -0.0853
 2329W        W18403   4.964   5.731  14.083 -0.2400 -0.1234  0.0253
 2330W        W18404   7.500   3.403  14.531 -0.1228  0.1043 -0.3035
 2331W        W18405   2.470   9.356   6.174 -0.0294  0.0885  0.1561
 2332W        W18406   6.298  16.859   1.816 -0.3631 -0.0489  0.0886
 2333W        W18407  11.313   1.874  15.361  0.2064  0.0142  0.1925
 2334W        W18408   3.286  10.394  11.880 -0.1297  0.1899  0.0538
 2335W        W18409   1.267   6.024   2.023  0.1206  0.4011 -0.1743
 2336W        W18410   9.351   4.906  14.404  0.3738  0.2171 -0.3369
 2337W        W18411   4.170  12.868  15.755  0.1144 -0.0622  0.2886
 2338W        W18412  11.745  14.668  13.970 -0.0894  0.2345  0.0941
 2339W        W18413   3.784  14.922  14.075  0.2539 -0.0676 -0.2263
 2340W        W18414   4.730   7.569   0.778  0.2159  0.4206  0.1369
 2341W        W18415   7.044   2.266   0.694  0.1786 -0.3318 -0.4553
 2342W        W18416   2.526  15.583   1.285 -0.1920 -0.2839  0.1305
 2343W        W18417  14.404   9.058   3.528 -0.0689  0.0571 -0.0879
 2344W        W18418   2.412  12.596   3.021  0.0095  0.0070 -0.3045
 2345W        W18419   7.677  16.900   0.557  0.2718 -0.2019 -0.1093
 2346W        W18420   4.999  15.106   5.334  0.1214 -0.1933  0.1352
 2347W        W18421  11.090   1.579  11.486 -0.1491  0.2020  0.3682
 2348W        W18422   6.021   1.760   1.045  0.0362 -0.0632  0.0536
 2349W        W18423  17.974  14.342  12.578  0.0287 -0.2086 -0.0405
 2350W        W18424   7.911  17.417  12.023 -0.1977 -0.3079  0.2845
 2351W        W18425  10.744  15.622  11.305  0.1783  0.1549 -0.0800
 2352W        W18426   8.479  12.399   2.061  0.1949  0.1222 -0.0765
 2353W        W18427  10.250   2.981  13.442  0.2147  0.0855  0.1620
 2354W        W18428   7.405   9.320   1.850  0.1076  0.1190 -0.1938
 2355W        W18429   3.729   2.538  11.731 -0.1415 -0.1292  0.1918
 2356W        W18430  13.577  12.821   5.582  0.0033 -0.0036  0.1205
 2357W        W18431  14.122  16.063  11.187 -0.3123 -0.0304 -0.3614
 2358W        W18432   0.690   4.937  12.721 -0.0527  0.0249 -0.2089
 2359W        W18433  18.235   5.737   3.105 -0.3713  0.2636 -0.0314
 2360W        W18434   4.467  16.737   2.872 -0.3471 -0.1537  0.0683
 2361W        W18435   3.218   9.804   0.247  0.2056  0.1911 -0.2482
 2362W        W18436   0.785  17.603  12.490  0.0166 -0.1452  0.2777
 2363W        W18437   7.499  10.126  13.760 -0.0371 -0.1092 -0.0263
 2364W        W18438   9.092  14.725   5.794  0.5351  0.0021 -0.1394
 2365W        W18439   1.743  10.436   1.753  0.1766  0.2805  0.0600
 2366W        W18440   5.349   9.675  12.630 -0.1371  0.0582 -0.0337
 2367W        W18441   8.108  11.097   2.541  0.0118  0.1869 -0.2908
 2368W        W18442  17.146   1.019  12.987  0.0844  0.0836 -0.3335
 2369W        W18443   7.726   0.328  12.373 -0.2725 -0.1519 -0.0703
 2370W        W18444  16.942  11.936   4.604 -0.0761 -0.0079  0.0449
 2371W        W18445  16.584   3.619  12.696  0.5278 -0.2616 -0.2613
 2372W        W18446   5.095   1.534  12.208  0.1619 -0.1007 -0.0990
 2373W        W18447   0.772   1.631  16.131  0.2385  0.1365 -0.0575
 2374W        W18448  12.454  12.499   1.895  0.2160  0.3340 -0.0239
 2375W        W18449  13.127  15.186  12.865  0.2214  0.3334 -0.1545
 2376W        W18450   3.382   1.509  13.236 -0.1173 -0.2089 -0.1441
 2377W        W18451  12.731  10.746   4.320 -0.0157  0.2061  0.1405
 2378W        W18452  15.217   1.055  14.104  0.1318 -0.3313 -0.0885
 2379W        W18453  17.965   0.696  15.418 -0.1207  0.5630  0.2107
 2380W        W18454  14.559   4.327  16.200  0.3914 -0.1996 -0.1755
 2381W        W18455  10.775   9.706   4.306  0.0036  0.0520  0.2905
 2382W        W18456  11.955   4.738   2.113 -0.1143 -0.0546 -0.0924
 2383W        W18457   8.822  16.323   2.424  0.0033 -0.3393 -0.5253
 2384W        W18458  11.450   5.664  11.026  0.6870  0.1539 -0.1206
 2385W        W18459  14.510  12.268  15.703  0.2053 -0.4796  0.0448
 2386W        W18460   8.021   7.034   4.347 -0.0139 -0.2275  0.0587
 2387W        W18461   0.777  15.748   5.550 -0.1047 -0.2814  0.0327
 2388W        W18462   1.327   7.453  12.804  0.0469 -0.0190  0.3050
 2389W        W18463  18.023   6.945   4.806 -0.0486  0.3113 -0.1283
 2390W        W18464   4.929   9.317  11.606  0.3666  0.1122 -0.0795
 2391W        W18465   6.901  17.010   4.287 -0.4205 -0.0905 -0.1812
 2392W        W18466  17.555   3.553   0.576 -0.0070  0.0402 -0.2366
 2393W        W18467  13.386  15.535   1.576  0.2640 -0.1628  0.0610
 2394W        W18468   6.793  10.364  14.579  0.0993 -0.1697  0.4065
 2395W        W18469   9.241   6.634   4.586  0.0914  0.1055  0.0926
 2396W        W18470  10.013   8.711   5.431  0.0452  0.0102  0.0417
 2397W        W18471  18.165   9.062   1.671  0.0628  0.0988  0.1157
 2398W        W18472   1.473   1.293  14.397 -0.3441 -0.0235 -0.1350
 2399W        W18473   7.211   1.307  12.588 -0.2665  0.2379  0.2269
 2400W        W18474  13.557  11.484  15.509 -0.0074 -0.2392 -0.0480
 2401W        W18475  16.369  16.274  15.282  0.0197  0.0022  0.2193
 2402W        W18476   3.151  12.832   3.481 -0.0444  0.2510  0.0772
 2403W        W18477  17.865   2.975  15.278  0.1843 -0.2047 -0.1815
 2404W        W18478  16.068   8.766  11.745  0.2047 -0.1576  0.0434
 2405W        W18479  17.847   7.376   4.552  0.0766 -0.2918  0.2486
 2406W        W18480  15.716  14.074  11.842  0.1213 -0.0650  0.3362
 2407W        W18481  17.895  14.320  16.316 -0.0558 -0.1501  0.1154
 2408W        W18482  15.733   4.567  11.479  0.4714 -0.2093  0.3814
 2409W        W18483   4.000  11.417   0.714 -0.2933 -0.2525 -0.0836
 2410W        W18484   8.340  13.052   3.790 -0.0573  0.2131  0.1802
 2411W        W18485   7.872   7.042   4.851 -0.1062 -0.3420  0.0844
 2412W        W18486  11.606   9.001  11.316  0.1667  0.1600 -0.1312
 2413W        W18487  12.560   7.031  14.534  0.0703  0.2203 -0.0471
 2414W        W18488   1.352  10.076  13.792 -0.0588  0.0860  0.1609
 2415W        W18489  18.056  12.949  14.774  0.2181 -0.2082 -0.1757
 2416W        W18490  17.096   7.636   1.843  0.2863  0.0334 -0.1982
 2417W        W18491  13.055  11.719   5.320  0.0810 -0.0788 -0.0315
 2418W        W18492  13.258   6.515  16.065 -0.1405 -0.1396 -0.2466
 2419W        W18493   3.047   3.371   1.934  0.0904 -0.2250  0.4479
 2420W        W18494   8.285   3.757  13.294  0.0616  0.1834  0.0979
 2421W        W18495  12.917  17.351  12.065  0.1601  0.2393  0.0597
 2422W        W18496   4.277   1.123   4.702  0.1236  0.0991  0.1767
 2423W        W18497  15.730  14.635   2.227 -0.1632  0.1357 -0.2638
 2424W        W18498  13.998   4.354  14.607  0.1125 -0.1293  0.1963
 2425W        W18499  12.468  14.479   3.952 -0.2194 -0.0593  0.1614
 2426W        W18500  17.467  11.184   0.479 -0.1919  0.1627 -0.2582
 2427W        W18501   6.842   5.238   5.762  0.3396  0.3996 -0.1447
 2428W        W18502  13.672  15.538   3.835 -0.2645 -0.1052 -0.0502
 2429W        W18503   6.327  12.596  14.336  0.5322  0.2538 -0.0366
 2430W        W18504   7.847   6.774  15.864 -0.0685  0.0469 -0.2248
 2431W        W18505   6.212  10.718   4.855 -0.0370  0.2758 -0.1602
 2432W        W18506  16.270  14.683   6.411 -0.2580  0.1511  0.0065
 2433W        W18507   9.193  11.462   1.747 -0.2037  0.3889  0.0026
 2434W        W18508  15.362   1.201  11.422  0.1552 -0.2986 -0.0243
 2435W        W18509  16.646   6.176  13.694  0.0076  0.0798 -0.0602
 2436W        W18510  14.976  10.572   2.189 -0.0172  0.1658  0.0486
 2437W        W18511  15.566   7.934   4.915 -0.3632 -0.5150 -0.1579
 2438W        W18512   4.483   0.586  12.252 -0.1663  0.0509 -0.3657
 2439W        W18513  11.405   4.847  10.452 -0.2454  0.0587 -0.1001
 2440W        W18514  11.837   0.753  15.860  0.0803 -0.3008 -0.2525
 2441W        W18515  11.023   3.312  11.748  0.1399  0.2861  0.1774
 2442W        W18516   0.174  10.876   5.255  0.1093  0.1569 -0.2853
 2443W        W18517  12.204   3.497  11.051  0.0203 -0.2026 -0.0898
 2444W        W18518   7.428  11.908   2.290 -0.0082 -0.2205 -0.1698
 2445W        W18519  13.289   3.646   2.304 -0.0609  0.2943  0.0909
 2446W        W18520   8.826   0.207   1.804 -0.0395 -0.0286 -0.2647
 2447W        W18521   1.629   8.113   5.404 -0.1288  0.0669  0.0522
 2448W        W18522  14.831  15.985   1.259 -0.2311  0.1604  0.1851
 2449W        W18523  12.445   5.530  15.979  0.1028 -0.0365 -0.0736
 2450W        W18524  17.883   0.775   2.690 -0.0638  0.0806  0.1851
 2451W        W18525   6.471  15.717   0.387  0.0729 -0.1434 -0.1032
 2452W        W18526   4.212  16.932  12.400 -0.1198 -0.0488 -0.1828
 2453W        W18527   6.078   0.954   4.328 -0.0748 -0.0115 -0.2313
 2454W        W18528  11.950   1.270  12.168 -0.0458 -0.1764 -0.0370
 2455W        W18529   0.824  12.487   4.472  0.0125  0.0689 -0.1230
 2456W        W18530   1.636   9.414   0.268 -0.0595  0.0337  0.2033
 2457W        W18531  10.974  16.666   2.709  0.2050 -0.2151 -0.3247
 2458W        W18532  11.186  17.290  13.379  0.1752 -0.1756 -0.1927
 2459W        W18533   7.406   0.647  15.423  0.2548 -0.0977  0.2403
 2460W        W18534   0.372   2.643  12.282  0.1161 -0.0570  0.1463
 2461W        W18535  12.986   7.320   2.381 -0.2612  0.2439 -0.1688
 2462W        W18536   8.018  10.989   5.766 -0.0751  0.2471 -0.3189
 2463W        W18537   0.890   0.053   4.449  0.3318 -0.1011 -0.0730
 2464W        W18538   4.054  18.093  11.832  0.0795  0.3428  0.1815
 2465W        W18539  10.019  12.875   3.499 -0.0603 -0.3479 -0.2321
 2466W        W18540  16.501   5.490   5.485  0.2980 -0.1889 -0.1398
 2467W        W18541  14.742   3.116  11.435 -0.0232 -0.1251  0.3516
 2468W        W18542   6.987   0.494   0.932 -0.0258 -0.1534  0.0373
 2469W        W18543   5.639  18.012  14.080 -0.0741  0.0346 -0.0579
 2470W        W18544  15.542   5.401   2.593 -0.1718  0.0003 -0.3930
 2471W        W18545  17.843   1.028  10.532 -0.2014 -0.0951 -0.0824
 2472W        W18546  12.029  11.354   2.579  0.0546 -0.2077  0.0462
 2473W        W18547   5.544  13.058   3.318  0.0589 -0.1559 -0.0349
 2474W        W18548   4.686  10.029   2.126 -0.2484  0.0091  0.0450
 2475W        W18549   3.640   0.862   0.765 -0.2098 -0.1452 -0.0322
 2476W        W18550   2.839   1.691   5.283  0.0428  0.1865  0.0767
 2477W        W18551   5.193   1.894  13.707  0.0978 -0.0592  0.1951
 2478W        W18552   1.104   3.566   6.091  0.1528 -0.1809 -0.0678
 2479W        W18553   7.710  14.910   5.527  0.0623  0.3176 -0.0283
 2480W        W18554  12.741   3.872  12.510  0.3206  0.0434 -0.0029
 2481W        W18555  12.338  18.034   1.390 -0.0838  0.1546  0.1475
 2482W        W18556  16.881  10.911   1.500 -0.3385  0.0616 -0.4864
 2483W        W18557  17.727  11.400   4.366 -0.0606 -0.0426 -0.0786
 2484W        W18558  11.924   3.168  10.755  0.2053 -0.0290 -0.0793
 2485W        W18559   3.555   3.331  13.044 -0.1690 -0.3813 -0.5423
 2486W        W18560   5.204   5.012  15.078  0.1074  0.2542 -0.0746
 2487W        W18561   7.148   5.078  15.154 -0.2176 -0.1334  0.0810
 2488W        W18562   3.529   3.566   3.990  0.2368  0.1318 -0.0347
 2489W        W18563   3.355   4.154   0.796 -0.2325 -0.1823  0.1868
 2490W        W18564  14.634   0.296  13.931 -0.1384  0.2533  0.0873
 2491W        W18565   0.698   7.740   2.529 -0.3197  0.2241 -0.0406
 2492W        W18566   8.710  14.790   0.765  0.0288 -0.1282  0.0199
 2493W        W18567  10.497  15.692  14.253  0.0405 -0.4014 -0.0937
 2494W        W18568  13.013   7.838   1.721 -0.2310  0.0856 -0.1430
 2495W        W18569   5.087  10.511  12.607 -0.1408 -0.1452  0.2314
 2496W        W18570  13.265   7.883  11.965  0.0586 -0.1082 -0.0711
 2497W        W18571  12.584   1.457   5.182  0.1751  0.1838 -0.0473
 2498W        W18572  18.283  11.214  13.629  0.0809 -0.1238 -0.2007
 2499W        W18573  11.915   1.340   5.180 -0.2168  0.0301  0.1490
 2500W        W18574   8.877   7.618  14.607  0.1682 -0.1208 -0.1603
 2501W        W18575   4.934   7.072   2.085 -0.0201 -0.1261  0.2682
 2502W        W18576   0.453  10.650   3.396 -0.0242 -0.1680  0.2593
 2503W        W18577   0.975  16.142   2.523  0.0627  0.0542 -0.0280
 2504W        W18578  14.263   9.712  14.573  0.1610  0.3853  0.3337
 2505W        W18579   6.815  16.475  14.417  0.1333 -0.1197  0.3945
 2506W        W18580  11.269  12.223   4.039 -0.1927 -0.1711 -0.1531
 2507W        W18581   7.698  10.439   1.965  0.0324  0.0799  0.0635
 2508W        W18582  10.095   4.336  12.680 -0.0917 -0.4422 -0.1823
 2509W        W18583   6.574   3.635   4.815 -0.2081 -0.0070 -0.1768
 2510W        W18584   7.805  13.055   0.608 -0.2861 -0.1753 -0.2825
 2511W        W18585  10.052  11.833   3.542 -0.2780 -0.1365  0.1139
 2512W        W18586  14.883  10.245   5.396 -0.0160  0.1314 -0.3346
 2513W        W18587  11.351   7.202  11.744 -0.2328  0.3078  0.1278
 2514W        W18588   5.981  16.646   3.265  0.0993  0.1723  0.1467
 2515W        W18589   7.420   3.730   1.937 -0.0355 -0.2503 -0.1958
 2516W        W18590   5.556   1.644  13.479  0.1767 -0.0323 -0.0002
 2517W        W18591   5.613  11.501  11.293  0.0651 -0.3117  0.1119
 2518W        W18592   7.695   3.877  13.960 -0.0747 -0.0901  0.0086
 2519W        W18593  14.615   0.352  15.763  0.0424  0.0811  0.1080
 2520W        W18594  13.451  10.644  15.076 -0.1359 -0.0831  0.1227
 2521W        W18595   1.050   3.322   3.182  0.0382  0.1421  0.0375
 2522W        W18596  10.478   0.316  13.640  0.5154  0.0010 -0.2275
 2523W        W18597  18.255   4.630   4.585 -0.1171  0.1862 -0.0158
 2524W        W18598   2.204   2.634   0.238 -0.2618 -0.3409 -0.3440
 2525W        W18599   4.177  12.990   4.443 -0.0203  0.2769  0.0861
 2526W        W18600   0.515  18.118  14.650 -0.0569 -0.4642  0.0009
 2527W        W18601  16.026   9.649   5.549  0.2140 -0.0508 -0.0288
 2528W        W18602  12.306   3.825  14.982  0.0243  0.0877  0.0952
 2529W        W18603   8.208   1.307  13.317 -0.0785 -0.0406  0.0513
 2530W        W18604   7.503  14.830  11.990 -0.0265 -0.0986 -0.0814
 2531W        W18605   4.590   3.335  14.426  0.2255  0.0129 -0.0048
 2532W        W18606   4.125   7.765  14.799 -0.0655 -0.2968 -0.0046
 2533W        W18607   1.102   3.401  12.668  0.3294 -0.0087 -0.1878
 2534W        W18608  17.168   4.357   3.971 -0.1251 -0.1255 -0.0659
 2535W        W18609  17.726  13.403   1.029 -0.2738  0.0099 -0.1829
 2536W        W18610   1.760  15.257   0.127  0.0523 -0.4368  0.0835
 2537W        W18611   5.505   3.659  11.067  0.3439  0.0321  0.0686
 2538W        W18612  17.284   4.386   4.921 -0.1534 -0.0931  0.1771
 2539W        W18613  12.509   5.495  11.852  0.0115  0.0658 -0.1537
 2540W        W18614  17.473  15.414   3.491  0.0298 -0.1701 -0.0894
 2541W        W18615   2.766   9.618  14.732  0.0811 -0.0578  0.1180
 2542W        W18616   3.399  10.553  10.553 -0.0425 -0.0635  0.1597
 2543W        W18617   6.051   9.822  15.123  0.1989  0.1161  0.2307
 2544W        W18618  16.467   0.716   2.771  0.0317  0.1173  0.0339
 2545W        W18619  11.871  15.047  12.664 -0.2258  0.1477  0.0355
 2546W        W18620   3.183   3.150  14.257 -0.0710  0.1583  0.0652
 2547W        W18621   4.162  13.411   0.839  0.1658 -0.1749  0.1628
 2548W        W18622   1.528   5.376  15.858  0.2008 -0.3302 -0.1926
 2549W        W18623   2.228  16.538   0.191  0.1190  0.0711  0.0689
 2550W        W18624   1.638  13.318   1.003 -0.3766  0.1952 -0.1536
 2551W        W18625   6.270   6.905   2.784  0.0473  0.0230  0.0898
 2552W        W18626   3.235   8.048  11.345  0.1427 -0.0780  0.1894
 2553W        W18627  17.542   2.041  12.832  0.3389 -0.4329  0.3013
 2554W        W18628   7.228  17.472   6.500  0.3983  0.0661 -0.0792
 2555W        W18629   5.598   9.122   3.989 -0.2308 -0.4762  0.1313
 2556W        W18630  14.516  11.953   5.141  0.1430 -0.0238 -0.1949
 2557W        W18631  12.950  18.007  14.506 -0.0766  0.1638  0.0112
 2558W        W18632   7.003   3.461   3.360  0.3521  0.1700  0.0930
 2559W        W18633   6.219  18.232  14.807 -0.0539 -0.2300  0.0217
 2560W        W18634   4.006  16.300   3.483 -0.0081  0.1548 -0.0212
 2561W        W18635  11.336  10.672   2.335 -0.0939  0.2972 -0.2939
 2562W        W18636  14.912   1.443  14.075  0.3004 -0.2695 -0.1725
 2563W        W18637   4.999  15.145  11.401  0.0874 -0.0157  0.0189
 2564W        W18638   9.455   9.397  14.443 -0.1453 -0.2245 -0.3021
 2565W        W18639   5.914   5.530  11.168 -0.0283  0.1791 -0.2626
 2566W        W18640  12.282  10.225   3.050  0.2235  0.0736 -0.0881
 2567W        W18641  18.057  12.574   5.348  0.3307 -0.3571 -0.0194
 2568W        W18642  14.328   1.374  13.880 -0.0749 -0.2278 -0.1124
 2569W        W18643  11.069  16.840  15.594  0.0363  0.0981 -0.0518
 2570W        W18644  17.443   1.206  15.990 -0.1410 -0.1789  0.0194
 2571W        W18645  10.105   4.274   3.245 -0.0778  0.2920 -0.0852
 2572W        W18646  12.826  12.729   4.430  0.1314 -0.1849  0.2747
 2573W        W18647   4.902   2.416  15.348 -0.0646 -0.2584 -0.5071
 2574W        W18648   0.344  16.148   3.632 -0.1823  0.1036  0.1937
 2575W        W18649   3.463   5.796   5.247 -0.0409  0.1462  0.2135
 2576W        W18650   2.242   9.108   1.569  0.0447  0.1693  0.3012
 2577W        W18651  12.490   9.401  16.174  0.1277 -0.1340  0.2955
 2578W        W18652   8.683  12.599   0.534  0.0253 -0.1703  0.0060
 2579W        W18653   3.727  14.453   4.745  0.2319 -0.0149  0.0876
 2580W        W18654  12.462   1.366   2.739 -0.3585  0.0052  0.1207
 2581W        W18655  17.100   6.798  12.519  0.1807  0.3703  0.2002
 2582W        W18656  13.308  12.846  12.939  0.2361 -0.1040 -0.0063
 2583W        W18657  12.135  12.156   3.933 -0.3554 -0.0180 -0.2635
 2584W        W18658  15.376  11.974   4.668 -0.0296 -0.2861 -0.0933
 2585W        W18659   9.522   2.417   5.197 -0.2085 -0.0688 -0.3151
 2586W        W18660  13.916   4.834   4.211 -0.0759  0.3376 -0.1654
 2587W        W18661   0.391  12.395  13.302  0.1605  0.1068  0.2442
 2588W        W18662  15.719   2.188   3.829  0.0919  0.0406  0.1280
 2589W        W18663  17.642  11.490  14.332  0.0203  0.3564  0.0910
 2590W        W18664  14.690   0.683  14.669 -0.2473  0.1257 -0.0118
 2591W        W18665   6.273   9.666  11.542 -0.2121  0.0565 -0.0523
 2592W        W18666  15.625   9.635  12.438 -0.1062 -0.1521 -0.2464
 2593W        W18667  12.143  15.007  13.377 -0.0225 -0.0167  0.0774
 2594W        W18668   8.188  10.273   5.260  0.1186 -0.0195  0.0664
 2595W        W18669  11.908  15.283   4.660  0.0950  0.1314  0.1393
 2596W        W18670  11.793  11.195  15.871  0.2470  0.0957 -0.0796
 2597W        W18671   9.322  14.366   1.596  0.3040  0.3470 -0.2317
 2598W        W18672  12.950  17.422  15.672  0.1123  0.1750  0.0544
 2599W        W18673   3.888   5.364  15.152  0.2282 -0.0269  0.1755
 2600W        W18674   0.983   2.304  14.085  0.0792 -0.0296 -0.1377
 2601W        W18675   0.972   5.080  14.763 -0.3664 -0.0502  0.3642
 2602W        W18676  11.724  11.680  14.819  0.1214 -0.1816 -0.0330
 2603W        W18677   9.032   7.921  15.680  0.0839  0.2025 -0.3179
 2604W        W18678   0.422  17.734   0.390 -0.0363  0.2154 -0.1801
 2605W        W18679  15.962   6.117   1.275  0.2298 -0.0303  0.0824
 2606W        W18680  15.233   7.010  15.425 -0.0438  0.0944  0.2092
 2607W        W18681  14.454  16.309  13.216 -0.1217  0.0086  0.1083
 2608W        W18682  17.688  14.287  12.954 -0.1040 -0.0033 -0.0288
 2609W        W18683   1.364  12.562   2.174  0.1643  0.0921  0.1252
 2610W        W18684   8.671  18.086   0.230  0.0213  0.0457 -0.4334
 2611W        W18685   6.666  15.184  14.996  0.0211  0.2066 -0.1250
 2612W        W18686   3.052   7.365   1.784 -0.0794  0.0007 -0.1832
 2613W        W18687   5.689   0.115   3.083  0.2867  0.0791 -0.1431
 2614W        W18688  15.099  16.606  11.724 -0.4212  0.0129 -0.2005
 2615W        W18689   9.588  17.624  15.906 -0.0149  0.3490  0.0768
 2616W        W18690  13.234  12.086  14.358 -0.4569 -0.1090  0.3252
 2617W        W18691  12.038  11.651  15.407 -0.1496 -0.0075  0.0101
 2618W        W18692  12.570  15.417   1.677  0.0923  0.1032  0.2240
 2619W        W18693   8.000  14.434   2.732 -0.1205  0.0113 -0.2658
 2620W        W18694  18.324   1.354  13.448 -0.5126  0.5032 -0.1592
 2621W        W18695  14.254   4.644   2.935 -0.1070 -0.2400  0.1112
 2622W        W18696   0.995   4.435  13.722 -0.0854  0.0704  0.1070
 2623W        W18697   8.267   0.141  16.013  0.4876 -0.4342  0.1613
 2624W        W18698  11.657   7.722   4.413  0.0871  0.1884  0.1062
 2625W        W18699  10.287   7.144  15.514  0.2685  0.2868 -0.0054
 2626W        W18700  16.322   0.725  14.495 -0.3310  0.0576 -0.3153
 2627W        W18701  11.022   3.901  13.654  0.1132  0.1299 -0.0593
 2628W        W18702  17.238   5.452  11.762  0.1239  0.2400  0.2041
 2629W        W18703   3.846   5.049   0.386  0.0229 -0.1829 -0.0273
 2630W        W18704   5.223  10.957  11.724 -0.0082  0.2173  0.1432
 2631W        W18705   3.834   7.408   2.649  0.2941  0.1273 -0.1184
 2632W        W18706  10.779   8.280   0.503  0.1954 -0.1178 -0.1372
 2633W        W18707   8.301   1.984   2.216 -0.4013 -0.1534  0.1541
 2634W        W18708   0.456   2.151   5.804  0.1696  0.1238 -0.0918
 2635W        W18709  10.803  14.464   0.530  0.0016  0.1660  0.0454
 2636W        W18710  12.184   8.579  15.219 -0.1702  0.2002  0.2079
 2637W        W18711   8.737   4.259   1.645 -0.1798  0.1879 -0.2187
 2638W        W18712   7.691  13.892   3.846  0.5591 -0.0359  0.0702
 2639W        W18713   1.059  17.663   1.675  0.2588 -0.0533  0.0099
 2640W        W18714  15.932  14.622  13.342  0.2193  0.0011 -0.5147
 2641W        W18715   1.940  12.771  14.548  0.3452  0.1653  0.0771
 2642W        W18716   8.445  17.481   3.346 -0.0366 -0.1564 -0.0605
 2643W        W18717   0.434   1.793   2.872 -0.1081  0.3607 -0.1414
 2644W        W18718   3.606   2.795  15.706 -0.0228  0.0619 -0.0463
 2645W        W18719   0.329   6.539  11.968  0.4428 -0.3268 -0.4030
 2646W        W18720   0.399   2.220  11.703  0.1055 -0.0533  0.2877
 2647W        W18721   8.008  17.282   5.433 -0.0452 -0.0780  0.0796
 2648W        W18722  12.466   1.194  13.774 -0.2109 -0.0897 -0.1326
 2649W        W18723   9.555  14.050  13.161 -0.0551 -0.1085  0.0707
 2650W        W18724   3.304  17.395   3.404 -0.2176  0.0611 -0.0148
 2651W        W18725   9.240  12.740   0.179  0.0001  0.3120  0.0046
 2652W        W18726  17.134   3.138   2.771 -0.1162  0.4464  0.1460
 2653W        W18727   4.664   4.184  14.616  0.1390  0.0386  0.0635
 2654W        W18728   4.777   4.079   1.586  0.0454 -0.0487 -0.0456
 2655W        W18729   4.453   9.267   4.672 -0.1607 -0.0984 -0.1873
 2656W        W18730  12.214  13.583   3.607  0.6805  0.1424 -0.0461
 2657W        W18731  11.630   7.539  12.620 -0.0350  0.1690 -0.1940
 2658W        W18732   4.005   5.898  12.164  0.1507 -0.3308  0.1630
 2659W        W18733   5.973  13.008  11.838 -0.4798  0.0982  0.1507
 2660W        W18734   0.840  10.113   5.025  0.2855  0.1695  0.1939
 2661W        W18735   3.070   5.676   3.941 -0.0270 -0.0707 -0.3478
 2662W        W18736   2.751  15.041  13.074  0.2000  0.1815 -0.0720
 2663W        W18737  14.938  17.419   0.031  0.2054 -0.2018  0.0455
 2664W        W18738   7.963  14.124   0.425  0.2308  0.2665 -0.0478
 2665W        W18739   8.391  15.640   0.954  0.0152  0.2616  0.0538
 2666W        W18740  12.169  17.271  15.202  0.1308 -0.0928 -0.1931
 2667W        W18741   7.646   9.802   3.597  0.1960 -0.1085 -0.0533
 2668W        W18742  11.699   3.934  12.801  0.1749 -0.0171 -0.0117
 2669W        W18743   5.455   2.221  10.939  0.0633 -0.2627 -0.2257
 2670W        W18744   5.749  10.725  15.419 -0.0697  0.0707 -0.0947
 2671W        W18745  12.443  17.003  16.369 -0.0143 -0.0031  0.0070
 2672W        W18746   5.710   9.698  15.499  0.0789  0.1410 -0.0894
 2673W        W18747  11.988   3.780  14.609  0.0507  0.1863 -0.1152
 2674W        W18748  16.665   3.609  13.823 -0.0657 -0.4417 -0.5799
 2675W        W18749   4.117  11.318   0.201  0.4377  0.0563  0.1141
 2676W        W18750  10.898   7.802  11.178  0.3031  0.1724  0.2904
 2677W        W18751  17.973   4.736   0.141 -0.3383  0.2567  0.0773
 2678W        W18752   8.266   5.195  14.331  0.1203  0.1274 -0.0852
 2679W        W18753   6.927   9.947  14.846  0.1047  0.0024  0.0557
 2680W        W18754  10.329  13.390  11.392 -0.2326 -0.1327  0.0101
 2681W        W18755   5.084   4.531   1.782  0.0702 -0.1322  0.2604
 2682W        W18756  13.809  10.896   2.198  0.2141  0.1916  0.2315
 2683W        W18757   4.673  17.874  15.308  0.1999 -0.0385 -0.1058
 2684W        W18758   6.640   4.347  13.950 -0.2097  0.2452  0.1382
 2685W        W18759  15.242   1.987  12.001  0.0284 -0.0501  0.1419
 2686W        W18760   8.597   4.424   4.932  0.2481  0.1590  0.2354
 2687W        W18761  11.850  16.238  11.612  0.1087 -0.0228 -0.2507
 2688W        W18762   1.774  16.552  14.210 -0.1394 -0.0531  0.0934
 2689W        W18763   9.073  13.161  15.398  0.1300 -0.1262 -0.0810
 2690W        W18764   9.456  10.265   3.792 -0.0014  0.3092 -0.0435
 2691W        W18765  18.304   1.455  13.935  0.3334 -0.1633  0.0395
 2692W        W18766   1.063   8.740  15.498  0.1604  0.1429  0.1645
 2693W        W18767   8.123   0.812   4.121  0.3263  0.0092  0.0568
 2694W        W18768  18.123   3.470   6.652  0.0072 -0.0917 -0.0792
 2695W        W18769   3.082  15.438  11.398  0.0306  0.2796 -0.0903
 2696W        W18770   2.916  10.770   5.662  0.0464  0.3231 -0.2751
 2697W        W18771  10.334   4.814  14.132 -0.1035  0.0289  0.1757
 2698W        W18772   3.731   6.799  13.825 -0.0072  0.1646 -0.2742
 2699W        W18773   7.293  18.196   5.423  0.0167 -0.0671  0.2079
 2700W        W18774   8.604  16.018   0.013  0.2761  0.1117 -0.0609
 2701W        W18775  17.278   9.712   3.383 -0.2544 -0.2956  0.0406
 2702W        W18776  17.691   5.587   3.262 -0.0235 -0.0453 -0.0222
 2703W        W18777  16.297  13.036   0.072 -0.1836  0.0642  0.3785
 2704W        W18778  12.476   3.951   2.073  0.2383 -0.1761 -0.1019
 2705W        W18779   1.411   6.047  15.307  0.3946 -0.1826  0.2318
 2706W        W18780  15.265  16.342  13.719 -0.2047 -0.1853 -0.0021
 2707W        W18781  12.534   6.930   1.790  0.0064  0.1413 -0.0506
 2708W        W18782  16.679   4.027   5.393  0.0872 -0.1177  0.1597
 2709W        W18783   3.091   9.513   0.611 -0.2142 -0.0835 -0.0597
 2710W        W18784   3.891   6.286   1.336  0.2089 -0.1436 -0.0642
 2711W        W18785   4.297   1.952  14.802  0.0517  0.2148 -0.0706
 2712W        W18786   0.581   8.491  14.016  0.1448  0.0252  0.1738
 2713W        W18787   6.348  17.671   2.350  0.1286 -0.1213 -0.0882
 2714W        W18788   5.696  16.844  16.208  0.1084 -0.3825 -0.2530
 2715W        W18789  15.698   3.679   0.220 -0.1629 -0.4883 -0.3115
 2716W        W18790  13.120   2.248  16.376  0.2639 -0.0301 -0.0149
 2717W        W18791  13.525  17.749   1.079 -0.0792 -0.1375  0.1111
 2718W        W18792   3.959  17.437  12.864  0.1227  0.2904  0.1863
 2719W        W18793   8.727   4.004   2.474 -0.0601 -0.1856 -0.0614
 2720W        W18794   6.838  11.014   4.157 -0.1284  0.3041  0.2040
 2721W        W18795   3.005  17.854  12.993 -0.1496 -0.3138  0.0197
 2722W        W18796   1.575   1.410  15.449  0.2029  0.1365 -0.0975
 2723W        W18797  12.271  18.108  14.044 -0.0549 -0.0782 -0.0113
 2724W        W18798  13.617  14.109   1.497 -0.0679 -0.1391  0.0296
 2725W        W18799  14.868  10.987  13.065 -0.0679  0.1282 -0.1653
 2726W        W18800   9.370   9.241   2.449  0.0212 -0.3052 -0.2061
 2727W        W18801   6.868   7.292  12.550 -0.1178 -0.1340 -0.2596
 2728W        W18802  17.146   0.090   0.168  0.1321 -0.2132 -0.0508
 2729W        W18803  14.083   9.827   2.431 -0.0036  0.1882  0.0110
 2730W        W18804  13.636  13.774  16.229  0.0357  0.4677 -0.0193
 2731W        W18805  14.923  12.896  11.963 -0.0342  0.3623  0.1708
 2732W        W18806   5.245  13.063   1.737  0.1039  0.2713  0.0397
 2733W        W18807  15.214  16.282   1.295  0.1080  0.0136 -0.0032
 2734W        W18808  11.654  12.488   0.686 -0.0043  0.3101 -0.2064
 2735W        W18809   3.981  10.820   1.610  0.1216 -0.0515  0.1067
 2736W        W18810   3.612  16.470   2.513  0.0619 -0.2997 -0.1653
 2737W        W18811  13.225   0.044   3.046  0.1809  0.2453 -0.1486
 2738W        W18812   1.805   1.742   0.103 -0.0319 -0.1185  0.3323
 2739W        W18813  16.327   9.902   3.215  0.0753 -0.0645  0.1548
 2740W        W18814   4.458  10.808   4.272  0.0660 -0.1922 -0.1725
 2741W        W18815   2.329   2.096   0.609  0.0918 -0.0191  0.0317
 2742W        W18816  17.040   6.653   5.655 -0.1183 -0.0756 -0.0754
 2743W        W18817  13.428   8.503   0.444  0.2248 -0.0885 -0.0788
 2744W        W18818  16.318   4.851  13.349 -0.0542 -0.0679  0.3203
 2745W        W18819   4.191  17.720   4.820 -0.0353 -0.1292  0.3036
 2746W        W18820  15.197   2.943  12.328  0.0401 -0.1530  0.2372
 2747W        W18821   0.253   7.823  15.002 -0.1638  0.0750  0.4505
 2748W        W18822  13.020   3.859   3.961 -0.1328  0.1581  0.2915
 2749W        W18823   4.881   9.649   1.491  0.0082  0.1973  0.0419
 2750W        W18824  13.379   0.823  15.833  0.0768  0.1391  0.5552
 2751W        W18825  11.635   7.222   4.529 -0.2951  0.2169  0.1492
 2752W        W18826  14.124  17.502  12.907 -0.0720  0.0645 -0.0038
 2753W        W18827  10.351  17.929  16.363 -0.1390  0.2390  0.0372
 2754W        W18828  13.911  14.718   4.008 -0.2267 -0.1052  0.0847
 2755W        W18829   6.215  15.576   3.980 -0.2548 -0.0220  0.1961
 2756W        W18830  13.955  10.065  15.243  0.0649  0.0207 -0.0094
 2757W        W18831   7.158  11.472   5.801 -0.0815 -0.0178  0.1541
 2758W        W18832   8.735  14.704   1.604 -0.0924 -0.2627 -0.0020
 2759W        W18833   7.566  11.335  15.122  0.0767 -0.2183 -0.1205
 2760W        W18834   6.466   4.978   2.756 -0.0535  0.0518 -0.5051
 2761W        W18835   2.387  13.575   1.449  0.2465  0.3205 -0.1453
 2762W        W18836   5.846  10.664  12.610 -0.1202  0.2969 -0.0003
 2763W        W18837   9.899   0.039  13.574 -0.1391 -0.3116  0.2851
 2764W        W18838   4.400   5.550  11.340 -0.0336 -0.2154  0.0657
 2765W        W18839   3.168   3.208   0.956  0.0878 -0.1287  0.1024
 2766W        W18840   8.254  13.170  13.395 -0.2146  0.0391 -0.0461
 2767W        W18841   1.766   7.526   1.667  0.0344  0.0836  0.0774
 2768W        W18842  12.569   1.250  11.473 -0.0757 -0.1205  0.1018
 2769W        W18843   0.285   7.248   5.970 -0.1149 -0.0032 -0.0919
 2770W        W18844  13.518  13.578   1.503  0.1491  0.0666 -0.0126
 2771W        W18845   6.928   6.973  11.426  0.1133 -0.1785 -0.0085
 2772W        W18846  14.665   3.354   1.826 -0.2745 -0.0944 -0.0211
 2773W        W18847  16.257   9.266   3.476  0.1275 -0.1892 -0.2137
 2774W        W18848   9.161  12.305   3.708  0.0129 -0.2822 -0.1767
 2775W        W18849   4.443   0.525  11.753  0.0774 -0.1518  0.4313
 2776W        W18850   9.861  17.595   1.631 -0.1416  0.2182 -0.1587
 2777W        W18851   8.387   6.321   4.625 -0.1667  0.0249  0.1133
 2778W        W18852   1.984   3.380   1.876  0.1880  0.1997 -0.0594
 2779W        W18853  12.867   0.831   0.257  0.0596  0.1363 -0.0519
 2780W        W18854  11.951   1.687   3.271  0.2411  0.0378 -0.2849
 2781W        W18855   3.257  15.571  13.920 -0.1105 -0.3193 -0.2752
 2782W        W18856  15.816  13.171   0.294 -0.0404  0.1163  0.1472
 2783W        W18857  17.624  17.141  14.386  0.2220 -0.0013 -0.2114
 2784W        W18858  16.787   4.009   4.855  0.1191 -0.0029  0.2241
 2785W        W18859  17.911   8.388   2.399 -0.0560  0.2010  0.0087
 2786W        W18860  16.636   4.440   2.220  0.1677  0.0061  0.0724
 2787W        W18861   1.465  11.467   0.919  0.0764 -0.2143  0.3486
 2788W        W18862   3.807   6.805  16.224 -0.0822 -0.0136 -0.1786
 2789W        W18863   3.774   5.061  11.998  0.3408  0.0896  0.1113
 2790W        W18864   6.773   5.974  16.303 -0.1363  0.0300 -0.0621
 2791W        W18865   3.054   2.116  13.994 -0.0447 -0.0841  0.0979
 2792W        W18866   5.571   6.820   4.482 -0.0884 -0.1070  0.1257
 2793W        W18867   5.665   3.666  13.149  0.3050  0.0969 -0.3388
 2794W        W18868   5.229  10.197   0.420 -0.0779  0.3228 -0.0825
 2795W        W18869  14.549  14.040  16.072 -0.0657 -0.1227  0.1069
 2796W        W18870   7.605  13.756  12.129 -0.2187  0.0756  0.0250
 2797W        W18871  13.199   2.403  11.234 -0.3308 -0.0027 -0.1518
 2798W        W18872   2.227   2.196  15.206  0.2097  0.0261 -0.2117
 2799W        W18873  17.518   1.575  11.554  0.1079 -0.2336 -0.0741
 2800W        W18874  13.025   2.859   4.658  0.0782  0.0215 -0.1452
 2801W        W18875  13.040   1.351  14.746 -0.2313 -0.0947 -0.1658
 2802W        W18876  12.237   5.236   2.889 -0.0035  0.1964  0.1715
 2803W        W18877  16.145   4.394  13.662  0.3025  0.0251 -0.0696
 2804W        W18878   4.600  16.095  12.482 -0.2007  0.0526 -0.2270
 2805W        W18879  10.520   6.546   5.636 -0.2357  0.0005 -0.0085
 2806W        W18880   7.053  17.570   3.571  0.0922 -0.0615 -0.2963
 2807W        W18881  14.160   2.878   2.383  0.0846  0.3222  0.0814
 2808W        W18882   3.059  14.203   2.413 -0.4048 -0.0352 -0.1499
 2809W        W18883  13.967   2.405  11.597  0.0268  0.1551 -0.0386
 2810W        W18884  15.752   5.464   4.934 -0.0007 -0.2249  0.3597
 2811W        W18885  10.247  14.519  15.319  0.0203 -0.3147 -0.2242
 2812W        W18886  12.017  15.415  11.743 -0.3278  0.0598 -0.1779
 2813W        W18887  12.333   1.244   4.387  0.1688 -0.1455 -0.2595
 2814W        W18888   8.003  15.698  12.151  0.0269  0.0582  0.0124
 2815W        W18889  11.541   3.969   5.378 -0.0548  0.0831 -0.0014
 2816W        W18890   2.578  16.000  13.519 -0.0952 -0.1230 -0.2010
 2817W        W18891   3.327   9.204  12.254 -0.1961 -0.0811  0.2578
 2818W        W18892  10.590  14.347   2.174 -0.3664  0.0391 -0.0375
 2819W        W18893  16.670   2.137  11.674 -0.1147  0.0594 -0.1192
 2820W        W18894   4.648   2.482   4.915  0.2011  0.4278  0.2056
 2821W        W18895  14.991   0.054   4.374  0.0003  0.0661 -0.3203
 2822W        W18896  15.376  17.793  14.878  0.0770  0.0860  0.1260
 2823W        W18897  12.384  10.604   0.956 -0.0181  0.0125 -0.1050
 2824W        W18898   0.523   0.658  15.480  0.3365 -0.2109 -0.0047
 2825W        W18899  18.004   7.460   0.464 -0.1296 -0.2072 -0.0925
 2826W        W18900   0.570   0.277  12.565 -0.1811  0.0634  0.2651
 2827W        W18901  16.765  12.730  15.616  0.1789  0.1362  0.2547
 2828W        W18902   3.327  15.268   2.750 -0.1379 -0.1519 -0.0531
 2829W        W18903   4.862   4.963   5.099 -0.1636  0.5346 -0.1870
 2830W        W18904   3.476  15.657   3.806 -0.0806  0.2322 -0.1020
 2831W        W18905  16.051  10.917  12.341 -0.0862  0.0341  0.1648
 2832W        W18906  11.472   3.590  11.421 -0.1487  0.3621 -0.0095
 2833W        W18907   4.539   7.512   4.176  0.0681 -0.0337  0.2745
 2834W        W18908   6.430   7.751   4.088 -0.3410  0.0201 -0.0851
 2835W        W18909  16.615  12.572  16.061  0.1823  0.0915  0.1136
 2836W        W18910  14.956  10.380  15.567 -0.2996 -0.2336 -0.1097
 2837W        W18911  11.269   3.231  10.787 -0.5229  0.2887 -0.1229
 2838W        W18912  17.384   2.584  15.919 -0.2552 -0.1060 -0.1866
 2839W        W18913  17.914  17.035   4.289 -0.1716  0.1740  0.0954
 2840W        W18914  12.572   6.526   3.117 -0.2797  0.1068  0.1070
 2841W        W18915   7.272   8.419   4.585  0.1264  0.0208 -0.1846
 2842W        W18916  12.051   4.028   5.421 -0.0120  0.0466 -0.0612
 2843W        W18917   9.010   9.468  15.034 -0.0320 -0.1135  0.1061
 2844W        W18918   5.214   3.588  11.496 -0.3391 -0.1220 -0.0266
 2845W        W18919  13.295  13.909   1.822 -0.1092  0.0801 -0.1655
 2846W        W18920   8.045   2.406  13.471 -0.1525 -0.2164 -0.0091
 2847W        W18921  14.120   0.004   0.450 -0.1076  0.4016 -0.0921
 2848W        W18922  10.237   1.602  15.650 -0.1591  0.1975 -0.0234
 2849W        W18923  12.587   5.267   3.229  0.1976 -0.0462 -0.1376
 2850W        W18924   2.776   4.202   0.814 -0.0998  0.0637 -0.1317
 2851W        W18925  12.966  15.942  12.142 -0.0267  0.1268 -0.1840
 2852W        W18926  13.891  12.196   1.873  0.2232 -0.3473  0.1567
 2853W        W18927   1.867   4.467   3.333 -0.2168  0.1142 -0.0351
 2854W        W18928  10.497  14.652  14.556 -0.1022 -0.1672  0.2924
 2855W        W18929   9.216   1.616  16.135 -0.0744 -0.2359 -0.2839
 2856W        W18930  16.769   0.637  12.232 -0.2357  0.2454  0.2427
 2857W        W18931   7.227   2.274  13.525  0.0914  0.2143 -0.0571
 2858W        W18932  14.976  12.235  13.623 -0.0716 -0.0228 -0.0368
 2859W        W18933   6.481  18.257   4.683 -0.2135 -0.0629  0.0479
 2860W        W18934   5.572  18.060   2.840 -0.1015  0.0725 -0.0268
 2861W        W18935  13.546   7.448  12.177  0.1786 -0.2677  0.1014
 2862W        W18936   7.441  14.340   4.654 -0.0162  0.1828  0.1099
 2863W        W18937   6.200  10.170  16.188  0.0939 -0.0634  0.0769
 2864W        W18938  17.850   8.826  13.230  0.1891 -0.0368  0.2295
 2865W        W18939   9.594  10.131  16.212  0.1236 -0.1920  0.1147
 2866W        W18940   1.329   8.095   5.820 -0.1785  0.3163  0.0108
 2867W        W18941   4.924  14.762   4.533 -0.1376 -0.1013 -0.1239
 2868W        W18942  12.171  10.100  12.906 -0.1721 -0.2749 -0.2658
 2869W        W18943  15.267  16.610   3.323  0.3905 -0.2283 -0.0481
 2870W        W18944   2.907   7.408   5.051 -0.0194  0.1892 -0.2640
 2871W        W18945  17.561  16.868  13.977 -0.0998  0.0252  0.0166
 2872W        W18946  12.479   2.949  12.753 -0.0237  0.1891 -0.3680
 2873W        W18947   6.345  15.641   5.580 -0.1617  0.0183 -0.1224
 2874W        W18948   5.391  17.915  11.695 -0.0776  0.2002  0.0507
 2875W        W18949  14.432  12.795   0.142 -0.3997  0.0977 -0.1936
 2876W        W18950  10.358   9.670  11.418 -0.1113  0.0998  0.0533
 2877W        W18951   4.048  10.737  15.907 -0.0304 -0.1830 -0.0565
 2878W        W18952  11.306   1.085  12.425  0.0717 -0.0971 -0.2127
 2879W        W18953   6.993   7.789  15.975 -0.0376  0.0065 -0.1803
 2880W        W18954  10.728   1.124   0.979  0.0149  0.1705 -0.3622
 2881W        W18955  16.777   3.168  15.706 -0.2508  0.5189  0.1243
 2882W        W18956   6.120   9.586   0.687 -0.0309  0.2911 -0.0829
 2883W        W18957   6.446   3.641  10.993  0.0041  0.2092 -0.2059
 2884W        W18958   1.317  10.502  12.406 -0.1523  0.2108  0.0433
 2885W        W18959   5.367   1.372   1.601  0.2247 -0.4999  0.0340
 2886W        W18960  14.911  13.639   4.387  0.2877  0.0131 -0.0753
 2887W        W18961   3.862   8.505   1.042  0.0100  0.0277  0.0917
 2888W        W18962   9.730   4.644  11.823  0.1265  0.0638 -0.3678
 2889W        W18963   0.185   3.601  14.166  0.4647  0.0014 -0.3968
 2890W        W18964  13.876  17.898   2.881  0.0312 -0.0253  0.3706
 2891W        W18965  13.991   8.816   3.315  0.0782 -0.0747 -0.1442
 2892W        W18966   7.178   9.337   1.099 -0.1469  0.1025 -0.1321
 2893W        W18967  11.473   1.145   3.860  0.3316 -0.2265 -0.0010
 2894W        W18968  11.974  18.258  11.179 -0.0693 -0.0608  0.0231
 2895W        W18969   0.463   4.541  12.333 -0.0361 -0.1001  0.1195
 2896W        W18970   5.941   8.806   4.693  0.4453  0.1486 -0.0278
 2897W        W18971   4.478   1.968   3.167  0.2387  0.0609  0.2838
 2898W        W18972   5.830  12.276   3.867  0.1954  0.2338 -0.2118
 2899W        W18973   4.241  14.217   1.187 -0.0750  0.1359  0.2837
 2900W        W18974  17.882  14.022   0.440  0.0146  0.0000 -0.3479
 2901W        W18975  15.370  13.234  16.380  0.0238  0.0602  0.1156
 2902W        W18976   9.848   8.334   1.045  0.3447  0.1173  0.0002
 2903W        W18977   6.099   1.585   5.481 -0.1469 -0.0953  0.0677
 2904W        W18978   8.882   0.406  13.282  0.2294 -0.2516 -0.0494
 2905W        W18979  13.613  14.383  12.661 -0.1040 -0.2572 -0.0381
 2906W        W18980  18.199   7.021   0.682  0.4561  0.3688 -0.2271
 2907W        W18981  12.150   3.607   0.940 -0.1796  0.0860 -0.1152
 2908W        W18982   5.378  17.970   5.392  0.0550  0.1119 -0.0917
 2909W        W18983   8.134  10.150  11.840 -0.0448  0.3126  0.3761
 2910W        W18984  16.971  18.171   0.635  0.1663 -0.3189 -0.0667
 2911W        W18985  14.039  11.621   4.086 -0.4702  0.2658 -0.3332
 2912W        W18986  17.561   3.329   4.834  0.2558 -0.0320  0.1198
 2913W        W18987   6.446  18.204  11.646 -0.1695 -0.0272 -0.2683
 2914W        W18988  17.798   1.143  11.674  0.0587  0.0991 -0.3157
 2915W        W18989  13.008   1.965   0.412 -0.1326 -0.1089 -0.1564
 2916W        W18990   9.047   8.988   6.339 -0.0633  0.1656  0.1442
 2917W        W18991  17.106   8.807   4.692 -0.1483  0.0124  0.0229
 2918W        W18992  11.178  11.011   1.996  0.0630  0.0060 -0.1240
 2919W        W18993  13.422  15.924   5.876  0.1620  0.2744  0.7320
 2920W        W18994  17.879   0.852   0.224  0.3130  0.0062 -0.0178
 2921W        W18995   9.972  12.055  14.808  0.2929  0.0091 -0.1915
 2922W        W18996   9.233   9.250   2.939 -0.0565 -0.1218  0.2908
 2923W        W18997   7.236   7.189   3.019  0.0640 -0.2425  0.0830
 2924W        W18998   0.117  14.717  13.888  0.0648 -0.1456  0.0786
 2925W        W18999   2.650  13.936   3.945 -0.0152 -0.0902  0.1463
 2926W        W19000   8.621   8.896   0.293 -0.0635 -0.1789  0.1007
 2927W        W19001  18.217   3.287  14.971 -0.2424 -0.2118 -0.1509
 2928W        W19002  17.275   0.613  14.466  0.0819 -0.0795 -0.0129
 2929W        W19003   6.004  11.048   2.783 -0.0275 -0.3038 -0.1178
 2930W        W19004  12.420   7.388   1.524 -0.2922 -0.1483 -0.1940
 2931W        W19005   2.029   7.654   2.158 -0.2504  0.0501 -0.2453
 2932W        W19006   3.496   9.705   2.936 -0.1239  0.1411  0.1376
 2933W        W19007   1.007   0.943   5.814 -0.3448  0.0049 -0.2150
 2934W        W19008   8.768  10.915   1.195  0.1662  0.0832 -0.1056
 2935W        W19009  13.567   1.680   4.046 -0.0341  0.0278  0.1608
 2936W        W19010  10.281   8.461  15.705 -0.0695  0.0199  0.1715
 2937W        W19011   7.198  12.261  15.264 -0.0081 -0.0212 -0.0472
 2938W        W19012   8.971   5.765   1.846  0.0966  0.0352  0.1190
 2939W        W19013  10.763   6.287  11.805 -0.0630 -0.0354 -0.0498
 2940W        W19014   5.287  15.124   4.095  0.1079 -0.0154  0.0254
 2941W        W19015  10.522  10.634   4.352  0.2435  0.1380  0.3176
 2942W        W19016   7.319  15.777  11.596 -0.0259 -0.2136  0.3511
 2943W        W19017   4.084  13.401  15.128  0.0817 -0.2053  0.2025
 2944W        W19018  15.652   6.334   6.004 -0.1571 -0.1671 -0.2293
 2945W        W19019   1.377  15.775   0.111  0.0172  0.2212  0.2530
 2946W        W19020   0.124   1.146   1.241  0.0862  0.1351  0.0614
 2947W        W19021  13.915   9.458  12.953 -0.1430  0.0358  0.2941
 2948W        W19022   1.896   1.386   4.133 -0.0770  0.2446 -0.0775
 2949W        W19023   0.313  14.411   3.096 -0.1770  0.1137  0.1369
 2950W        W19024   0.548   6.037   2.477 -0.1728  0.0313 -0.0091
 2951W        W19025  11.000   4.228  15.287 -0.2032  0.1321  0.0176
 2952W        W19026  12.783  10.564   5.773 -0.1599 -0.0165 -0.1133
 2953W        W19027   3.410  12.029   4.372 -0.1538  0.1427  0.2792
 2954W        W19028   7.023  11.853   2.987 -0.2538 -0.3342 -0.2087
 2955W        W19029  15.856   7.997   5.365 -0.0592  0.2243  0.2612
 2956W        W19030  11.973   6.441  12.477  0.1398  0.1640 -0.1153
 2957W        W19031  10.976   1.717   3.993 -0.1259  0.2017  0.2796
 2958W        W19032   8.167  10.372   3.817 -0.0550  0.1279  0.0323
 2959W        W19033   5.491  12.909   5.144 -0.0002 -0.1721  0.0807
 2960W        W19034   0.194   9.357  13.320  0.1942 -0.4096  0.0853
 2961W        W19035  16.324   2.595  14.609 -0.1734 -0.1453  0.0062
 2962W        W19036  12.943  12.255  15.225  0.0136 -0.0344  0.0696
 2963W        W19037   4.673  12.076  16.126  0.2152  0.0959 -0.1288
 2964W        W19038   3.504   9.230   3.196  0.3010  0.2362 -0.1976
 2965W        W19039  14.085   4.148   3.078 -0.0662 -0.0709  0.1461
 2966W        W19040   3.748  16.087  13.988 -0.3115 -0.3271 -0.2397
 2967W        W19041  11.256   2.836  11.836  0.3394  0.2021  0.3325
 2968W        W19042   8.910  13.965   1.234  0.5450 -0.1107  0.0039
 2969W        W19043  11.713   9.697  13.536 -0.0803  0.2367  0.1909
 2970W        W19044   3.996  16.692   3.193 -0.3263  0.1257  0.0438
 2971W        W19045  12.594   9.374   4.324  0.0191 -0.1010 -0.0185
 2972W        W19046   5.817  14.850   3.113 -0.2721 -0.1192  0.0051
 2973W        W19047  12.419   4.828   3.285 -0.1298 -0.1457  0.1172
 2974W        W19048  18.332   5.745   1.844  0.1132 -0.1188 -0.0996
 2975W        W19049  17.405   1.842   4.413 -0.1093  0.1012 -0.1163
 2976W        W19050   1.162  11.074   0.162  0.1290  0.0460  0.1723
 2977W        W19051   4.764  16.505  15.859  0.2536 -0.0922  0.0090
 2978W        W19052   9.583   8.690  16.372 -0.1989 -0.1104 -0.1141
 2979W        W19053  16.376   3.582   5.272 -0.0929  0.0328  0.0504
 2980W        W19054  11.697  15.000   2.722  0.1581  0.2192 -0.2021
 2981W        W19055   2.711   0.876   4.717 -0.0316  0.0616  0.0238
 2982W        W19056  17.997  14.012  15.584  0.1055  0.0162  0.2059
 2983W        W19057   8.193  17.228  16.221 -0.4403  0.2843 -0.2243
 2984W        W19058   0.388  11.135   5.587  0.1793 -0.0712  0.0553
 2985W        W19059   2.337  17.943   2.388 -0.0958  0.1073  0.0234
 2986W        W19060  12.051  15.361  13.690 -0.2686  0.0620  0.1670
 2987W        W19061   4.019   1.946  16.379  0.0998  0.2728 -0.2135
 2988W        W19062   9.372  10.458  11.890  0.2474  0.2404  0.0085
 2989W        W19063  14.994   2.535   6.248 -0.3237  0.2313 -0.0669
 2990W        W19064  10.411  10.270  14.380  0.0078 -0.3011 -0.0464
 2991W        W19065   2.691   6.052   3.914  0.1390 -0.2107  0.0201
 2992W        W19066   0.596  15.002   6.457  0.0024 -0.0677  0.1455
 2993W        W19067   6.155   8.492  15.093  0.0947  0.2660  0.1909
 2994W        W19068  17.595   5.539  14.746 -0.1318  0.0195  0.1250
 2995W        W19069   7.166  15.587   5.230 -0.0061 -0.1979  0.1631
 2996W        W19070   7.972  13.593   4.659  0.0095  0.2974 -0.1788
 2997W        W19071  17.966  11.672  12.734 -0.1466  0.3816  0.1161
 2998W        W19072  13.876   5.209   5.471  0.2454 -0.2582 -0.1492
 2999W        W19073   4.297   1.750   2.290 -0.1573 -0.0385  0.2041
 3000W        W19074  13.518   1.210   2.372 -0.0303  0.0991  0.1303
 3001W        W19075  12.559  15.485   1.097 -0.0617  0.3696  0.0010
 3002W        W19076  15.615   8.665   2.968 -0.6821  0.2754  0.0599
 3003W        W19077   4.670  10.379  11.609 -0.2817  0.0941  0.0120
 3004W        W19078  18.072   2.746  13.901 -0.1207  0.1066  0.0407
 3005W        W19079   4.216   5.896   0.660 -0.0278  0.0109  0.0470
 3006W        W19080   0.765   9.002  16.306  0.5349  0.0676 -0.3088
 3007W        W19081  10.333   4.726   5.014  0.1565 -0.0489  0.4453
 3008W        W19082   4.732   4.445   2.633  0.0671  0.2809 -0.1335
 3009W        W19083  16.581  15.747   4.727 -0.0248  0.0869 -0.0494
 3010W        W19084   3.726   9.605   0.080  0.1927 -0.4159  0.1082
 3011W        W19085   2.551   5.824  15.603 -0.0397  0.0751  0.0182
 3012W        W19086   8.174  16.011  10.630  0.1122 -0.5722 -0.0202
 3013W        W19087   4.104  16.165   5.215 -0.1418  0.0888  0.0067
 3014W        W19088   4.697   0.433   3.935 -0.2058 -0.1420 -0.0675
 3015W        W19089   7.861   2.861  15.513 -0.0501 -0.0504  0.0055
 3016W        W19090  12.723  11.762   3.216 -0.0088  0.4215  0.0861
 3017W        W19091   8.829  10.014   2.318  0.0574  0.1858 -0.1409
 3018W        W19092  16.467  15.081   1.554 -0.4692 -0.2938  0.0429
 3019W        W19093  12.127  12.798  15.675 -0.1076  0.0801  0.0341
 3020W        W19094  17.480  17.599  12.255  0.3397  0.1176 -0.0621
 3021W        W19095  16.903   3.551  13.286 -0.3476 -0.0464  0.0447
 3022W        W19096   8.255  10.477  12.212 -0.1075 -0.1808 -0.0328
 3023W        W19097  15.933  10.161  11.793  0.1600 -0.0921  0.3243
 3024W        W19098  11.302  14.921  12.806  0.2722 -0.2758  0.0481
 3025W        W19099  15.439  10.285   2.056  0.2189  0.2932 -0.0890
 3026W        W19100   7.189  11.006   0.769  0.1211 -0.1724  0.2519
 3027W        W19101  15.869  10.717   2.984  0.1073  0.5583 -0.0159
 3028W        W19102  13.873  13.926   2.852 -0.1968  0.2092  0.2803
 3029W        W19103   4.126  14.684   4.645 -0.4036  0.1659  0.2064
 3030W        W19104  15.440   8.495   1.749  0.1875  0.1273 -0.0743
 3031W        W19105  13.776   5.296   4.126  0.0286  0.1499 -0.0162
 3032W        W19106  13.454   9.909   0.116 -0.0684  0.5585  0.1748
 3033W        W19107   1.220   2.824  12.714 -0.0850  0.3633  0.2208
 3034W        W19108   2.675  15.651   4.165  0.0647 -0.0570  0.2694
 3035W        W19109   9.769   0.243  13.085 -0.1171 -0.0802 -0.3933
 3036W        W19110   5.043   7.281   1.610  0.3484 -0.2936 -0.0909
 3037W        W19111  13.055   1.700   3.970 -0.1611 -0.0918 -0.0902
 3038W        W19112  16.108   0.993   0.017  0.2309  0.0432 -0.1303
 3039W        W19113   0.977  16.189  13.647  0.2427 -0.3666 -0.2982
 3040W        W19114   0.986  15.860   1.024  0.0325 -0.0608  0.2747
 3041W        W19115  15.806  17.995   4.140 -0.0617  0.0516 -0.1036
 3042W        W19116  12.332  11.023   5.886  0.0581  0.3650  0.1189
 3043W        W19117   1.717  16.580   1.748 -0.0700 -0.0494  0.0015
 3044W        W19118   9.838   9.395   3.324  0.1537 -0.0134 -0.0265
 3045W        W19119   5.279   8.886   3.103  0.2412 -0.1556 -0.1711
 3046W        W19120   1.702  12.488   1.287  0.0714  0.0040  0.0193
 3047W        W19121   4.739  15.968  14.172  0.0209  0.3875  0.2713
 3048W        W19122  12.598   4.220  15.200 -0.2827 -0.1136 -0.3170
 3049W        W19123  16.246  10.199  13.546  0.1932  0.3107 -0.1022
 3050W        W19124   8.180  15.440   4.145 -0.2872  0.0376 -0.0021
 3051W        W19125  15.701  14.679   4.662 -0.0452 -0.1564 -0.1197
 3052W        W19126   0.332  12.813  13.848 -0.4283 -0.2999 -0.3306
 3053W        W19127   8.281  10.832   2.075  0.0204  0.1193  0.1008
 3054W        W19128  12.571   8.776  16.038 -0.1401  0.2648 -0.0235
 3055W        W19129   9.594   2.097  12.172  0.3204 -0.0747  0.0335
 3056W        W19130  10.086   8.589  12.152  0.1084  0.1549  0.2451
 3057W        W19131  10.745  15.884  12.118 -0.2762 -0.1152  0.1934
 3058W        W19132  16.357   1.828   1.413  0.1033 -0.2304  0.2048
 3059W        W19133  14.155  10.664   1.357 -0.4624  0.1272 -0.0346
 3060W        W19134  12.173   6.744   5.656 -0.0225 -0.2230 -0.0002
 3061W        W19135  10.470   6.976   4.736  0.1436  0.1313  0.1546
 3062W        W19136  13.461   7.356  15.812 -0.1086  0.1006  0.2955
 3063W        W19137   0.088   0.803  12.056  0.2703  0.3842  0.3069
 3064W        W19138   5.106   3.246   5.190  0.0124  0.0031  0.0260
 3065W        W19139   1.691   9.317  16.066 -0.1840  0.2291  0.0441
 3066W        W19140   9.469  10.970   0.372  0.1786  0.3600  0.0548
 3067W        W19141  14.475   8.363  14.516  0.2824  0.3540 -0.3588
 3068W        W19142  16.131   0.452  12.896 -0.0545 -0.2484  0.0357
 3069W        W19143   9.475  14.977  11.429  0.1019  0.1774  0.3182
 3070W        W19144   7.825   0.351  11.386  0.0228 -0.0360 -0.0421
 3071W        W19145  16.336   9.318  16.195  0.3784  0.0223  0.0779
 3072W        W19146  10.751   8.200  15.914  0.0122 -0.0090 -0.0704
 3073W        W19147  16.186   5.682   1.095  0.1644  0.0185 -0.0410
 3074W        W19148   8.937   6.241   4.445 -0.0574  0.3974  0.3338
 3075W        W19149   6.130  13.643   1.648  0.1778  0.1205 -0.0461
 3076W        W19150  18.057   6.663   0.339  0.0364  0.1196  0.0212
 3077W        W19151   3.221  15.791   0.831 -0.0730 -0.1575 -0.1244
 3078W        W19152  15.815  13.711   4.582  0.0575 -0.0733 -0.2841
 3079W        W19153  16.944  18.232  12.326  0.1618  0.1004 -0.0890
 3080W        W19154   2.028   5.147  15.139  0.3073  0.1976 -0.0734
 3081W        W19155  16.751   0.535  13.786  0.1388  0.2123  0.1103
 3082W        W19156   2.085  10.224  14.711 -0.1607  0.0640 -0.2119
 3083W        W19157  13.329   0.934   0.024  0.3372 -0.2122  0.1078
 3084W        W19158   3.284  13.199   1.974 -0.0235  0.3787 -0.2297
 3085W        W19159   9.723   3.995  12.630 -0.0967  0.1460  0.1549
 3086W        W19160  11.737   1.110   3.404  0.0381  0.5492 -0.0655
 3087W        W19161   2.858  17.736   0.784 -0.5786  0.1837 -0.1449
 3088W        W19162   0.171  18.293  12.622  0.3681  0.1137  0.0330
 3089W        W19163  16.226  13.211  13.923 -0.0557  0.0541  0.1285
 3090W        W19164   2.622  11.294   4.934 -0.0657 -0.0678  0.1572
 3091W        W19165  13.957  17.396  15.461 -0.1201  0.0701 -0.0055
 3092W        W19166   3.743   3.746  11.741 -0.0335  0.5544  0.0590
 3093W        W19167   8.715  13.125   0.815 -0.1654 -0.1762 -0.3969
 3094W        W19168  12.365   0.634   5.159  0.0059  0.3386  0.0095
 3095W        W19169  14.357  13.322   1.838 -0.0148  0.0611  0.0270
 3096W        W19170   5.115   5.955   4.612  0.1215 -0.0034  0.1832
 3097W        W19171   2.322   1.046   4.212  0.1672 -0.2010 -0.6427
 3098W        W19172  17.161  14.452  12.987  0.5395  0.2430 -0.0778
 3099W        W19173  12.855   4.479   5.266  0.2997 -0.2118  0.1689
 3100W        W19174  11.221   6.760   2.607 -0.1381  0.1892 -0.0068
 3101W        W19175   3.190  10.537  12.476 -0.3539  0.3759 -0.1120
 3102W        W19176   1.133  13.794   2.875 -0.1884 -0.0079 -0.0558
 3103W        W19177   3.866   0.022   0.075 -0.1369  0.1399  0.1948
 3104W        W19178   7.283  11.358   0.008 -0.0460 -0.0123 -0.1831
 3105W        W19179   6.438  10.747  16.115  0.0447 -0.1491  0.1059
 3106W        W19180  12.545   7.765  13.458 -0.2670 -0.0991 -0.1752
 3107W        W19181   9.776   6.679   1.066 -0.0720 -0.0078  0.4256
 3108W        W19182   0.683   3.917   1.942 -0.0906 -0.1412 -0.1011
 3109W        W19183   8.937   1.529   4.079  0.5105 -0.0962  0.0074
 3110W        W19184   4.216   6.981   2.425 -0.0609  0.1421 -0.0878
 3111W        W19185   8.699  17.008   5.268  0.3040 -0.2845 -0.2079
 3112W        W19186  10.582  16.796  12.380  0.2068  0.3912 -0.0130
 3113W        W19187  18.072  11.957  14.555  0.2935  0.0569 -0.3125
 3114W        W19188  11.893   9.718   0.020 -0.1010  0.1427  0.0826
 3115W        W19189   4.337   1.961   3.656  0.1860 -0.3304 -0.0823
 3116W        W19190  17.483  14.821  15.806 -0.0596 -0.0841 -0.4137
 3117W        W19191   4.635   8.448   1.650 -0.1812 -0.0777 -0.3913
 3118W        W19192   6.849  10.337   1.993 -0.0092 -0.2942 -0.3862
 3119W        W19193  12.649   1.756  11.646  0.0101 -0.5419  0.1510
 3120W        W19194   5.593  16.967   4.454  0.1333  0.1017 -0.2797
 3121W        W19195  13.789  15.179  16.334 -0.4155 -0.1260  0.2747
 3122W        W19196   8.941  13.227   5.007  0.0759 -0.4860  0.1109
 3123W        W19197  13.828  15.658  15.377  0.0389  0.0891  0.0037
 3124W        W19198   0.847   1.552   1.064 -0.2240 -0.1431  0.0300
 3125W        W19199  16.197  15.896  14.496 -0.1197  0.0273  0.1699
 3126W        W19200   6.623   2.446  14.842  0.0576 -0.0143  0.2597
 3127W        W19201   8.014   5.569  14.106  0.1192 -0.1434  0.3154
 3128W        W19202   0.022   2.264  15.754  0.1433  0.2291 -0.2899
 3129W        W19203   7.635  12.196  13.801 -0.1884 -0.0415  0.0444
 3130W        W19204   7.769  11.368  12.046  0.0873  0.0561 -0.0087
 3131W        W19205  14.866  11.623  13.001  0.0422  0.1324 -0.0358
 3132W        W19206   6.069   1.106  15.529 -0.1943  0.1100  0.1129
 3133W        W19207   1.735   1.462  13.976 -0.0048  0.2506 -0.4542
 3134W        W19208  10.333   1.041  11.163 -0.1584  0.2013  0.1311
 3135W        W19209  16.872  10.055  13.114 -0.0338 -0.0609 -0.0662
 3136W        W19210  14.143  12.826  12.456  0.2828 -0.1565  0.0493
 3137W        W19211   2.287   7.090   1.099  0.0403 -0.2899  0.0321
 3138W        W19212  14.749  18.231   0.759 -0.2630  0.0703 -0.1601
 3139W        W19213  16.478  17.668   2.044 -0.0153  0.1696  0.0325
 3140W        W19214   8.486   6.561   3.575 -0.1133 -0.0875  0.0238
 3141W        W19215   5.343  14.108   1.842  0.3493 -0.1482 -0.2703
 3142W        W19216   1.837  11.670  13.621 -0.0424  0.2083  0.3731
 3143W        W19217   8.454   9.412  16.214 -0.0658  0.2898  0.1280
 3144W        W19218  16.793  16.987   0.653  0.0453 -0.0865  0.0966
 3145W        W19219   4.461   2.817   1.056 -0.3242  0.0008 -0.1760
 3146W        W19220   3.855  10.285   2.303  0.3467 -0.2608  0.3394
 3147W        W19221  14.676   7.770   3.777  0.0779 -0.1209 -0.1472
 3148W        W19222   8.089  12.079   3.448  0.2025 -0.2840  0.0013
 3149W        W19223   4.775   7.426  11.722 -0.0252  0.0213  0.2634
 3150W        W19224   8.727   6.772  16.086  0.0656  0.0057  0.1813
 3151W        W19225   2.143  16.498  13.035  0.1103 -0.1517  0.0374
 3152W        W19226   3.460   4.365   4.970  0.2096 -0.0546  0.0757
 3153W        W19227   1.898   9.951  13.821 -0.0216 -0.0022 -0.2162
 3154W        W19228  18.183   6.351  16.241  0.2544 -0.0077  0.2484
 3155W        W19229   3.668  10.598  13.838 -0.1845  0.1037  0.0789
 3156W        W19230   2.826   6.999  16.046  0.0329  0.1909 -0.1054
 3157W        W19231   5.922  10.042   5.519 -0.4613 -0.0705 -0.0019
 3158W        W19232   4.379   9.404  11.791 -0.1247  0.0208 -0.0679
 3159W        W19233  14.818   4.465   3.409  0.0608  0.4279  0.0479
 3160W        W19234   1.943   0.110  15.846  0.0430 -0.4252  0.3359
 3161W        W19235   3.672   8.927  11.123  0.0898  0.1125  0.0583
 3162W        W19236   5.881   6.518  14.399  0.0721  0.2058 -0.3272
 3163W        W19237  13.005  10.666   5.194  0.0533 -0.0688 -0.1458
 3164W        W19238  16.184  13.928   2.576 -0.1252 -0.2066 -0.0464
 3165W        W19239  10.679  15.716  15.418  0.0089 -0.0678  0.2169
 3166W        W19240  12.029  10.349   4.847  0.1165 -0.0497 -0.1018
 3167W        W19241   3.367   5.712  15.398  0.3559  0.1725  0.0240
 3168W        W19242  14.898  18.239   5.508  0.0860  0.1743  0.1679
 3169W        W19243   5.453   9.804   3.357 -0.0315  0.0076 -0.1400
 3170W        W19244  14.996  15.357  11.878 -0.0519  0.0552 -0.2686
 3171W        W19245  12.517  13.556  13.791 -0.1072  0.1811  0.1552
 3172W        W19246  12.164   5.395   0.973  0.0242  0.2108 -0.2644
 3173W        W19247   0.741   9.542  10.278 -0.0568 -0.1788 -0.4467
 3174W        W19248   0.347   5.865  11.005 -0.0620  0.1777 -0.2065
 3175W        W19249   2.046  13.401   4.263  0.2770  0.0945  0.0486
 3176W        W19250  10.712  16.187   1.412 -0.0531 -0.0051  0.0660
 3177W        W19251  13.127   1.786  14.415 -0.1521 -0.2384 -0.1013
 3178W        W19252  18.086   5.125  12.651 -0.1134  0.1812  0.2697
 3179W        W19253  10.712   1.315  13.682  0.0129  0.0315  0.3471
 3180W        W19254   6.475   8.843   5.065 -0.0985 -0.3059  0.0994
 3181W        W19255  14.023  16.168  16.057  0.2524 -0.2897 -0.2493
 3182W        W19256  12.239   8.411  14.357  0.2519 -0.1889 -0.4229
 3183W        W19257   4.989  15.503  14.049 -0.3166  0.2224  0.0643
 3184W        W19258  16.901  14.533   4.066 -0.1891 -0.2452  0.1720
 3185W        W19259   2.324   6.552   3.950  0.1345  0.0613  0.4067
 3186W        W19260   7.601   9.628   4.219 -0.3414 -0.1919 -0.0114
 3187W        W19261  17.094  14.744   2.640 -0.0778  0.1837 -0.2476
 3188W        W19262  17.014   6.484   4.509  0.2275  0.0975 -0.2021
 3189W        W19263   4.792  10.189  15.502 -0.4480  0.0273 -0.0066
 3190W        W19264   3.843   1.195  13.165  0.0192  0.1183  0.3133
 3191W        W19265   7.906  16.774  11.685  0.1029  0.3361  0.0753
 3192W        W19266   1.293   8.535   0.677 -0.0065  0.1015 -0.0692
 3193W        W19267   8.024   4.585  13.151 -0.0625 -0.2472 -0.2949
 3194W        W19268  12.979   5.408  11.747 -0.0977  0.1580 -0.1028
 3195W        W19269   9.215   0.100   2.155  0.1483  0.3164 -0.0287
 3196W        W19270  11.384  18.107   1.951  0.1103 -0.0625 -0.2247
 3197W        W19271  17.927   1.633   4.433 -0.1164 -0.0745  0.0006
 3198W        W19272   1.757   7.303  13.160  0.1343  0.0554 -0.0224
 3199W        W19273  17.052  17.055  11.678 -0.2791 -0.0037  0.0550
 3200W        W19274  14.861  15.361   4.833  0.2352 -0.0734 -0.1139
 3201W        W19275   9.069   1.119   1.032 -0.1483  0.3855  0.0702
 3202W        W19276  14.421  14.452   3.713 -0.0698  0.2150  0.1591
 3203W        W19277  14.572  16.906  15.482 -0.1563  0.0016  0.1060
 3204W        W19278  12.525   9.845   2.774  0.4741 -0.1890 -0.2795
 3205W        W19279   4.966  15.257  13.614 -0.2346 -0.1658 -0.0692
 3206W        W19280  12.115  11.113  15.372 -0.1901  0.0200  0.3663
 3207W        W19281   9.163   4.191   0.045  0.0268 -0.1447 -0.0637
 3208W        W19282  12.160   3.732   3.039  0.2273 -0.1405  0.2046
 3209W        W19283   1.278  14.431   2.236  0.1365  0.0441  0.1058
 3210W        W19284   1.647   5.086   1.604  0.0842 -0.0442 -0.0636
 3211W        W19285   6.728   7.380   3.275  0.0189 -0.0557  0.1108
 3212W        W19286   4.306  14.193  14.394 -0.2495 -0.1495  0.2706
 3213W        W19287   5.893   2.197   2.349 -0.2401 -0.2426  0.1108
 3214W        W19288   1.159   4.489   1.240  0.0028 -0.1110  0.0626
 3215W        W19289   2.612  18.317  14.986  0.1754  0.2028 -0.3550
 3216W        W19290   4.735   1.544   3.465  0.1689  0.2265 -0.2359
 3217W        W19291   1.764   8.218  14.991 -0.0361 -0.1081  0.2601
 3218W        W19292   4.743  13.907  11.876  0.0092 -0.2785 -0.0523
 3219W        W19293   7.398   0.547   1.501 -0.2183  0.0330  0.1477
 3220W        W19294  12.558   0.179  13.681 -0.0208  0.1658  0.0674
 3221W        W19295  12.297  13.300   2.328 -0.1284 -0.0648 -0.1888
 3222W        W19296  15.768  17.253   2.216  0.2032  0.1393 -0.0744
 3223W        W19297  10.544  13.702  16.361  0.1024 -0.1164 -0.4433
 3224W        W19298  14.048   0.012   2.532 -0.2579 -0.0173  0.0374
 3225W        W19299   0.548   8.630  15.979  0.1896  0.1732 -0.0332
 3226W        W19300   1.612   4.264   3.853 -0.1000  0.6545  0.5230
 3227W        W19301   0.154  17.221  15.236 -0.0370 -0.1867  0.0663
 3228W        W19302  15.499  13.098  11.290 -0.2568  0.2481  0.1932
 3229W        W19303  14.619   5.782  15.431  0.0248  0.1245 -0.4085
 3230W        W19304  17.722  10.611   5.524 -0.0308  0.0997 -0.2482
 3231W        W19305   7.168   4.709   3.356 -0.2577 -0.0094  0.1954
 3232W        W19306  17.057  13.213  14.270  0.0035  0.0507  0.0314
 3233W        W19307  18.261   5.248  15.991  0.3008  0.1060 -0.2460
 3234W        W19308   8.854  15.249  13.181  0.0890 -0.2581 -0.1158
 3235W        W19309   8.365  15.038  14.147  0.3706 -0.3591  0.0308
 3236W        W19310   1.511  16.720   0.754  0.0916  0.0238  0.1088
 3237W        W19311  15.145  17.124   0.439  0.3028 -0.2282 -0.0966
 3238W        W19312   4.029   9.419  15.166  0.1923  0.2052 -0.1355
 3239W        W19313   5.706  10.673  11.799 -0.3367  0.2081  0.1331
 3240W        W19314   5.983   4.988  12.060 -0.1082  0.0131  0.3759
 3241W        W19315  17.553   2.245  15.093  0.2229  0.1071  0.0373
 3242W        W19316   6.225   3.398  13.901  0.0525  0.2225  0.3418
 3243W        W19317  12.688   1.072  13.291 -0.1240 -0.2034 -0.0655
 3244W        W19318   2.355  17.533   4.209  0.0130 -0.0900 -0.0121
 3245W        W19319  16.743  11.547  15.671 -0.0986 -0.1087  0.2328
 3246W        W19320   5.100   6.957   3.371  0.0299  0.3643 -0.0611
 3247W        W19321   6.086   4.643  13.944  0.1298 -0.0082  0.0317
 3248W        W19322  12.425  16.263  14.362 -0.1518 -0.0025  0.0922
 3249W        W19323  17.679   2.054  11.667  0.2260  0.1304  0.1145
 3250W        W19324   6.954  18.147   1.760  0.5218 -0.0682  0.0121
 3251W        W19325  11.564   1.220  14.752  0.1532 -0.0747 -0.1776
 3252W        W19326  12.379   6.270  11.693 -0.0005 -0.0115 -0.1692
 3253W        W19327  12.344   0.719   2.301  0.1830  0.0641  0.0258
 3254W        W19328   5.059  17.875   4.460 -0.0347 -0.0682 -0.0050
 3255W        W19329   7.959   5.368  11.069 -0.0537 -0.0311 -0.2093
 3256W        W19330  14.734   6.858  15.567 -0.3285  0.1832  0.0527
 3257W        W19331  11.427   1.394  11.939 -0.0955  0.3049  0.2072
 3258W        W19332  10.700   6.945  11.541 -0.2215  0.1905 -0.0696
 3259W        W19333   5.816   2.725  11.892  0.2819  0.0796 -0.0926
 3260W        W19334   5.292   3.939   4.144  0.5611  0.2327 -0.0011
 3261W        W19335  10.123  12.458   2.729  0.0759  0.3296 -0.0602
 3262W        W19336  11.188   4.871   0.951 -0.1399  0.1299 -0.0707
 3263W        W19337   6.820  11.485   5.348  0.0719 -0.3186 -0.0880
 3264W        W19338  13.833   9.162  15.595 -0.2219  0.1273 -0.1553
 3265W        W19339   6.204  10.020  13.937 -0.2442  0.2085 -0.0415
 3266W        W19340  17.335   2.430   4.035 -0.0970 -0.4483 -0.2458
 3267W        W19341   6.839   6.543  11.216 -0.0434  0.0972  0.0937
 3268W        W19342   3.966  17.408   1.818 -0.0220  0.2585 -0.0905
 3269W        W19343  18.232  12.877   4.940 -0.4463 -0.1254  0.0263
 3270W        W19344  11.058  11.418   1.346 -0.0662  0.1434 -0.2694
 3271W        W19345  13.024  11.871  13.265 -0.2078  0.0724  0.0785
 3272W        W19346  12.325  15.567   3.367 -0.0886  0.0223 -0.0472
 3273W        W19347  11.966  18.267   3.120 -0.0109 -0.1254 -0.2977
 3274W        W19348  14.820   1.419   2.967 -0.0731  0.0195  0.0259
 3275W        W19349   3.594   5.404   0.977  0.0602  0.2093  0.1151
 3276W        W19350  11.902   4.486   6.156 -0.0288 -0.3897 -0.1619
 3277W        W19351   6.253   0.490  16.151  0.0548  0.1068 -0.3224
 3278W        W19352   7.390  14.333  12.206  0.1306  0.0180 -0.0859
 3279W        W19353  16.894  17.567  14.883  0.2272  0.2236 -0.0146
 3280W        W19354   3.839   3.227   4.186  0.2126  0.0112  0.2862
 3281W        W19355   1.093  17.406   3.164 -0.1710  0.1397 -0.0274
 3282W        W19356  10.144   3.479  10.119 -0.1029 -0.0491 -0.2052
 3283W        W19357  14.676   1.104   3.307  0.0952  0.1180 -0.0824
 3284W        W19358   0.475  18.101  14.179 -0.0005 -0.1406 -0.0698
 3285W        W19359  11.240  14.855  15.254  0.1553 -0.2002  0.3170
 3286W        W19360   8.281   9.094  15.807  0.3352 -0.0212 -0.0306
 3287W        W19361   0.428  13.378  14.972  0.1164 -0.1099 -0.1061
 3288W        W19362  17.367   2.196   2.320 -0.4341 -0.0842 -0.1508
 3289W        W19363   6.953   9.053   0.511 -0.1367  0.1589 -0.0135
 3290W        W19364   3.025  11.602  14.249  0.2282 -0.0852  0.0744
 3291W        W19365   5.683   0.018   3.640  0.2435 -0.0930 -0.1388
 3292W        W19366  17.453  12.208  13.330 -0.1573 -0.2488  0.2218
 3293W        W19367   9.080  12.245   0.287 -0.0001  0.0500  0.1107
 3294W        W19368   6.718  15.675   4.325  0.1700 -0.2284 -0.0464
 3295W        W19369   2.325  14.069   2.066 -0.1493  0.0834 -0.3787
 3296W        W19370  15.410   5.990   4.461 -0.0339  0.1115 -0.4597
 3297W        W19371  15.052   4.863  12.797 -0.0779 -0.0815  0.1038
 3298W        W19372   0.453  11.486   2.569  0.3080  0.0883  0.2581
 3299W        W19373   3.809   6.032  15.803 -0.3829  0.1619  0.3106
 3300W        W19374  12.607  13.467  13.340 -0.0357  0.0189 -0.0075
 3301W        W19375  15.751  17.622  11.993  0.0041 -0.1216 -0.4185
 3302W        W19376   9.533  16.426   2.784 -0.0854  0.0152  0.3524
 3303W        W19377   6.730  11.901   4.118 -0.3187 -0.0817 -0.1053
 3304W        W19378   7.909  12.427  15.851  0.2603 -0.2773  0.0212
 3305W        W19379  10.778  12.944  16.317 -0.2878  0.2742  0.1237
 3306W        W19380  17.088  16.057   0.164 -0.1950  0.0612  0.2424
 3307W        W19381   9.157   9.856   0.024  0.1101  0.3656  0.0961
 3308W        W19382   4.496   1.357  15.761 -0.1975  0.0044 -0.1442
 3309W        W19383   8.959  17.120   3.956 -0.3540 -0.3400  0.0541
 3310W        W19384   8.608   3.309  12.607 -0.3200  0.0854 -0.1362
 3311W        W19385   3.315   4.281   3.028 -0.2086 -0.1514 -0.0486
 3312W        W19386   9.340   7.560   2.210 -0.0865  0.1295 -0.1563
 3313W        W19387   4.235   6.763  15.121 -0.2499  0.2139  0.1235
 3314W        W19388  16.203   3.338  14.016  0.0844 -0.3625  0.1146
 3315W        W19389   2.578  15.415  12.121 -0.2887 -0.1346  0.0837
 3316W        W19390  12.933   9.381   2.711  0.2471  0.2607 -0.2922
 3317W        W19391   2.080   1.335  15.708 -0.3508 -0.1292  0.2811
 3318W        W19392   3.675   1.956   0.333 -0.0446 -0.0070  0.0855
 3319W        W19393   4.226   1.541   3.415 -0.0468  0.0689 -0.1736
 3320W        W19394   8.789   5.615   3.415  0.1478  0.0072  0.0732
 3321W        W19395  11.165  16.382   3.055 -0.1951  0.2221 -0.0415
 3322W        W19396   5.738   5.860   2.035 -0.1512 -0.0035  0.1212
 3323W        W19397  16.025  11.041  15.654 -0.0709  0.0109 -0.0894
 3324W        W19398   3.444   7.344  11.201 -0.1388  0.0735 -0.0205
 3325W        W19399  14.636  11.321  12.038  0.1590  0.3750  0.1664
 3326W        W19400   9.687   7.252  15.910  0.0301  0.1698  0.1333
 3327W        W19401  15.960   2.198   5.206  0.0034  0.0194  0.0923
 3328W        W19402   0.131   1.075  13.039  0.5043 -0.0868 -0.3595
 3329W        W19403  15.725  10.231  13.155  0.2739 -0.0198  0.2262
 3330W        W19404  11.566  17.946   2.369  0.1181  0.4165 -0.1915
 3331W        W19405  13.077  14.607   5.302 -0.0580 -0.2850 -0.0825
 3332W        W19406   5.183  15.099  15.027 -0.1156  0.1379  0.0632
 3333W        W19407  16.262   0.710   3.416 -0.1748  0.4698  0.1153
 3334W        W19408  12.852   8.951  12.674  0.0943  0.3234 -0.0110
 3335W        W19409  12.227  14.539   1.730  0.1132  0.2834  0.0661
 3336W        W19410  18.149  17.543   0.162  0.2840 -0.3743 -0.1908
 3337W        W19411   9.197   9.970  14.748  0.1790  0.0632 -0.0982
 3338W        W19412   9.132  18.222   1.191 -0.0979 -0.0819  0.0433
 3339W        W19413  16.280   5.039   6.233  0.0378  0.0827  0.2066
 3340W        W19414   7.257   0.638   5.403  0.1236 -0.1548  0.1819
 3341W        W19415  18.002  17.487   2.023 -0.0015 -0.1581 -0.2877
 3342W        W19416  12.109  11.766   1.606 -0.1348  0.1628  0.1256
 3343W        W19417   8.729  14.335   0.331  0.2525 -0.2864 -0.2326
 3344W        W19418  14.248  10.150  14.834 -0.0521  0.1772 -0.0089
 3345W        W19419  17.450   1.071  14.709  0.5448  0.1723  0.0485
 3346W        W19420  10.197   8.332   3.056  0.1300  0.3404  0.4004
 3347W        W19421  17.548  16.040   2.944 -0.0464  0.0010  0.1342
 3348W        W19422   8.231   1.924  13.444  0.1780 -0.1654 -0.0299
 3349W        W19423   8.691   5.946  13.826 -0.0656 -0.4271  0.5503
 3350W        W19424   9.085   0.355   2.550  0.2619 -0.1983 -0.2727
 3351W        W19425  17.449   7.077   5.296  0.1590  0.0376 -0.1672
 3352W        W19426   0.835   0.625  12.127 -0.0602  0.0660  0.0358
 3353W        W19427  17.460   2.863  10.531 -0.0357  0.2731  0.2569
 3354W        W19428  10.187  10.272   0.707  0.0414 -0.1101 -0.1242
 3355W        W19429  15.513   0.711   4.779 -0.0203  0.2585  0.1666
 3356W        W19430  15.778   4.916   6.302  0.2541 -0.0827 -0.2029
 3357W        W19431   7.495   1.982   0.684  0.3101  0.0915 -0.1344
 3358W        W19432   4.263  11.435   1.144  0.0368  0.0825  0.1229
 3359W        W19433  11.554   9.295   5.224 -0.0294  0.0631  0.0385
 3360W        W19434  14.151   6.375  14.110  0.0051  0.0088 -0.4153
 3361W        W19435  10.183   7.495  15.817  0.0970 -0.3463  0.0013
 3362W        W19436  11.805   8.766  14.986 -0.2449  0.0629 -0.2035
 3363W        W19437   1.339   2.572  14.339  0.1168  0.1774  0.0474
 3364W        W19438  17.482   7.294   0.630 -0.3777 -0.0259  0.1840
 3365W        W19439  14.488   8.576   3.327  0.0403  0.2646 -0.2922
 3366W        W19440  12.640  15.279  16.111  0.0148  0.0257 -0.2409
 3367W        W19441  15.695   7.422   1.933  0.2556  0.2302 -0.1316
 3368W        W19442  16.428   8.856   5.186  0.1390 -0.1368 -0.3490
 3369W        W19443  15.728   6.073  16.277 -0.1923 -0.2227  0.0758
 3370W        W19444  11.569   2.743   0.959  0.1304  0.1625 -0.2532
 3371W        W19445   3.092   6.122   5.987  0.2254 -0.2817  0.2223
 3372W        W19446  16.937   8.859  15.350 -0.0178 -0.0610  0.0000
 3373W        W19447   6.197   9.338  14.994 -0.0719 -0.1159  0.0551
 3374W        W19448   0.625   4.675   5.543  0.2143  0.2624 -0.0487
 3375W        W19449   0.694  12.485   1.315 -0.2170 -0.2373  0.2004
 3376W        W19450   2.889   1.611  15.334  0.0955  0.0708 -0.1531
 3377W        W19451   6.932  16.815  16.113 -0.0652 -0.0603 -0.0098
 3378W        W19452  13.588   4.914  15.955 -0.1246 -0.1729  0.0781
 3379W        W19453   4.364  11.525  10.950  0.0968  0.4491  0.2011
 3380W        W19454   9.813  11.658   0.342 -0.0504  0.3250 -0.1081
 3381W        W19455   1.473  15.038  11.272  0.0644  0.0498  0.3479
 3382W        W19456  10.833  15.609  15.929 -0.2475 -0.0711 -0.1873
 3383W        W19457  18.268   6.643  13.918  0.0005 -0.0417  0.4236
 3384W        W19458   7.746   0.962  15.641 -0.0996 -0.1109 -0.3152
 3385W        W19459   9.730   0.400   4.660 -0.1700  0.1389 -0.2467
 3386W        W19460   8.096   2.532  14.527  0.0028  0.0244  0.1606
 3387W        W19461   2.445   7.133   0.011  0.5077  0.0727  0.0941
 3388W        W19462  10.723  17.918  13.985  0.4543 -0.1186 -0.0957
 3389W        W19463   6.294  15.836  12.766  0.0859 -0.0417  0.0972
 3390W        W19464   4.543  16.532   2.365 -0.1316  0.3967 -0.2478
 3391W        W19465   2.393   6.696  16.151  0.3625 -0.2557 -0.1080
 3392W        W19466   4.333   9.955  15.756  0.1551 -0.0120 -0.1231
 3393W        W19467   4.393  17.590  12.630 -0.0299  0.1068  0.0237
 3394W        W19468   5.700  15.927  13.553  0.4629 -0.3059 -0.0329
 3395W        W19469  16.546   7.360  13.725 -0.2159 -0.1288 -0.3008
 3396W        W19470  13.240  11.195  13.411  0.1074 -0.0183 -0.1918
 3397W        W19471  15.431   3.888   4.773  0.0845  0.3675 -0.1715
 3398W        W19472  11.507  11.502  16.210 -0.2156 -0.2746  0.1274
 3399W        W19473   3.625   6.490   5.913  0.0334 -0.0513 -0.0487
 3400W        W19474   0.156   7.979  13.363  0.1569 -0.0202  0.0802
 3401W        W19475   9.463   9.543  13.719 -0.0941 -0.0114 -0.0722
 3402W        W19476   9.346   5.411  15.108  0.0262 -0.2238 -0.0311
 3403W        W19477  13.763   9.883  13.213 -0.2120  0.3903  0.0333
 3404W        W19478   9.625  16.569  13.624 -0.1220  0.2798  0.2067
 3405W        W19479   9.621   9.274   1.171  0.1085  0.0172 -0.4069
 3406W        W19480  11.910  10.804  14.955 -0.1633  0.1288  0.1262
 3407W        W19481   8.234   8.515  12.279 -0.0285  0.2535 -0.0628
 3408W        W19482  17.114   6.961   4.391 -0.2371  0.2128  0.2095
 3409W        W19483  13.859   3.834  11.644 -0.1557  0.0302 -0.0953
 3410W        W19484  12.499  10.221   0.191 -0.0620  0.0860  0.0370
 3411W        W19485   7.806  10.471   3.272  0.0016 -0.0124  0.0362
 3412W        W19486  14.495   8.325   3.786 -0.0833  0.2357  0.1606
 3413W        W19487   7.721   1.242  16.067  0.1933  0.3199 -0.1217
 3414W        W19488  12.532   2.873  10.733 -0.1491  0.4426 -0.2572
 3415W        W19489   3.838   6.803  14.756 -0.3548  0.1982 -0.0541
 3416W        W19490  18.020   6.582  15.865  0.1069 -0.1017  0.2579
 3417W        W19491   3.861  11.691  11.702 -0.0162 -0.1773  0.0597
 3418W        W19492   5.885   1.233   2.419  0.4780  0.0536 -0.1509
 3419W        W19493   8.958   9.690   5.429  0.0946  0.0741  0.4620
 3420W        W19494  15.174  17.942   0.774  0.2265  0.0289 -0.0948
 3421W        W19495  13.869  15.808   1.412  0.0477 -0.3621  0.4452
 3422W        W19496  11.211   0.924  14.412 -0.0280 -0.3325  0.0963
 3423W        W19497  11.274   6.030  15.418  0.3251 -0.0248 -0.1462
 3424W        W19498  16.126  11.417  16.325  0.1495  0.2229  0.0702
 3425W        W19499  14.869   3.300  13.491  0.1573  0.0866  0.4389
 3426W        W19500  17.384   3.954   0.200  0.3313  0.1787  0.1432
 3427W        W19501   4.617   6.792   0.474  0.1813 -0.0525 -0.0798
 3428W        W19502   5.629  14.876   0.014  0.0635 -0.0613  0.2241
 3429W        W19503   8.837   2.022   0.930  0.4916  0.1649 -0.1150
 3430W        W19504  18.222  13.191   2.207 -0.1123  0.1829  0.0320
 3431W        W19505  11.741  14.830  11.369 -0.1582 -0.1734  0.1742
 3432W        W19506   2.750   0.215   0.550 -0.1286  0.1157 -0.0207
 3433W        W19507   6.984   2.895   4.556 -0.1863 -0.3295 -0.0175
 3434W        W19508  16.850   5.243  11.386  0.2299 -0.2102  0.0200
 3435W        W19509  12.912   5.187   2.365 -0.1906 -0.1238  0.1514
 3436W        W19510   7.467   0.223   5.704 -0.4614 -0.3154 -0.2632
 3437W        W19511  10.538   3.272   2.467 -0.1721 -0.2676 -0.2611
 3438W        W19512  10.694  15.624   0.666 -0.1205  0.0859  0.0321
 3439W        W19513  11.363   5.571  11.602 -0.2745 -0.1888 -0.0366
 3440W        W19514  16.709   0.418   3.306  0.1831 -0.0587 -0.1384
 3441W        W19515   8.946   5.635  13.434  0.0808  0.4997 -0.0460
 3442W        W19516   9.429   0.521  16.348 -0.3807 -0.2330 -0.1815
 3443W        W19517   9.642  12.306   2.831  0.1777  0.0592 -0.0130
 3444W        W19518   5.138  13.114  12.075  0.1766 -0.0239 -0.0657
 3445W        W19519   9.935  14.263  12.451  0.0166  0.4066 -0.1665
 3446W        W19520  11.804  13.877   3.420  0.1647  0.1839  0.0657
 3447W        W19521  14.715   2.199  11.948 -0.0632 -0.0852 -0.0597
 3448W        W19522   1.843  16.518  13.707 -0.0424  0.0944 -0.1282
 3449W        W19523  13.913  10.505   1.825  0.2720  0.1168  0.0118
 3450W        W19524  14.787   3.529   5.682  0.2149 -0.0188  0.2890
 3451W        W19525  15.857  17.519   5.569  0.2827  0.2005  0.1495
 3452W        W19526   3.913   5.938  14.308 -0.2564  0.0217 -0.1128
 3453W        W19527  14.669  11.223   2.070  0.0391 -0.2718  0.1609
 3454W        W19528  14.908  15.064   2.389 -0.2353 -0.0806  0.6565
 3455W        W19529   6.146   0.179  11.420  0.2442 -0.3275 -0.2538
 3456W        W19530   4.722  13.879  13.520  0.1270  0.0511 -0.0642
 3457W        W19531  11.647  14.193  13.990 -0.0868  0.4232  0.1431
 3458W        W19532   9.155   7.351  11.898 -0.0342  0.3518 -0.0381
 3459W        W19533  15.610  18.067   0.409  0.0346  0.3336  0.2856
 3460W        W19534   2.778   9.573  13.860  0.0741  0.1480  0.0458
 3461W        W19535   6.589  10.000   4.298 -0.0953 -0.0214  0.0933
 3462W        W19536   6.305  13.352  11.951 -0.0673 -0.0173 -0.0056
 3463W        W19537   9.707  10.427  15.216  0.1028  0.5948 -0.0543
 3464W        W19538   1.544   2.801  16.164  0.2380  0.0269 -0.0165
 3465W        W19539  11.072   3.470  12.250  0.2756  0.0232  0.1600
 3466W        W19540   1.960   3.834  16.136 -0.0089  0.1211 -0.2024
 3467W        W19541   4.136  10.427   3.436  0.1233  0.0687  0.0736
 3468W        W19542   1.588   0.584   1.669  0.1356  0.2949  0.2383
 3469W        W19543  11.331  16.919   1.613 -0.0076  0.0820  0.1173
 3470W        W19544   1.096  13.777  12.634  0.0552 -0.1331 -0.2296
 3471W        W19545  12.337  11.703   2.774 -0.0997 -0.2095  0.0915
 3472W        W19546   4.669  11.818  12.021 -0.0823 -0.0762 -0.3343
 3473W        W19547   4.989   8.857   1.884 -0.2602  0.2339 -0.2665
 3474W        W19548   9.303   2.814   4.833 -0.1406  0.3229 -0.0266
 3475W        W19549   1.518   5.310   5.543  0.0130  0.2391  0.1989
 3476W        W19550  18.100   4.605  12.474 -0.0286  0.1916  0.2587
 3477W        W19551   1.485  16.039  13.406  0.2375  0.3082  0.2304
 3478W        W19552   8.696   9.079  14.443  0.3256 -0.1518  0.1231
 3479W        W19553   8.983   7.149   4.316  0.2480 -0.3512 -0.2218
 3480W        W19554  17.735  14.485   3.294 -0.1079  0.1877 -0.5130
 3481W        W19555  11.587  15.883  11.839 -0.1661  0.1339  0.0107
 3482W        W19556   3.030   5.994  11.689  0.0600  0.1429  0.0195
 3483W        W19557  17.179  13.142   2.676 -0.0459  0.0082 -0.1253
 3484W        W19558   8.081  15.204  12.399  0.0442  0.0397 -0.2350
 3485W        W19559  17.005   1.864  13.384  0.1515  0.2576 -0.1553
 3486W        W19560  12.076   6.938   2.082  0.0443 -0.1744 -0.1537
 3487W        W19561  16.083   4.039   3.814  0.1495 -0.2215 -0.1208
 3488W        W19562   1.433   2.770   5.563  0.1696 -0.1456 -0.0062
 3489W        W19563  15.303  14.779  15.236  0.0850  0.3007  0.0640
 3490W        W19564   3.920   8.933   3.391 -0.0821  0.3073  0.1665
 3491W        W19565   3.701   6.531   0.782 -0.1032  0.1633  0.0903
 3492W        W19566  11.068   9.994   2.384 -0.0790  0.2319  0.1003
 3493W        W19567  11.953  14.720  12.227  0.1809 -0.0386  0.0596
 3494W        W19568   7.607   6.065  13.313 -0.0490  0.0445 -0.2533
 3495W        W19569   6.857   4.929   0.076 -0.1302  0.0735  0.0330
 3496W        W19570   6.414  13.719   3.300 -0.3336  0.4267 -0.4100
 3497W        W19571   6.571  10.365  14.099  0.0434  0.5147 -0.0441
 3498W        W19572  14.106   4.289   4.327 -0.1410 -0.0490 -0.0165
 3499W        W19573  18.257  15.219  14.386 -0.0700  0.2139  0.1850
 3500W        W19574  11.690   1.010   2.260 -0.1968 -0.0871 -0.2347
 3501W        W19575  17.859  14.062   3.503  0.1477 -0.0143  0.2123
 3502W        W19576   7.428  14.730  12.546 -0.1236  0.2305  0.0004
 3503W        W19577   3.632   2.811   5.084 -0.1080 -0.3554  0.3111
 3504W        W19578  12.433   5.499  12.494  0.0617 -0.0074  0.3446
 3505W        W19579   8.279   0.498   0.697 -0.0453  0.0346  0.1979
 3506W        W19580  10.373  17.980   5.322  0.1503 -0.2084 -0.2883
 3507W        W19581   4.394   3.619  14.849 -0.3092 -0.1538 -0.0486
 3508W        W19582   1.857   7.951   1.420  0.3525 -0.0826  0.0512
 3509W        W19583   4.354  13.568   3.769 -0.1424 -0.2261  0.4835
 3510W        W19584  14.569  12.065  13.904  0.2730 -0.2933 -0.1006
 3511W        W19585  13.591  12.764  14.667  0.0008 -0.0763 -0.0787
 3512W        W19586   4.689   8.940  12.895 -0.1879 -0.0010 -0.1250
 3513W        W19587  16.672  18.069   5.792 -0.0007  0.1783  0.2979
 3514W        W19588  13.905  18.237   5.527 -0.0471 -0.1165 -0.0064
 3515W        W19589   7.474   7.042   4.466 -0.2405  0.2080  0.4451
 3516W        W19590  13.158   0.601  11.618  0.1559  0.0241 -0.3522
 3517W        W19591   9.913   6.132   0.260 -0.3227  0.1823  0.1615
 3518W        W19592  10.767   5.709   5.207 -0.1575  0.1712  0.1156
 3519W        W19593  16.646  11.413   2.420  0.1084 -0.0953 -0.1912
 3520W        W19594  14.586  16.876   2.173  0.0145  0.2550  0.1020
 3521W        W19595   9.362  10.097   3.339  0.0141  0.1282  0.3528
 3522W        W19596   5.740  17.797   5.084 -0.2006  0.0322 -0.3255
 3523W        W19597   7.487   0.452   3.909  0.1314  0.0315 -0.3590
 3524W        W19598   2.994   0.211   1.841  0.4723  0.2216  0.2517
 3525W        W19599   8.589   1.705   3.738 -0.1863  0.0885  0.0232
 3526W        W19600   7.023   5.617  11.110  0.3174  0.1355 -0.0559
 3527W        W19601   2.877  15.063   2.547 -0.1332 -0.1242 -0.2373
 3528W        W19602  14.243  16.182   0.548 -0.0081 -0.0098  0.2893
 3529W        W19603   6.724   4.451  16.272 -0.2902  0.2410  0.2413
 3530W        W19604  10.614   9.954   0.726 -0.0459  0.3107 -0.0019
 3531W        W19605  12.772  10.198   5.361 -0.0564  0.0649  0.2515
 3532W        W19606   5.530  17.489   2.557 -0.3321  0.1937  0.0189
 3533W        W19607   0.453   1.917   6.251  0.1557 -0.2511 -0.1880
 3534W        W19608  17.463  10.892  12.213  0.1778  0.2824  0.1458
 3535W        W19609  14.962  13.948  11.852  0.0671  0.2517 -0.0833
 3536W        W19610  13.142   9.382   3.401  0.0531 -0.4674  0.0195
 3537W        W19611   3.690  18.194  14.149  0.0015 -0.1408 -0.0142
 3538W        W19612  16.252  16.420  15.874  0.1664  0.3757 -0.0014
 3539W        W19613  14.013   7.368   5.003  0.0555  0.0286 -0.0333
 3540W        W19614   0.140  11.981   1.909  0.0906 -0.0311  0.0219
 3541W        W19615   6.681  17.025   2.091  0.1786 -0.2505 -0.0081
 3542W        W19616  17.615   7.056  12.405  0.1148  0.0930 -0.1706
 3543W        W19617  18.323   3.923   5.765 -0.1037  0.0238  0.0158
 3544W        W19618  12.799   7.576  11.068 -0.1841 -0.0028  0.2753
 3545W        W19619  15.957   1.699   4.757  0.2186  0.1270 -0.1422
 3546W        W19620   0.324  10.589  11.333  0.1087 -0.1761 -0.2174
 3547W        W19621   0.796  12.188   0.894  0.1217 -0.0067 -0.2464
 3548W        W19622   3.785   2.401   4.753  0.0677 -0.0959 -0.3866
 3549W        W19623   0.194   9.626   1.973 -0.1569  0.0781  0.0421
 3550W        W19624   1.247   5.638  13.152  0.1327 -0.1445  0.1927
 3551W        W19625   8.561   1.092  11.170 -0.0287  0.2223 -0.2743
 3552W        W19626  11.235   2.006  13.810  0.0903 -0.0405  0.4173
 3553W        W19627  11.913   8.573  11.434  0.1073  0.3727 -0.2772
 3554W        W19628  10.166  15.585  15.302  0.3265  0.2621  0.1663
 3555W        W19629   3.683   2.306  12.945 -0.3174  0.1282 -0.2026
 3556W        W19630   6.663  12.533   3.493  0.0760  0.3292  0.0587
 3557W        W19631  11.945  17.271  13.291  0.1728  0.5907  0.1903
 3558W        W19632  15.242   7.844  11.321  0.0773 -0.0851 -0.0061
 3559W        W19633   9.897   0.908  12.001  0.1345  0.1937  0.4139
 3560W        W19634   4.286  15.956   4.222 -0.4171  0.0022  0.1374
 3561W        W19635   1.387   3.535  14.832  0.1137 -0.3279 -0.1542
 3562W        W19636   8.925  16.698   1.077  0.1693 -0.1127 -0.2073
 3563W        W19637  10.081   6.341  12.236 -0.0424  0.5568 -0.0380
 3564W        W19638   6.121  13.981   2.812  0.2783 -0.0299 -0.0500
 3565W        W19639  11.124  15.011   2.802  0.2423 -0.2499  0.1669
 3566W        W19640   4.950   5.880   2.839  0.3893  0.1779  0.3630
 3567W        W19641  17.197  15.199  13.593 -0.0595 -0.2462 -0.1925
 3568W        W19642   1.523  12.109  12.659  0.1859  0.3727 -0.1068
 3569W        W19643   7.606  12.076   3.668  0.0123  0.3441  0.0675
 3570W        W19644  17.397  13.854   3.632  0.0282 -0.0549  0.1465
 3571W        W19645   0.480   6.373   4.778 -0.1414 -0.1404  0.1237
 3572W        W19646   1.325  10.516  11.925  0.2711  0.1113 -0.0143
 3573W        W19647   5.415  17.565  12.656  0.1777  0.0186  0.1607
 3574W        W19648   2.985   4.499  11.845 -0.2010 -0.0509 -0.2049
 3575W        W19649  12.765   1.927   0.858 -0.1259 -0.1834 -0.0065
 3576W        W19650   6.178   5.494   2.398  0.2138 -0.0663  0.5460
 3577W        W19651  14.269   9.121  12.169  0.1103  0.0489  0.0334
 3578W        W19652  12.068  17.510  11.582  0.0800  0.1450  0.0099
 3579W        W19653   1.303   8.498  13.982  0.1408  0.2684  0.4301
 3580W        W19654  13.446  14.021  14.272 -0.2315 -0.3114 -0.0666
 3581W        W19655   2.075  16.495   5.050  0.2293 -0.1545  0.4371
 3582W        W19656  10.513  14.462  11.747 -0.0080 -0.1083 -0.3618
 3583W        W19657   7.633  14.179   2.515  0.2004  0.0382 -0.0665
 3584W        W19658   1.343  10.039   0.246  0.0814 -0.0366 -0.2735
 3585W        W19659   1.781  12.449  16.269 -0.3113  0.0741  0.3302
 3586W        W19660   3.941   1.999  11.766  0.1825 -0.1885 -0.2978
 3587W        W19661  12.545  10.023   2.212  0.1114  0.0080 -0.1599
 3588W        W19662   2.728  13.752  12.099 -0.2930 -0.4016  0.0329
 3589W        W19663   0.863   0.387  15.643 -0.0249 -0.0724  0.3822
 3590W        W19664   7.679  12.224   3.203  0.2765 -0.2875  0.3007
 3591W        W19665  16.357   0.373  13.386  0.0110  0.0266 -0.1511
 3592W        W19666   1.482  17.412   3.473  0.0628  0.0629  0.1087
 3593W        W19667   8.336   7.728   2.678  0.0567  0.0831 -0.2959
 3594W        W19668  11.781   1.246   4.244  0.0790 -0.1228  0.0448
 3595W        W19669   0.433  11.746   4.188 -0.0398  0.2403 -0.3097
 3596W        W19670  15.662   9.697  14.661 -0.3638 -0.3538 -0.2241
 3597W        W19671  12.007  11.503  14.301 -0.1355  0.0846  0.1596
 3598W        W19672   8.469   4.388  15.933 -0.4257  0.1176 -0.0400
 3599W        W19673  16.690  14.237   1.930  0.0091 -0.2203  0.1714
 3600W        W19674   3.190  15.991   3.261 -0.4226  0.0404  0.2427
 3601W        W19675  12.388   3.783   2.622  0.0578  0.0981 -0.1086
 3602W        W19676  13.350   3.985  11.640  0.0325 -0.2371 -0.1750
 3603W        W19677   3.390  12.560   2.582 -0.1837  0.0423 -0.0520
 3604W        W19678   0.352   5.871  14.355 -0.2764  0.0678  0.2270
 3605W        W19679   5.484  14.616  13.227  0.0290  0.1399  0.0556
 3606W        W19680  10.646  10.734   0.841 -0.1869 -0.3124  0.3152
 3607W        W19681  11.570   5.064   2.188 -0.1631 -0.0530  0.1238
 3608W        W19682   3.124  10.002   5.037  0.1218  0.0140 -0.0261
 3609W        W19683   4.555   4.392  13.138  0.1693 -0.0843 -0.0906
 3610W        W19684  15.150   2.610  14.837 -0.1678 -0.0896 -0.3785
 3611W        W19685   1.689  14.218   5.909 -0.2702 -0.0421  0.0490
 3612W        W19686   2.597  15.107   4.070  0.0415 -0.2058 -0.2850
 3613W        W19687   5.401  13.166   4.601  0.6033 -0.3417 -0.0221
 3614W        W19688   3.786   8.929  14.013  0.3836  0.2523 -0.0082
 3615W        W19689   7.383  16.094   3.753 -0.0805  0.0408 -0.1435
 3616W        W19690  12.808   4.053   2.436  0.0199 -0.3309 -0.1439
 3617W        W19691   0.478  16.617   3.820  0.0047 -0.0429 -0.3846
 3618W        W19692  13.818   3.623   2.338 -0.0321  0.0148 -0.0420
 3619W        W19693  11.881  16.231  11.086 -0.1341  0.0938 -0.0161
 3620W        W19694  18.253  16.738   0.648 -0.0148  0.2942 -0.0084
 3621W        W19695   6.129   5.385  14.188 -0.2315  0.1526 -0.2412
 3622W        W19696   8.679  14.584  14.282  0.2057 -0.4349 -0.2044
 3623W        W19697  14.492   5.118  15.705  0.1886  0.2724 -0.1583
 3624W        W19698   7.469   4.178   1.221  0.2127  0.3384  0.1059
 3625W        W19699   3.990   6.003  16.332  0.3193 -0.0622 -0.0554
 3626W        W19700   4.697   1.823   1.253  0.0792  0.0116  0.0081
 3627W        W19701  11.540  12.967  11.570 -0.0206 -0.1765  0.2667
 3628W        W19702   5.505   7.324   3.490 -0.1544  0.0950 -0.2370
 3629W        W19703  12.318  13.949   3.184  0.3121  0.0944 -0.0993
 3630W        W19704   2.070  12.023  12.991  0.4537 -0.3208  0.1556
 3631W        W19705  12.203  13.566  11.330  0.2868 -0.2255 -0.1581
 3632W        W19706   0.834  11.582   2.305  0.0257  0.2660 -0.1071
 3633W        W19707   4.017  16.386  12.450  0.2163  0.0885  0.3756
 3634W        W19708  12.770   0.879   5.033 -0.1126 -0.4404  0.0784
 3635W        W19709  10.151  15.864   4.986  0.0911 -0.0219 -0.0088
 3636W        W19710   1.246   4.513  14.122 -0.4272  0.1524 -0.0259
 3637W        W19711   7.788   5.109  15.003 -0.1785  0.0413  0.1519
 3638W        W19712  15.533  17.172   4.498 -0.0539  0.0017  0.2849
 3639W        W19713   6.111   5.346  14.754 -0.0202 -0.0590  0.0120
 3640W        W19714   4.624   3.527   4.120  0.1247 -0.0131  0.0844
 3641W        W19715   8.961  13.929  12.547  0.0052 -0.0160  0.0390
 3642W        W19716   3.036  17.145   2.912 -0.1287 -0.2707 -0.0247
 3643W        W19717  16.101  10.484   3.465  0.1685  0.2861  0.2023
 3644W        W19718   6.739   2.266   9.613  0.2380 -0.3484  0.2428
 3645W        W19719  14.093   9.965  13.569  0.2336  0.0542 -0.1563
 3646W        W19720   7.035  13.537   1.254  0.1569 -0.2172  0.0134
 3647W        W19721   2.259   1.055   4.755 -0.2161  0.0748 -0.4186
 3648W        W19722   3.065   2.606   0.115 -0.0734  0.2234  0.0686
 3649W        W19723   9.915  12.468  12.193 -0.1256  0.2383  0.0116
 3650W        W19724  11.700   9.270  14.196  0.3254 -0.1974  0.0684
 3651W        W19725   0.745   5.358   3.681  0.1055  0.1339  0.1285
 3652W        W19726  14.546   7.052  13.032  0.1505  0.1445 -0.2342
 3653W        W19727   4.970   6.387   4.278  0.0751 -0.3228 -0.0253
 3654W        W19728   4.197   4.524   1.853  0.3272  0.2185 -0.2612
 3655W        W19729   5.577   0.934  11.177 -0.3513  0.0919 -0.1786
 3656W        W19730   7.465   9.463  14.287 -0.0174 -0.0919  0.1967
 3657W        W19731   4.419   5.651   3.983  0.2245 -0.0504  0.3679
 3658W        W19732  17.929   6.794  11.519  0.0486 -0.0340  0.0363
 3659W        W19733   6.984  16.393   0.015 -0.0589 -0.0932  0.1699
 3660W        W19734  17.043  17.406  13.445  0.1728  0.1838 -0.2077
 3661W        W19735   1.765   8.899   1.364  0.1303 -0.1221 -0.3004
 3662W        W19736  13.643   0.204  14.913 -0.0292  0.1698  0.0195
 3663W        W19737  12.657   3.162   4.494 -0.1796 -0.2211  0.1377
 3664W        W19738   4.181   7.005   1.617 -0.0087 -0.0993 -0.1106
 3665W        W19739  16.263  16.588   1.842 -0.3726  0.1501  0.1525
 3666W        W19740   8.303   9.784  13.688 -0.6580 -0.2641 -0.0388
 3667W        W19741  10.558   7.129   1.457 -0.1694 -0.1133 -0.3261
 3668W        W19742  12.229   6.765  14.927  0.0457 -0.1218  0.0326
 3669W        W19743   0.777   2.053  16.335  0.0004 -0.1413 -0.5235
 3670W        W19744  14.026  12.208  14.508 -0.4675  0.1284 -0.0170
 3671W        W19745  14.204  17.039   0.771 -0.3973 -0.3264  0.0709
 3672W        W19746  14.858   8.916   3.615  0.0438 -0.1972 -0.2210
 3673W        W19747  17.110  15.130   6.362 -0.3235  0.2012  0.1436
 3674W        W19748   6.014  15.954   2.729 -0.1428 -0.3119  0.0220
 3675W        W19749  16.363  16.523  12.046 -0.1807 -0.2664 -0.0445
 3676W        W19750   5.315  16.512  15.820  0.2196  0.0953 -0.1725
 3677W        W19751  13.513   0.457   0.267  0.2647  0.2068  0.1605
 3678W        W19752   9.910   9.170   4.587 -0.0046 -0.3991 -0.1010
 3679W        W19753   0.891  18.030  13.924 -0.1903  0.0230  0.1954
 3680W        W19754   7.841  10.626   5.409 -0.0040 -0.3647 -0.2035
 3681W        W19755  11.200   5.735   0.543 -0.0558  0.1431 -0.2210
 3682W        W19756   6.859  12.804   0.543  0.5264 -0.3454 -0.0549
 3683W        W19757  14.755   7.612  12.172  0.2689 -0.0094  0.0184
 3684W        W19758   3.554   8.148   2.613  0.0534 -0.2268  0.0940
 3685W        W19759  12.530   2.959   4.956 -0.0746  0.0262  0.0288
 3686W        W19760   4.428   8.991   5.109  0.0888  0.1557 -0.0135
 3687W        W19761   8.463  14.994   4.261 -0.2066 -0.1762 -0.1419
 3688W        W19762  11.578  16.074   3.152 -0.1320 -0.0573  0.1869
 3689W        W19763  17.017  15.601  14.765  0.0526  0.4239  0.0834
 3690W        W19764   1.709   8.276  16.052  0.0093 -0.1845 -0.0340
 3691W        W19765  13.044   2.226   1.237 -0.3938  0.3605  0.1375
 3692W        W19766   5.708  14.580  15.932 -0.0056 -0.0715 -0.0601
 3693W        W19767  14.703  14.951  11.966 -0.0815 -0.0299 -0.4591
 3694W        W19768   6.690  17.249  13.114  0.1933 -0.0146  0.2374
 3695W        W19769   9.761   0.876  12.453 -0.0507 -0.0190 -0.0216
 3696W        W19770   8.806   5.069   2.523  0.2206 -0.1974  0.0709
 3697W        W19771  10.221   8.125  14.422 -0.0537 -0.0523 -0.1164
 3698W        W19772  13.460  15.801   5.355 -0.0496  0.2638 -0.1726
 3699W        W19773   6.187   9.978   3.947  0.1633 -0.1881  0.0146
 3700W        W19774  16.081   7.564  15.511 -0.3483 -0.0204  0.0427
 3701W        W19775  12.798  12.377   1.525  0.0497  0.1407 -0.0585
 3702W        W19776   0.344   3.482   1.402 -0.2545  0.0636 -0.2282
 3703W        W19777   2.980  16.740   5.103 -0.3462 -0.0409 -0.1513
 3704W        W19778   6.580  12.773  14.727 -0.1062 -0.1001  0.4088
 3705W        W19779  16.559  15.707  11.770  0.0414 -0.1852 -0.1545
 3706W        W19780  10.653   8.964  13.087  0.0631 -0.2694 -0.1260
 3707W        W19781   1.849  16.068  15.886 -0.3745  0.0008  0.3267
 3708W        W19782   7.096   9.371  14.580  0.0245 -0.3684  0.1028
 3709W        W19783   9.374   7.704   1.762 -0.1163  0.1292 -0.0024
 3710W        W19784   1.213   9.454   2.671 -0.1977 -0.0306 -0.0841
 3711W        W19785   2.375   4.675  15.130 -0.1261 -0.1339  0.2092
 3712W        W19786  12.742   8.917  15.085 -0.1028  0.0912 -0.2247
 3713W        W19787   7.796  14.201   1.678  0.3813 -0.3902 -0.2073
 3714W        W19788   0.777   8.467   5.206 -0.3197 -0.0620  0.1139
 3715W        W19789  16.077   1.560   1.749  0.1368  0.0473  0.2052
 3716W        W19790  11.462  17.247   5.969  0.4051  0.1042 -0.0219
 3717W        W19791   1.936  11.273  14.237 -0.0912  0.0071 -0.2238
 3718W        W19792   7.464   0.338   0.934 -0.2064  0.1370  0.1771
 3719W        W19793   4.023  10.223  13.511  0.2760 -0.2003 -0.1323
 3720W        W19794  10.234  10.927  12.720  0.2491  0.1845 -0.2041
 3721W        W19795  12.561  12.568   3.572 -0.2902  0.0317 -0.1890
 3722W        W19796  10.550   4.567  13.725  0.1564 -0.0486 -0.2773
 3723W        W19797   6.910  13.981  12.854  0.2409  0.1507  0.0582
 3724W        W19798   7.800   7.826   2.905 -0.2651  0.1171  0.0064
 3725W        W19799   7.006  12.552  14.454 -0.0610 -0.0009 -0.3427
 3726W        W19800  17.246  13.290   1.276  0.2210  0.1570  0.0500
 3727W        W19801  10.350   8.560   0.308 -0.1581 -0.1774  0.0806
 3728W        W19802   4.475  11.689   4.275  0.3719 -0.1237  0.1372
 3729W        W19803   2.901  13.892   3.465  0.0362  0.0763 -0.0386
 3730W        W19804  16.754  11.794   0.176 -0.0644 -0.1516  0.5910
 3731W        W19805   8.554   1.558   5.765  0.3280  0.2596 -0.0680
 3732W        W19806  12.851   6.170   5.209  0.1343 -0.0059  0.1633
 3733W        W19807   2.885   1.115  12.096  0.0813 -0.1728  0.0357
 3734W        W19808   5.987  15.040   2.681  0.1906  0.0966 -0.0721
 3735W        W19809  17.829  16.059   2.557  0.1481 -0.0922 -0.3521
 3736W        W19810   8.233   8.198   0.560 -0.1418 -0.0847 -0.1603
 3737W        W19811  12.710   9.993  12.862  0.0268  0.2187 -0.0927
 3738W        W19812   6.521  16.028   4.593  0.0253  0.0326 -0.0457
 3739W        W19813  10.717   7.681   4.215  0.0145  0.0184 -0.2399
 3740W        W19814   8.163  14.906  15.126  0.0785 -0.0387 -0.0897
 3741W        W19815   0.709   1.919  13.953  0.3214 -0.0945  0.0253
 3742W        W19816   4.479   0.319   2.052  0.0021 -0.1560  0.0535
 3743W        W19817   8.120   3.181  10.795 -0.2239  0.2075  0.0696
 3744W        W19818   8.148   3.900  10.727 -0.2986 -0.0836  0.0814
 3745W        W19819  15.574  15.308  14.678  0.0174  0.1392 -0.1135
 3746W        W19820  12.176   2.634  13.077  0.0111 -0.0036 -0.3127
 3747W        W19821  11.631   1.991   3.064  0.0344  0.4529  0.2067
 3748W        W19822  11.242  16.023   4.843  0.0015 -0.3357  0.2554
 3749W        W19823  10.213  14.546   2.441 -0.2486  0.1527  0.0009
 3750W        W19824   1.782   4.376   1.773  0.0227 -0.2127 -0.1275
 3751W        W19825   6.257   7.856  13.686  0.2628  0.1208 -0.2472
 3752W        W19826  12.041  12.790   0.793 -0.1154 -0.1501  0.1954
 3753W        W19827   2.061  13.896   1.665 -0.2161 -0.2359  0.0302
 3754W        W19828   3.460  14.920  10.272  0.0813  0.1327  0.2675
 3755W        W19829   0.733   4.891  13.580 -0.2897  0.0633  0.0463
 3756W        W19830   1.300  17.256  10.689 -0.0006  0.0258 -0.1722
 3757W        W19831  16.248   1.635   0.936 -0.3648 -0.0646  0.1955
 3758W        W19832  11.005   2.120  11.696  0.1208  0.0641  0.5337
 3759W        W19833   7.412   2.791  12.552 -0.1837 -0.1929  0.1114
 3760W        W19834  17.527   2.918   0.205 -0.1486 -0.0054 -0.2057
 3761W        W19835  10.698   9.757   1.604 -0.2489  0.2259 -0.1154
 3762W        W19836  12.160   1.450  13.417  0.1088  0.0852  0.0604
 3763W        W19837  13.246   6.906   2.416  0.4570 -0.1152  0.4244
 3764W        W19838  11.347   1.029  11.556  0.0040 -0.0744  0.1568
 3765W        W19839   9.939  10.156   0.314  0.1013  0.1197 -0.2233
 3766W        W19840  11.985  11.407  11.483  0.2508 -0.3217 -0.1631
 3767W        W19841  11.492   5.310   0.918  0.2741  0.1588  0.2940
 3768W        W19842  16.467   6.130  11.365 -0.0689 -0.0287  0.1494
 3769W        W19843  13.250   8.777  15.295 -0.0755  0.0053 -0.0077
 3770W        W19844  10.572  11.190   3.448 -0.0613 -0.0591 -0.2215
 3771W        W19845   4.697   4.363  12.667 -0.0432  0.0427  0.0423
 3772W        W19846  14.640  16.717  11.677  0.2363 -0.2900 -0.2274
 3773W        W19847  18.088   8.340   6.269 -0.3999 -0.0052 -0.1182
 3774W        W19848   2.104   4.217  15.350  0.1267 -0.0466 -0.0374
 3775W        W19849  18.274  13.271   5.283 -0.0550 -0.1982 -0.2096
 3776W        W19850   0.143  13.568   1.509  0.1747 -0.0622  0.1207
 3777W        W19851   8.251   1.043   2.453 -0.4135 -0.2525 -0.1884
 3778W        W19852   6.571  15.742   1.469 -0.1583  0.1460 -0.1529
 3779W        W19853   8.161   7.260   1.405  0.2177 -0.1604 -0.2570
 3780W        W19854   3.846   9.008  11.628 -0.0028 -0.1678 -0.4554
 3781W        W19855   0.615   3.340  11.523  0.2140 -0.0385  0.0358
 3782W        W19856   1.563  17.426   5.758  0.0153 -0.0346 -0.0013
 3783W        W19857   9.429  13.519   4.250  0.1678  0.2463 -0.0053
 3784W        W19858   9.446  11.848   1.577 -0.0469 -0.2815 -0.1733
 3785W        W19859  10.786   9.180  12.017 -0.2549 -0.0094  0.0779
 3786W        W19860   7.509   5.105   9.997 -0.0031 -0.3007 -0.2387
 3787W        W19861  12.889  16.503  12.826 -0.0895  0.3796 -0.2219
 3788W        W19862  14.036  10.862   5.297 -0.2889 -0.0279  0.1130
 3789W        W19863   6.646  16.995  11.882 -0.1870  0.1972  0.1450
 3790W        W19864   9.780  13.478  11.863  0.1601 -0.2031  0.6178
 3791W        W19865   4.617   3.186   5.193  0.0252  0.1482  0.3968
 3792W        W19866  16.180   0.727  15.458  0.2341  0.3189 -0.1571
 3793W        W19867  14.246   6.103   5.531 -0.0533  0.0599 -0.0334
 3794W        W19868  16.829  12.205  16.286  0.1549  0.1889 -0.1263
 3795W        W19869  14.604   5.946   0.116 -0.3289  0.1218  0.4368
 3796W        W19870   3.446  11.917  13.932  0.0494  0.0250  0.1094
 3797W        W19871   1.552   8.744   4.873  0.1016  0.2762  0.0777
 3798W        W19872   8.483  17.063  11.837  0.0832 -0.0982  0.2934
 3799W        W19873  11.645  15.735   4.757  0.1509  0.1300  0.1332
 3800W        W19874  14.602   4.211   2.931 -0.0127 -0.0992 -0.2369
 3801W        W19875   1.420   9.430  14.275 -0.2616 -0.1600  0.1605
 3802W        W19876   4.485  13.290  10.942  0.0722  0.0800  0.3148
 3803W        W19877   1.684   9.707  15.166 -0.0684 -0.1425 -0.2934
 3804W        W19878  14.891   5.263  15.451  0.0504 -0.2948 -0.0068
 3805W        W19879  14.138  12.420   3.013  0.3482 -0.1617 -0.3520
 3806W        W19880  15.432   5.945  14.355  0.1392 -0.3533 -0.1924
 3807W        W19881  17.304  11.877  14.375  0.2382 -0.0084  0.0326
 3808W        W19882   7.061   8.753  12.111 -0.0995 -0.0646  0.1370
 3809W        W19883  10.381  15.783   0.339  0.0923 -0.0042  0.0092
 3810W        W19884   8.765   6.344   3.917  0.1713  0.1399  0.0169
 3811W        W19885   6.343   2.576  14.215  0.0128  0.0206 -0.2670
 3812W        W19886   9.368  13.435   2.106  0.1770  0.0208  0.0472
 3813W        W19887   8.266  17.452  14.407 -0.2408  0.0099 -0.0188
 3814W        W19888  13.523   4.236  15.414 -0.3196 -0.1091  0.3926
 3815W        W19889  10.172  16.766  16.155  0.2186 -0.1374 -0.1761
 3816W        W19890   4.189   3.676  16.126 -0.0752 -0.0495  0.1212
 3817W        W19891  16.622  17.846   1.224  0.0102 -0.0644 -0.0612
 3818W        W19892   5.296  16.243  14.790 -0.4209 -0.0629  0.0015
 3819W        W19893   6.779   3.255   5.152  0.0210  0.0110  0.0711
 3820W        W19894   8.794  15.380   2.490 -0.1769  0.1810 -0.3369
 3821W        W19895   4.801  12.440  13.607 -0.0224 -0.2842  0.4534
 3822W        W19896   2.860  15.813  12.324 -0.3821  0.1984  0.1235
 3823W        W19897  14.110  13.073   2.584 -0.1036 -0.1030  0.0671
 3824W        W19898   2.730  13.979  14.453  0.1852 -0.0064  0.1895
 3825W        W19899  17.541   6.363   1.637 -0.0009 -0.0488  0.2937
 3826W        W19900  11.942  17.952   0.455  0.0146 -0.0901 -0.0641
 3827W        W19901   9.497   1.435  14.706 -0.1314 -0.2455 -0.1144
 3828W        W19902   8.335   3.762  12.689 -0.3511 -0.0053  0.0963
 3829W        W19903   3.985   1.501  12.343  0.2425  0.1403  0.0143
 3830W        W19904  12.278  16.830  14.231 -0.3089  0.2149 -0.0992
 3831W        W19905   8.585  10.428  15.746 -0.1171 -0.0875 -0.1972
 3832W        W19906  15.472  15.713  10.314  0.0809 -0.0562 -0.2213
 3833W        W19907  15.369  13.094   0.764 -0.0997 -0.0285  0.2656
 3834W        W19908   1.777   3.057  12.127  0.4159 -0.0948  0.2099
 3835W        W19909  13.481  12.509   0.454  0.1833 -0.0277 -0.0354
 3836W        W19910   4.268   8.640  12.712  0.1542  0.1756  0.1289
 3837W        W19911   6.655  16.360   3.261  0.0786 -0.0759  0.2357
 3838W        W19912  13.649   0.367   2.457  0.0271  0.0820  0.2706
 3839W        W19913  11.652  17.620   5.522 -0.5741 -0.2805  0.2714
 3840W        W19914  15.450   4.023   1.424 -0.1698 -0.3250 -0.0244
 3841W        W19915  16.945   9.176  12.865  0.0818  0.2089 -0.1502
 3842W        W19916  15.858   5.459   5.474  0.0547 -0.0467 -0.1670
 3843W        W19917   8.640   4.224  15.480  0.1778  0.0919 -0.3629
 3844W        W19918   0.294   4.402   2.529  0.0891  0.0101 -0.1581
 3845W        W19919   3.405   5.824   2.951  0.1912 -0.3273  0.1239
 3846W        W19920  13.655   9.047   5.391  0.1291 -0.0948  0.1910
 3847W        W19921   4.043  12.667  12.072 -0.1361 -0.1400 -0.3358
 3848W        W19922  11.572   1.911   3.577  0.1896  0.1837  0.2487
 3849W        W19923   8.889  12.463   4.623 -0.0461  0.1397 -0.0451
 3850W        W19924   6.468   8.138  12.452  0.1426 -0.1062  0.3169
 3851W        W19925  16.799  14.969   0.530  0.0267 -0.0432 -0.2691
 3852W        W19926  17.063  18.272   6.184 -0.1147 -0.2145  0.2869
 3853W        W19927   3.098  14.859  15.054 -0.2672  0.0386  0.0380
 3854W        W19928   3.446  12.536  14.655  0.0119 -0.2463  0.3373
 3855W        W19929   2.674   6.542  14.318  0.2620  0.0323  0.0971
 3856W        W19930   6.735   4.308   1.971 -0.3733  0.1767 -0.0826
 3857W        W19931   3.442  14.247  12.784  0.1842 -0.0522  0.2319
 3858W        W19932   6.739  12.396   4.347 -0.1237  0.3085 -0.2423
 3859W        W19933   4.900  16.753   1.541 -0.1477  0.4339 -0.0985
 3860W        W19934   1.995   1.284   1.279  0.0797  0.1758 -0.0199
 3861W        W19935  13.440  17.067   2.540  0.0363 -0.1094  0.0313
 3862W        W19936  10.682  10.032   2.011 -0.0191 -0.1158 -0.0363
 3863W        W19937   3.739   0.785   3.610 -0.2557  0.0822 -0.1776
 3864W        W19938  16.087   6.070   4.332  0.0546 -0.1011  0.0396
 3865W        W19939   1.375   3.310   3.839  0.1158 -0.1018  0.1693
 3866W        W19940   7.798  13.432   3.134  0.2416 -0.0348  0.0090
 3867W        W19941  11.107   8.651   0.532  0.1907 -0.1234  0.1959
 3868W        W19942   2.479  18.138  12.834  0.5778 -0.2558 -0.0295
 3869W        W19943   1.271   3.127  14.587 -0.0276  0.1840  0.0262
 3870W        W19944   2.294   1.465  10.539  0.0283 -0.1381  0.0938
 3871W        W19945  15.322   7.868   5.367 -0.1655 -0.1333 -0.1609
 3872W        W19946  11.624   1.447  13.455  0.1074 -0.1006 -0.1921
 3873W        W19947  11.264  14.407   2.728  0.0064  0.1586  0.2456
 3874W        W19948  14.038   0.007   1.980 -0.0425 -0.2156  0.1798
 3875W        W19949   7.371  11.326   3.501  0.1384  0.1200 -0.0293
 3876W        W19950  11.336   8.163  15.259  0.0048 -0.3242  0.0838
 3877W        W19951  14.084   2.875  14.567 -0.0316  0.3157  0.1605
 3878W        W19952  11.119   6.141   3.638  0.0687 -0.1461  0.1101
 3879W        W19953  14.618  14.013   4.692  0.1107  0.1569  0.2376
 3880W        W19954   5.520  15.535   4.983 -0.0748  0.0158  0.4600
 3881W        W19955   5.493   4.730   2.798  0.0358  0.1292 -0.2066
 3882W        W19956  10.298   9.105  12.043  0.3378 -0.0289 -0.3443
 3883W        W19957   9.617  16.092  10.960  0.0192  0.0317 -0.2000
 3884W        W19958   5.221  18.036   3.961 -0.0253  0.0710 -0.0757
 3885W        W19959   8.264   7.923   1.131  0.0497  0.1228  0.1351
 3886W        W19960   1.787  10.185  15.130 -0.2409 -0.2819 -0.1561
 3887W        W19961  15.264  16.369  15.391 -0.0198  0.0796 -0.2571
 3888W        W19962  18.161   4.739  14.129 -0.2889  0.1232  0.0733
 3889W        W19963   7.090  13.364   2.668  0.0248  0.0734  0.1094
 3890W        W19964   1.423  12.979   4.695  0.0234  0.0820 -0.3159
 3891W        W19965   0.697  11.928  11.960 -0.3267  0.1485 -0.0413
 3892W        W19966   6.395  16.695  16.138  0.1641 -0.2580 -0.0341
 3893W        W19967   5.061  10.502  11.982 -0.1287 -0.2697 -0.0874
 3894W        W19968  12.748   1.509   1.252  0.0718  0.1003 -0.5304
 3895W        W19969  15.170   3.654  12.425 -0.1469  0.2237 -0.0261
 3896W        W19970   6.341   2.969  11.837 -0.2125 -0.1594 -0.0095
 3897W        W19971   0.594  13.087   2.664 -0.4384  0.2177  0.0958
 3898W        W19972  13.732  11.240  15.996  0.3915 -0.2022 -0.1503
 3899W        W19973  13.699   5.400  11.015  0.0344  0.3298  0.2374
 3900W        W19974   1.128   0.556  11.604 -0.0826 -0.2588 -0.3518
 3901W        W19975  12.452  10.588  15.716  0.0628 -0.2314  0.0119
 3902W        W19976   9.355  10.989  15.678  0.2472  0.2630  0.0469
 3903W        W19977  11.498  15.483  12.067  0.0064 -0.0127  0.2311
 3904W        W19978  17.769   3.957   5.930  0.2015 -0.0259 -0.1690
 3905W        W19979   7.176   0.194  12.566 -0.0767  0.3189  0.3952
 3906W        W19980   6.326  17.603  16.308 -0.2488 -0.3599 -0.0278
 3907W        W19981  12.263   2.582   1.395  0.2507  0.4656 -0.0340
 3908W        W19982  16.636   9.143   5.982  0.3038  0.1549  0.1695
 3909W        W19983   9.205   8.798   5.018  0.2584  0.3070  0.0745
 3910W        W19984  15.585   9.850   1.166 -0.3547 -0.1019 -0.0377
 3911W        W19985  18.090   5.946   3.516 -0.1717 -0.0578  0.0666
 3912W        W19986   3.279   0.921  11.862  0.0381  0.1252  0.1245
 3913W        W19987  12.424  10.834  12.429 -0.3836  0.0785  0.0553
 3914W        W19988   8.059  13.351  14.246  0.5291  0.1669  0.0589
 3915W        W19989   3.408  10.678  14.657 -0.1813 -0.1138  0.0665
 3916W        W19990  17.344  12.567  15.529 -0.1617  0.0468  0.2140
 3917W        W19991  15.505  10.405   4.872  0.1119 -0.4108  0.0610
 3918W        W19992   9.648  11.828  14.542  0.2202 -0.0058  0.0173
 3919W        W19993   5.235   3.795   5.131 -0.2200  0.0130  0.0543
 3920W        W19994   2.795  12.135  13.366 -0.2262  0.1895  0.1771
 3921W        W19995   4.561  12.567  12.645 -0.0510 -0.3445 -0.1475
 3922W        W19996  11.702   9.678   5.489  0.2606  0.0326 -0.1103
 3923W        W19997   0.754   9.581   2.582  0.2325  0.0567 -0.1264
 3924W        W19998  17.698   5.645   4.298  0.0035 -0.1681  0.0624
 3925W        W19999   4.354  16.709   4.934  0.1703  0.1588 -0.2704
 3926W        W20000  14.193   6.568  13.667  0.1076 -0.0703  0.1003
 3927W        W20001   0.271   0.779   5.269 -0.0882 -0.1245 -0.1082
 3928W        W20002  13.413  17.779  14.567  0.0915  0.0292 -0.1796
 3929W        W20003  14.517   9.828   4.104 -0.3755  0.0132 -0.0806
 3930W        W20004   6.921  16.387  12.688 -0.2761  0.2082  0.0125
 3931W        W20005   3.355  12.394   0.171 -0.2326 -0.0335 -0.1571
 3932W        W20006   4.843   6.144  16.222  0.1732 -0.1574 -0.0141
 3933W        W20007  10.729  14.180   2.629  0.0336  0.0163 -0.2461
 3934W        W20008  13.184   1.404   1.599  0.0375 -0.4238 -0.0880
 3935W        W20009   7.900  15.969  12.975 -0.0426  0.0376  0.0621
 3936W        W20010   4.725  18.212   1.043 -0.0661 -0.1818 -0.2890
 3937W        W20011   4.009  12.546  12.889  0.0086  0.2068  0.0360
 3938W        W20012  12.537  16.099  12.931  0.0757 -0.0268  0.0431
 3939W        W20013   6.256   5.902  11.085 -0.1638  0.4358  0.2364
 3940W        W20014  14.281  12.301  15.204  0.0302  0.0750  0.2185
 3941W        W20015   9.805  11.264  11.646  0.0810  0.0958  0.1281
 3942W        W20016   8.858  15.255   5.061  0.2230  0.0144 -0.1838
 3943W        W20017  15.173   8.718   5.535 -0.2790  0.0449 -0.1785
 3944W        W20018   6.438   3.881  14.003 -0.1582 -0.0280  0.2531
 3945W        W20019  16.493  17.243  14.757  0.0948 -0.3169 -0.2010
 3946W        W20020   9.179   4.677   0.869  0.0407  0.0809  0.1125
 3947W        W20021  10.354   0.117   1.075  0.4329 -0.1361 -0.1044
 3948W        W20022   4.507  18.146  12.200  0.0820 -0.1258 -0.2780
 3949W        W20023  15.119   2.217   4.998 -0.3603 -0.1333 -0.0894
 3950W        W20024  15.959  15.830  14.033  0.0394 -0.3214 -0.2847
 3951W        W20025   1.128  12.738   5.655 -0.0662  0.1191 -0.2229
 3952W        W20026   0.739   7.311   5.552  0.1261 -0.1102 -0.1063
 3953W        W20027   5.335  12.027   1.151 -0.1822 -0.2684 -0.2421
 3954W        W20028   0.973  14.199   1.868 -0.1213 -0.3070  0.1919
 3955W        W20029   2.881   1.210  11.625  0.1402 -0.1818  0.3409
 3956W        W20030  17.755  12.309   2.831  0.2614  0.1687 -0.0630
 3957W        W20031   7.092  10.253  14.072  0.0737 -0.0037  0.2158
 3958W        W20032  17.784  11.872  12.280  0.0605  0.0445  0.0080
 3959W        W20033  11.199   2.979  14.891 -0.2414 -0.5249  0.1131
 3960W        W20034   3.761  13.422   0.012  0.1381 -0.2413 -0.3300
 3961W        W20035   8.335   2.532   0.256 -0.1675  0.0702  0.1990
 3962W        W20036  13.098   3.860  13.615  0.3101  0.2801 -0.2432
 3963W        W20037  16.603   9.802  12.241  0.2040 -0.0379  0.1875
 3964W        W20038  15.044   0.847   3.100  0.2834  0.3847  0.2646
 3965W        W20039   1.857  13.199   3.068 -0.3112  0.1955  0.1038
 3966W        W20040  12.199  12.663   5.201  0.0709  0.2355  0.0390
 3967W        W20041   7.798  12.264   2.098 -0.3052  0.0785 -0.2323
 3968W        W20042   6.614   6.745  15.799  0.2170 -0.0426  0.3388
 3969W        W20043  18.225  15.544   5.425 -0.1363 -0.0070 -0.0358
 3970W        W20044   6.964   4.505  13.622  0.2096 -0.1092  0.5000
 3971W        W20045   1.716   8.295   4.904  0.2080  0.1718 -0.2190
 3972W        W20046   4.049   5.661  13.083  0.0240 -0.3969  0.0175
 3973W        W20047  14.026   1.879   0.482 -0.4483 -0.1845 -0.0846
 3974W        W20048   0.145   6.097  13.945 -0.1747 -0.2010  0.0184
 3975W        W20049  10.956   5.196   4.569  0.0211  0.1036 -0.0114
 3976W        W20050   6.321   2.764   1.768 -0.0312 -0.3740 -0.0048
 3977W        W20051   8.378   3.398  10.478  0.2387 -0.0932  0.0881
 3978W        W20052   9.234  13.440  13.295  0.0010  0.1382 -0.1079
 3979W        W20053  15.363  11.957   3.928  0.1486  0.2067 -0.0477
 3980W        W20054  14.634   1.746   2.616  0.1459 -0.2681 -0.1667
 3981W        W20055   6.681   4.537   5.407  0.1543  0.0212 -0.0015
 3982W        W20056  11.465  16.357  11.955  0.0171 -0.0682 -0.0917
 3983W        W20057   4.632  15.639   2.636 -0.0616 -0.3539 -0.3919
 3984W        W20058   5.807  16.997  11.799 -0.1772 -0.0624 -0.1272
 3985W        W20059   2.105   2.217  13.114  0.1882 -0.0262 -0.0042
 3986W        W20060  11.217  13.380   0.837  0.1337 -0.1441  0.0499
 3987W        W20061  13.270   6.661   1.490 -0.6019  0.1746 -0.5255
 3988W        W20062  10.204   5.309  10.708 -0.2381 -0.2882 -0.0483
 3989W        W20063  11.366   8.922  13.377 -0.1903 -0.2419  0.2437
 3990W        W20064   9.034  11.149   2.226 -0.0980  0.0058  0.0794
 3991W        W20065   0.385  15.088   3.551 -0.1784  0.4878  0.3593
 3992W        W20066  14.146  12.194   2.609  0.1006  0.1195 -0.0344
 3993W        W20067  10.410   3.364   5.041  0.1239 -0.2066  0.1325
 3994W        W20068   5.472   3.311  14.467  0.0925 -0.2466  0.0934
 3995W        W20069  11.806  15.542   0.017  0.1952 -0.1316 -0.2044
 3996W        W20070   1.364  11.947   2.656 -0.0221  0.0195 -0.4048
 3997W        W20071  15.676   3.421  15.524 -0.3159 -0.1856  0.0835
 3998W        W20072  17.759  15.297  15.655  0.0318  0.2576  0.2124
 3999W        W20073  15.328   0.229   4.798  0.0654 -0.0364 -0.0400
 4000W        W20074   4.687   9.610   5.782  0.2171 -0.0163 -0.0228
 4001W        W20075  10.963  12.871   4.714  0.0046 -0.0287 -0.1076
 4002W        W20076  15.668   8.655  10.264  0.0722 -0.1727 -0.3735
 4003W        W20077  10.785   2.010   4.527 -0.1099 -0.1416 -0.0259
 4004W        W20078   1.747  14.557  13.860  0.0611 -0.2443 -0.0822
 4005W        W20079   3.264   1.591  14.892  0.1114  0.1160 -0.1351
 4006W        W20080   4.711  14.495  14.187 -0.3049  0.1488  0.1232
 4007W        W20081   7.383  11.564  15.551 -0.0923  0.0428  0.0234
 4008W        W20082   5.578   9.456   1.843 -0.1720 -0.2102  0.1040
 4009W        W20083  14.506   9.643   2.203 -0.0614 -0.4042  0.1098
 4010W        W20084  12.517  10.932   5.374  0.2006 -0.1635 -0.3570
 4011W        W20085  16.576   7.913   5.700 -0.0617  0.2024 -0.0240
 4012W        W20086   6.349   8.078   2.464 -0.2157 -0.1425  0.0179
 4013W        W20087   0.406   0.282   4.601 -0.3144 -0.1423  0.1460
 4014W        W20088   5.707  16.272   0.457 -0.1566 -0.0119  0.1022
 4015W        W20089  13.901   5.671  12.284 -0.2305 -0.1741  0.0479
 4016W        W20090   0.109  12.459   0.373  0.1675  0.1255 -0.3456
 4017W        W20091  13.636   0.064   4.708  0.0350 -0.0527 -0.0571
 4018W        W20092   3.577   4.513  15.399  0.1287  0.1816 -0.2290
 4019W        W20093   0.999   1.824   4.230 -0.0514 -0.1808  0.3339
 4020W        W20094  16.480  13.703  11.878 -0.2939 -0.2949 -0.1243
 4021W        W20095  11.634  17.670  14.249  0.0931  0.2693 -0.1281
 4022W        W20096   0.810  15.494   1.272  0.0221 -0.0759 -0.1534
 4023W        W20097   6.434   6.865   4.303  0.1511  0.1688  0.0549
 4024W        W20098   1.671  11.067  15.856 -0.1972  0.0249  0.0817
 4025W        W20099  17.142   6.104   1.670  0.2190  0.0584 -0.0680
 4026W        W20100   7.187  12.904  14.054  0.0892 -0.1325  0.1459
 4027W        W20101  10.346   3.290   4.309  0.1558 -0.0214  0.0804
 4028W        W20102  11.741   7.528  13.467  0.2954 -0.0751 -0.3719
 4029W        W20103   2.337   8.126  11.681  0.0630  0.2427 -0.2624
 4030W        W20104   4.643  10.134   1.644 -0.3826  0.0051 -0.0140
 4031W        W20105   6.169   6.520   4.483 -0.1294 -0.0745  0.0431
 4032W        W20106   7.555  11.705  13.812 -0.0711 -0.2576  0.0792
 4033W        W20107   1.562   8.889   0.399 -0.0942  0.0797  0.0654
 4034W        W20108  13.143  16.325   0.951 -0.1692 -0.3190 -0.2542
 4035W        W20109   9.321   2.174   9.530 -0.3073  0.0938  0.1038
 4036W        W20110   1.360   3.761  11.493 -0.0344 -0.1410 -0.0282
 4037W        W20111  10.949   2.731  15.250  0.0216 -0.0132  0.1310
 4038W        W20112  13.453   4.659   4.444  0.0409 -0.0264  0.2770
 4039W        W20113  16.187   2.669   2.865 -0.0260 -0.1362 -0.0378
 4040W        W20114  12.442  13.261  15.840  0.1839  0.2761  0.0236
 4041W        W20115  14.330  17.142  11.337  0.0814  0.0070  0.0142
 4042W        W20116  17.320   4.837   3.768  0.0347  0.0424 -0.1471
 4043W        W20117  12.196   8.561   2.639  0.1217  0.2091  0.4000
 4044W        W20118   2.314  16.266   0.723 -0.0790  0.1850 -0.3063
 4045W        W20119   8.139   8.718   1.933 -0.1044  0.3321  0.1359
 4046W        W20120   6.786  14.767   2.576  0.5063  0.0791 -0.3217
 4047W        W20121   7.876   5.058   0.264  0.2688 -0.2126 -0.2165
 4048W        W20122  15.977   7.092   0.161  0.1372 -0.0819  0.0018
 4049W        W20123  11.733  11.467   0.331 -0.0840  0.0752  0.1448
 4050W        W20124  17.656  12.077   1.886  0.0553  0.0898 -0.1460
 4051W        W20125   5.164   3.368   4.109 -0.0984  0.2079 -0.0385
 4052W        W20126   4.884  10.274  14.538  0.0346 -0.1866 -0.0997
 4053W        W20127   4.525   5.612  13.748  0.0973  0.2944 -0.0794
 4054W        W20128  16.827   1.112  11.914  0.0917  0.0655  0.2243
 4055W        W20129  17.050   7.803   5.562  0.2978  0.1079 -0.0676
 4056W        W20130   1.050  12.273  12.936  0.1968 -0.1352  0.1219
 4057W        W20131   9.953   1.882  14.013 -0.1466 -0.2299 -0.0666
 4058W        W20132  11.129   2.505  13.784  0.0646  0.0403 -0.2460
 4059W        W20133  12.823  12.246  11.812  0.0334  0.0282  0.5037
 4060W        W20134   7.683   7.368   3.157 -0.2981  0.3240 -0.2832
 4061W        W20135  11.681  11.287   5.033  0.0002 -0.1903 -0.1356
 4062W        W20136  16.573   1.270   6.492 -0.3009  0.0345  0.3950
 4063W        W20137  10.042  11.949   5.331  0.3711 -0.0968  0.1026
 4064W        W20138   1.788   9.541   0.776  0.2640 -0.2850  0.1179
 4065W        W20139  16.231  11.685   5.923 -0.0385  0.3540 -0.0412
 4066W        W20140  14.842  14.656   1.924  0.0660 -0.0754 -0.3255
 4067W        W20141   3.346  10.264   4.624 -0.4521 -0.0872  0.1520
 4068W        W20142  16.453  13.808   4.012  0.2722  0.3385 -0.1369
 4069W        W20143   0.737   2.702  12.871 -0.1259  0.0425  0.1747
 4070W        W20144  11.840  10.672   3.057  0.1625  0.2904  0.0398
 4071W        W20145  12.495  14.096   1.396 -0.3198 -0.1458  0.0033
 4072W        W20146  14.878  14.414   2.767 -0.0805 -0.1267  0.0361
 4073W        W20147   1.339   6.006   0.300 -0.2333  0.4823  0.0439
 4074W        W20148   0.826  14.676   4.905 -0.1783  0.0152  0.2011
 4075W        W20149  16.121   6.000  15.448  0.2070 -0.0286 -0.0831
 4076W        W20150   6.770  11.184  13.983 -0.1156 -0.0034 -0.2705
 4077W        W20151  12.565   5.141  13.312  0.0199 -0.1722  0.0871
 4078W        W20152   8.869  17.448   3.084 -0.0195 -0.1281 -0.4710
 4079W        W20153   9.114  16.154  16.339 -0.4669  0.1114  0.1405
 4080W        W20154  13.929   9.604   1.024  0.1302 -0.0964 -0.3342
 4081W        W20155   8.430   2.914  11.909  0.0523 -0.1531  0.1411
 4082W        W20156   8.646   1.812  14.706 -0.0602 -0.0296  0.0253
 4083W        W20157   7.806   4.404  12.774 -0.2550 -0.0398  0.0143
 4084W        W20158   4.130  13.280   0.345  0.4015 -0.4901 -0.0865
 4085W        W20159  16.519   8.354   0.400 -0.0808 -0.0989  0.1721
 4086W        W20160   4.517  16.687  14.422 -0.3298 -0.2926  0.0603
 4087W        W20161   1.963   5.201   5.896  0.0379 -0.1893  0.3267
 4088W        W20162   2.391   1.642  11.041  0.2435 -0.3945 -0.2439
 4089W        W20163   5.210   1.657   5.514  0.4050  0.0068 -0.1796
 4090W        W20164   8.119  16.579  11.284  0.0359 -0.0127 -0.2079
 4091W        W20165   8.472  15.532  16.259 -0.1858 -0.1934  0.0275
 4092W        W20166   0.511  16.007   2.691 -0.1207 -0.0840 -0.0597
 4093W        W20167   2.501   7.421   2.019 -0.2545 -0.0361 -0.1634
 4094W        W20168  14.360   7.565   5.287  0.1720 -0.1084  0.1401
 4095W        W20169  15.451  11.151   2.678  0.1669 -0.2642 -0.3342
 4096W        W20170   6.537  13.144  16.173 -0.3486 -0.2880 -0.0908
 4097W        W20171  18.071   7.395  12.298  0.1212 -0.4269  0.0133
 4098W        W20172   9.546   9.383   4.338 -0.0189  0.2503 -0.0281
 4099W        W20173   9.179   7.426  11.139 -0.0195 -0.0496  0.2872
 4100W        W20174  15.612  13.677   0.168 -0.2159 -0.1895  0.0300
 4101W        W20175   9.518   5.002   1.774 -0.0281 -0.0640  0.2526
 4102W        W20176  17.175   2.277  14.220 -0.1752 -0.1598 -0.0294
 4103W        W20177   1.565  16.283   2.224 -0.1517 -0.0825 -0.0394
 4104W        W20178  13.370  16.086  11.761  0.0386 -0.0097 -0.0177
 4105W        W20179   6.422  10.485  11.951  0.0177  0.0433  0.1236
 4106W        W20180  11.953   3.751   2.133 -0.1123  0.1155  0.0873
 4107W        W20181   3.053   6.997   0.728 -0.0571 -0.1658 -0.2083
 4108W        W20182   1.788   2.613   4.883 -0.1280 -0.0279 -0.1500
 4109W        W20183   8.369   5.621   3.109  0.1885 -0.0408  0.3292
 4110W        W20184  10.098  12.989  14.289  0.3989 -0.3874  0.1340
 4111W        W20185   3.858   0.214   4.973 -0.0574  0.0864 -0.1313
 4112W        W20186   2.308  10.712   0.176 -0.0962  0.0881  0.0385
 4113W        W20187  10.968  14.786   0.167 -0.1754 -0.2218  0.2721
 4114W        W20188  10.332  13.889  14.737 -0.1725  0.1775 -0.0272
 4115W        W20189  14.617  12.504  11.665 -0.0879 -0.0498 -0.0637
 4116W        W20190  17.479  17.323   4.355 -0.1408  0.2398  0.1158
 4117W        W20191   9.081  14.958   0.145 -0.2858 -0.0679  0.1306
 4118W        W20192  13.620   9.643  11.738  0.1114 -0.0399  0.0504
 4119W        W20193   4.335  12.941  11.697  0.2164 -0.2303  0.2420
 4120W        W20194   2.369   0.968  12.892  0.1462  0.0692 -0.2138
 4121W        W20195  10.967  15.753   0.137  0.0406  0.1172  0.1479
 4122W        W20196   1.705  15.332  11.943  0.0940  0.0454  0.0635
 4123W        W20197  17.788  13.954  11.526 -0.2211  0.2619  0.0556
 4124W        W20198  13.971   1.994   2.787  0.3239 -0.0586  0.2551
 4125W        W20199  15.144  16.870  15.513  0.0555  0.1095 -0.0688
 4126W        W20200   0.271   6.132   5.284 -0.3218  0.0928  0.0375
 4127W        W20201  14.401   7.023  15.956  0.1486 -0.5794  0.0260
 4128W        W20202   3.684   1.972  12.515 -0.1101  0.2362 -0.1205
 4129W        W20203   9.510  12.109  15.264  0.1785 -0.2128 -0.0586
 4130W        W20204   1.418   1.843   3.959  0.0145  0.2026 -0.0663
 4131W        W20205  14.828  14.417   4.911 -0.0608 -0.0960  0.0152
 4132W        W20206   4.037   4.359   1.395 -0.1811 -0.2005 -0.0599
 4133W        W20207   7.247   7.023  13.838  0.0578  0.1148 -0.1259
 4134W        W20208   3.193   0.001   4.679 -0.0660 -0.0819  0.1847
 4135W        W20209   5.973  16.572   5.528  0.3194  0.1639  0.0695
 4136W        W20210   8.239   4.234  16.352  0.4016  0.2927  0.1799
 4137W        W20211   0.136  11.455   2.970 -0.2324  0.0047  0.0676
 4138W        W20212   1.564   3.159  10.420 -0.1108  0.0514 -0.1875
 4139W        W20213   3.755   3.079   0.828  0.0969 -0.1221 -0.1071
 4140W        W20214   1.015   1.689   3.647  0.0106  0.1055  0.0228
 4141W        W20215  12.224  15.016   1.808  0.2233  0.1712 -0.4017
 4142W        W20216   0.154   3.410   5.800 -0.2463 -0.0475  0.1117
 4143W        W20217  15.394  17.999  15.319 -0.1301 -0.0420  0.1828
 4144W        W20218  16.813  10.638   4.035  0.0915  0.0370 -0.2861
 4145W        W20219   2.625  13.632   2.074  0.0259 -0.0590  0.2037
 4146W        W20220  18.237  17.584  16.030  0.3287  0.0883 -0.0645
 4147W        W20221   0.149  10.539  15.664 -0.2117  0.1450 -0.1429
 4148W        W20222   8.877  11.221   6.339 -0.3242 -0.2077 -0.0505
 4149W        W20223   1.682  12.495   5.075 -0.0788  0.0668  0.0688
 4150W        W20224   2.880   3.995  15.540  0.3352  0.0793  0.1409
 4151W        W20225  10.152   7.367   4.932  0.0968 -0.0079 -0.1187
 4152W        W20226   3.236  14.443  11.237  0.0037  0.0765 -0.4255
 4153W        W20227   3.109  11.448  15.138  0.0641 -0.0200  0.0730
 4154W        W20228   6.833  13.775  15.090 -0.3493 -0.1110 -0.3118
 4155W        W20229   1.186   7.009   2.456  0.0473  0.2045  0.0871
 4156W        W20230   2.121  16.823   4.682 -0.3561  0.2125  0.0416
 4157W        W20231   0.455  11.930   1.526 -0.1929 -0.4969 -0.1070
 4158W        W20232  12.580  17.044   1.978  0.1845  0.3135 -0.2040
 4159W        W20233  18.252  12.211   0.824  0.1782  0.0767 -0.1432
 4160W        W20234   5.706   3.373  15.933  0.1664 -0.1054 -0.3969
 4161W        W20235   9.832   2.992   0.954 -0.0220 -0.2363 -0.2151
 4162W        W20236   6.496  13.600  16.348 -0.0018 -0.2452  0.2036
 4163W        W20237   9.668   1.906  13.465  0.0764  0.0892 -0.1589
 4164W        W20238   9.137  18.269   3.607 -0.2719 -0.3566  0.1941
 4165W        W20239   6.728   5.065   0.517  0.0093 -0.2171  0.0746
 4166W        W20240  17.810  15.893  14.268 -0.0125 -0.1431  0.1261
 4167W        W20241   1.244  15.863  14.603 -0.1142 -0.0048 -0.2089
 4168W        W20242   5.860   0.830  12.005 -0.1117  0.1710 -0.0711
 4169W        W20243  14.122   2.714   0.080  0.1938 -0.1399 -0.0591
 4170W        W20244  12.224   2.723   4.366  0.1046 -0.2318  0.0487
 4171W        W20245   7.012   6.460   2.374 -0.0259 -0.0240 -0.1291
 4172W        W20246  10.730  16.097   5.374  0.0628 -0.0063 -0.1826
 4173W        W20247   2.483  14.892   1.674  0.0407 -0.0092  0.1798
 4174W        W20248   6.938   9.144  16.085  0.0812 -0.0458  0.2724
 4175W        W20249  16.042  18.295  13.636 -0.2875  0.3626  0.0415
 4176W        W20250   4.452  15.437   0.347  0.0199 -0.0751 -0.2090
 4177W        W20251   9.038   6.047  12.059 -0.0894  0.1060 -0.0034
 4178W        W20252  12.677  18.044  11.764 -0.0194 -0.0369  0.3510
 4179W        W20253   5.447   8.731   0.573  0.2105  0.0525 -0.2392
 4180W        W20254   3.400  11.735  14.757  0.0097  0.0015  0.3185
 4181W        W20255  17.279  15.938  15.247 -0.2547  0.2643 -0.0917
 4182W        W20256   0.900   9.187   2.356  0.2667 -0.0009 -0.0678
 4183W        W20257  12.099   5.523   5.704 -0.2125  0.3939 -0.2348
 4184W        W20258   6.024  15.333  11.460 -0.0790  0.0653  0.1706
 4185W        W20259  12.909   4.942  14.046  0.0254  0.2011 -0.3875
 4186W        W20260   2.963  13.624  16.338 -0.0174 -0.0391  0.1257
 4187W        W20261   4.087  17.286   2.927  0.0034 -0.0955  0.1402
 4188W        W20262   2.645   6.249  13.922 -0.0101  0.2425 -0.0033
 4189W        W20263  12.493   1.356  12.375 -0.1637 -0.0182  0.0031
 4190W        W20264  12.409  14.727   1.299  0.0568 -0.3188  0.0594
 4191W        W20265  17.812   3.158  14.734 -0.1040  0.0816  0.1022
 4192W        W20266  14.501  13.154  14.892 -0.0911  0.3823 -0.0076
 4193W        W20267  12.254  14.947  13.914  0.1861 -0.2417  0.1237
 4194W        W20268  17.683   2.965   5.149  0.0233 -0.1015  0.2899
 4195W        W20269   9.046  18.153  12.621  0.0256  0.0063 -0.1075
 4196W        W20270  15.767   4.981  13.622  0.2652 -0.1305  0.0048
 4197W        W20271  10.900  14.269   4.125  0.0334  0.1078 -0.0834
 4198W        W20272   8.037   4.948   3.546  0.1659 -0.0160  0.1148
 4199W        W20273  11.928  11.133   3.123  0.0972  0.2976  0.0444
 4200W        W20274  14.357  14.743  14.808 -0.0068  0.1768  0.0464
 4201W        W20275   1.381   3.190   5.873  0.0397  0.1632  0.1427
 4202W        W20276  16.259   6.203   4.802 -0.0557 -0.0133 -0.0432
 4203W        W20277   7.414   9.297   0.577 -0.0384 -0.3612  0.1937
 4204W        W20278  16.872  15.652   3.804  0.0780  0.0102 -0.2367
 4205W        W20279   1.339   3.111  13.596 -0.3004 -0.0196 -0.0599
 4206W        W20280  16.560  14.095   1.202  0.0780 -0.0092 -0.0213
 4207W        W20281   4.883  16.620   3.259 -0.0070  0.1831  0.2274
 4208W        W20282   5.221   2.527  13.061  0.1167 -0.0867  0.0028
 4209W        W20283   8.673   3.389   5.045  0.3931  0.3188  0.0829
 4210W        W20284  12.926  10.341   3.884  0.1194 -0.2063  0.0152
 4211W        W20285  12.371  12.256  11.484  0.1591  0.0620  0.0509
 4212W        W20286   0.586  13.581   2.828  0.3109 -0.2143  0.0665
 4213W        W20287  14.396  13.869   3.068 -0.0046 -0.2118  0.2834
 4214W        W20288   9.282  17.491  15.506 -0.1794  0.0991  0.1190
 4215W        W20289  17.917   0.758  12.381  0.1230  0.0716 -0.1653
 4216W        W20290   2.460   6.873  12.705  0.1357  0.1919  0.0567
 4217W        W20291   7.995  12.980  11.166 -0.1867  0.2048  0.1109
 4218W        W20292   4.146   9.230   4.251 -0.0372 -0.2008 -0.2365
 4219W        W20293  10.084   7.603  14.318 -0.1162  0.1206  0.0243
 4220W        W20294   9.643  10.914  13.832  0.4227 -0.2153  0.2294
 4221W        W20295   2.061   5.287   0.364 -0.2514 -0.0619  0.0109
 4222W        W20296   6.981  12.002  11.465 -0.0094 -0.1064  0.0004
 4223W        W20297   8.616   3.913   5.030 -0.1737  0.0836 -0.0074
 4224W        W20298  11.516   2.268  10.820  0.0520  0.0364 -0.0334
 4225W        W20299   7.533   3.161   3.494 -0.4818 -0.2486 -0.1262
 4226W        W20300  15.541  15.063   2.180 -0.0414 -0.0355 -0.3081
 4227W        W20301   5.379   2.089  12.638 -0.2308 -0.1405  0.0090
 4228W        W20302  15.581   1.496   2.623 -0.1947  0.4707  0.3046
 4229W        W20303   1.717   0.493   4.097 -0.0021 -0.1708 -0.1041
 4230W        W20304   3.300  13.938  11.200  0.3078  0.0033  0.0745
 4231W        W20305   0.440  16.807  15.877 -0.1493  0.0132 -0.0719
 4232W        W20306  12.091   9.989   5.621 -0.0994 -0.1892  0.2605
 4233W        W20307  17.184  16.086  14.777  0.1016  0.0275 -0.1645
 4234W        W20308   1.070  13.033  14.282 -0.1254 -0.0333  0.1932
 4235W        W20309   9.537   1.169   3.144  0.3483 -0.2713  0.1173
 4236W        W20310   1.188  12.226  14.820 -0.0315 -0.0611  0.0857
 4237W        W20311   6.443  12.279  14.703  0.1684 -0.3124 -0.2253
 4238W        W20312   5.163   6.003  14.498  0.2524 -0.2206 -0.0441
 4239W        W20313   1.950   9.809   4.217 -0.4575 -0.0406  0.1031
 4240W        W20314  17.350   2.049   1.187 -0.0352  0.0427  0.1288
 4241W        W20315   6.705  11.137   4.641  0.0423  0.2909 -0.4371
 4242W        W20316  13.962  10.501  14.949 -0.1569 -0.0519  0.0292
 4243W        W20317   4.502   4.799  15.523  0.1712 -0.1083  0.1536
 4244W        W20318  14.886   0.438   2.442 -0.2092  0.0435  0.1933
 4245W        W20319  11.671  15.496  14.092  0.1732  0.0986 -0.8142
 4246W        W20320  11.825  11.970  13.249  0.1386  0.0166 -0.2444
 4247W        W20321   9.374   0.150  11.058  0.1225  0.1876  0.0718
 4248W        W20322   6.804  10.522  15.225 -0.0782  0.0618  0.1962
 4249W        W20323  12.085   2.650  10.855  0.2980 -0.0728  0.5164
 4250W        W20324   4.704  18.213   0.078 -0.0263  0.1404 -0.0431
 4251W        W20325  15.637  15.092   0.884  0.3038  0.0590  0.1446
 4252W        W20326   3.054   8.710   1.805  0.0715 -0.0340 -0.1004
 4253W        W20327  14.523  16.443   2.466  0.1003  0.2295 -0.0381
 4254W        W20328   4.551   4.534  10.614  0.0285  0.2789 -0.3499
 4255W        W20329  16.517  10.164   1.960  0.0738 -0.0024  0.0154
 4256W        W20330  10.097  11.816   2.121  0.0942 -0.0230  0.0302
 4257W        W20331   7.429   1.786   6.100  0.2580 -0.3790  0.2523
 4258W        W20332  14.415  11.779  15.751 -0.0331 -0.0042  0.2127
 4259W        W20333  17.089   7.511   0.826  0.3179  0.4416 -0.0739
 4260W        W20334   3.099   8.562  14.617 -0.1969 -0.2754  0.1051
 4261W        W20335   9.938  15.146  11.320 -0.1354 -0.1669  0.4041
 4262W        W20336   1.270  17.165  15.844  0.1237  0.0995 -0.0994
 4263W        W20337   1.306   5.712   5.265 -0.1677  0.0384  0.1276
 4264W        W20338  15.912  13.215   3.616 -0.0924 -0.1416 -0.3374
 4265W        W20339  11.866   1.717  13.058  0.3317  0.0082  0.2566
 4266W        W20340   2.750  17.968   3.143 -0.1286 -0.1525 -0.3867
 4267W        W20341  12.507  15.605  11.255 -0.1888 -0.0311 -0.1652
 4268W        W20342  10.680   6.411   3.875 -0.2911  0.1537  0.3845
 4269W        W20343  11.810   5.742   1.783  0.1211 -0.2720  0.2574
 4270W        W20344  13.812  15.285   1.462 -0.0511  0.0784 -0.2903
 4271W        W20345   3.653   6.689   1.593 -0.0096  0.0112  0.1327
 4272W        W20346   4.679   9.881   4.734  0.1791 -0.0204  0.0208
 4273W        W20347  17.868   9.990  16.056 -0.2591  0.1763 -0.2315
 4274W        W20348   4.541   5.441   1.986  0.1054  0.2152  0.1211
 4275W        W20349   3.432  16.238   3.909 -0.1070  0.2808 -0.0780
 4276W        W20350  12.528  17.462   3.630  0.0897 -0.1405 -0.0118
 4277W        W20351   4.010  17.229   5.046  0.4197  0.1784 -0.1172
 4278W        W20352   5.150  16.148  13.360 -0.1451 -0.0522  0.3741
 4279W        W20353  10.495  14.258   0.991 -0.3275  0.0639 -0.1116
 4280W        W20354   6.021  11.871  10.426  0.1158  0.1358 -0.1947
 4281W        W20355  11.546   0.176  13.838  0.1162 -0.1942  0.1206
 4282W        W20356   4.791   2.050  10.360 -0.0311 -0.0642  0.0517
 4283W        W20357   0.154  17.328   2.190  0.2746 -0.1476 -0.0963
 4284W        W20358   4.511   1.452   2.778 -0.0886  0.0446 -0.1318
 4285W        W20359   2.994  11.460  12.012  0.2188 -0.0922  0.0160
 4286W        W20360  11.190  15.716   5.269  0.2823 -0.0411  0.0476
 4287W        W20361   2.801  10.893   1.038  0.2828 -0.0619 -0.0179
 4288W        W20362   8.967   7.859  11.359 -0.2084 -0.1136  0.0171
 4289W        W20363  17.779  16.754   2.233  0.2346 -0.3379 -0.0492
 4290W        W20364   1.411  17.532   1.312 -0.1980 -0.2380  0.0492
 4291W        W20365   7.201   9.337   5.013  0.0584  0.3896  0.1416
 4292W        W20366  12.186   6.580   3.881 -0.0127  0.0907  0.0019
 4293W        W20367   8.778   5.201  13.404  0.1434  0.2714 -0.0177
 4294W        W20368   0.435   8.588  11.842 -0.1422 -0.0233  0.2660
 4295W        W20369   6.385   7.643   4.546 -0.4013  0.0728 -0.1306
 4296W        W20370  15.165  13.090  13.606 -0.1435  0.0325  0.1874
 4297W        W20371   4.509  15.658  12.838  0.2313  0.0978  0.5408
 4298W        W20372  12.842  13.791   1.053  0.0460 -0.1247 -0.0165
 4299W        W20373   4.832  17.558  11.738 -0.1736 -0.4068 -0.0444
 4300W        W20374   7.445  13.278   0.900 -0.2338 -0.0409 -0.0127
 4301W        W20375  15.179   7.170  12.516  0.0772 -0.0633 -0.1095
 4302W        W20376   3.959  13.188  13.693 -0.1486 -0.0759 -0.1717
 4303W        W20377   7.631   2.668  14.736  0.0989 -0.1460  0.0330
 4304W        W20378  17.956   9.826   4.997  0.2135  0.0902  0.2942
 4305W        W20379   0.500   7.095  14.335  0.0050 -0.1676 -0.2366
 4306W        W20380   1.354  14.824   3.570 -0.0308  0.2477 -0.2629
 4307W        W20381   2.226   6.204   2.147  0.1455 -0.1152 -0.0344
 4308W        W20382   5.025   3.201  14.231  0.0529 -0.2247 -0.1637
 4309W        W20383   0.719   1.116   4.512 -0.0151 -0.0044 -0.2840
 4310W        W20384  13.481   4.665  13.402  0.1317  0.2378 -0.2401
 4311W        W20385   9.688   0.016  11.415  0.1991 -0.0258  0.1236
 4312W        W20386   9.239   6.812  11.883 -0.1734 -0.0439  0.2340
 4313W        W20387   6.904   0.982  13.470 -0.3922 -0.0767 -0.1449
 4314W        W20388   8.766  14.459  13.325 -0.0206 -0.3026  0.3357
 4315W        W20389  12.572   7.299  15.755 -0.4436  0.2620  0.1022
 4316W        W20390   5.196  11.705  11.376 -0.0269 -0.0115  0.4610
 4317W        W20391   0.303   5.817  14.908 -0.1583 -0.1162 -0.0890
 4318W        W20392   0.349  13.365  15.493  0.2416  0.2755  0.0965
 4319W        W20393  15.762  15.561  16.381 -0.1093  0.1030 -0.0245
 4320W        W20394   8.097   5.219   2.814  0.0224 -0.3509 -0.1776
 4321W        W20395   4.748   2.723  11.975  0.1896 -0.0594 -0.5188
 4322W        W20396  13.298   2.580   0.432 -0.0366 -0.1204  0.1291
 4323W        W20397   9.739   9.212   2.821  0.3143  0.0762  0.3395
 4324W        W20398   0.138  13.778   5.249 -0.1320 -0.0394  0.1613
 4325W        W20399  17.831   8.512   3.695 -0.1577 -0.1457  0.1507
 4326W        W20400   9.749   6.227   2.090  0.2827  0.1069  0.1667
 4327W        W20401  12.043  17.717  15.342  0.3171 -0.2509 -0.1315
 4328W        W20402   9.599  17.816   5.019  0.3741  0.0875  0.3332
 4329W        W20403   3.166  16.592  12.174  0.0987 -0.1444 -0.0679
 4330W        W20404   4.545   8.292  13.488  0.1620 -0.0843  0.0125
 4331W        W20405  10.912   2.891  13.458  0.2425 -0.2199 -0.1074
 4332W        W20406   8.257  16.393   0.209  0.0101  0.0244  0.0660
 4333W        W20407   1.280  12.347  15.407  0.1471 -0.1219  0.1566
 4334W        W20408  16.739  13.616   1.130  0.1213  0.0301  0.1256
 4335W        W20409   7.847   3.797   5.483  0.0352  0.1033  0.1477
 4336W        W20410  17.251  13.878   4.993  0.0047  0.1650 -0.3228
 4337W        W20411   4.668  17.820   4.832  0.0861  0.0402  0.0377
 4338W        W20412   4.828   3.268   3.651 -0.2520  0.2178 -0.3277
 4339W        W20413  17.887  16.028  15.323  0.0130  0.0866 -0.1744
 4340W        W20414  18.229  17.683   2.435  0.1335 -0.0687  0.1141
 4341W        W20415  17.590  11.607   6.229 -0.0545 -0.1263  0.2263
 4342W        W20416   0.770   4.024  11.514  0.0295  0.0152 -0.3105
 4343W        W20417   4.012   1.720  14.162 -0.2854  0.0370  0.1186
 4344W        W20418   2.254   3.123   3.809  0.1259  0.0269  0.2501
 4345W        W20419  14.978   3.631  16.052  0.3198  0.3305  0.3000
 4346W        W20420  10.196  11.576  11.589  0.6314 -0.0539 -0.1778
 4347W        W20421  14.737   9.336   1.577 -0.1155  0.0262  0.3341
 4348W        W20422   3.117   9.554   5.851 -0.2268 -0.1611 -0.2619
 4349W        W20423   8.958   6.796  14.723  0.0530  0.1081 -0.0173
 4350W        W20424   5.782  13.146  15.791  0.1470  0.2048  0.1491
 4351W        W20425  12.393   5.755  10.987  0.0348  0.2753  0.1681
 4352W        W20426  11.525  17.360   2.880 -0.0091 -0.2879 -0.0776
 4353W        W20427   6.759   5.314   2.384  0.2484  0.2606 -0.1412
 4354W        W20428   2.327  15.269  12.959 -0.0784 -0.0545 -0.3984
 4355W        W20429   3.067   2.308   1.243 -0.0100 -0.2563  0.1845
 4356W        W20430   6.137   3.646   2.002 -0.1462  0.1932 -0.2127
 4357W        W20431  10.852  17.292   2.393 -0.0254 -0.1764  0.4519
 4358W        W20432  17.627   5.448   6.136  0.2996 -0.0604 -0.1008
 4359W        W20433   0.754   0.429  13.488 -0.4143 -0.1599 -0.0672
 4360W        W20434   0.258   9.065  16.252  0.4104 -0.0463 -0.2910
 4361W        W20435  17.213   8.470   5.153  0.0513  0.3232  0.1262
 4362W        W20436  13.489   8.277   1.504 -0.0535  0.3074 -0.1214
 4363W        W20437  16.532   8.964  13.137 -0.0462  0.1411  0.4174
 4364W        W20438   2.195  13.657   3.865  0.0389  0.3939 -0.0570
 4365W        W20439   3.562  13.876   1.552 -0.2215  0.0486  0.1947
 4366W        W20440  10.405   7.792   2.906  0.1115  0.0318  0.2066
 4367W        W20441   1.723  16.655   3.741 -0.1349 -0.2670  0.0161
 4368W        W20442   3.582   2.205  12.081  0.0951 -0.0284  0.0503
 4369W        W20443  16.200  16.432  13.487  0.1063 -0.2253  0.1059
 4370W        W20444  12.291   6.596  11.185 -0.0820  0.2575  0.1398
 4371W        W20445   8.517  12.457  13.965 -0.0201  0.2816  0.1864
 4372W        W20446  15.061   2.073   0.835  0.1075  0.3788  0.2984
 4373W        W20447  14.356   9.198  15.361  0.1421 -0.1447 -0.1898
 4374W        W20448   4.962   1.675   3.045 -0.2409 -0.0405 -0.2936
 4375W        W20449  12.328   9.694   5.915  0.3560  0.1119 -0.1486
 4376W        W20450  10.485  16.271   2.396 -0.0523  0.0422  0.0758
 4377W        W20451   1.722   2.863  13.730 -0.0412 -0.2063 -0.1451
 4378W        W20452  14.988  10.580  14.021 -0.1301  0.0198 -0.1045
 4379W        W20453  16.979  14.781  15.973 -0.0096 -0.0753 -0.0520
 4380W        W20454  17.482  14.412   2.790 -0.0716 -0.0906  0.2511
 4381W        W20455  16.694   0.215  11.933  0.1006  0.1873  0.2519
 4382W        W20456  14.900   8.190  14.243  0.0601 -0.0818  0.0198
 4383W        W20457  12.529   5.984   4.481 -0.0425 -0.3642 -0.0614
 4384W        W20458   0.904  13.092   5.410  0.2241 -0.1527 -0.1407
 4385W        W20459   9.929  11.318   3.475  0.1667 -0.2969  0.0026
 4386W        W20460   8.227  13.663  13.904 -0.0215  0.0932  0.1603
 4387W        W20461   3.729  13.996  14.381  0.0132  0.2276  0.0952
 4388W        W20462  15.841   2.744   0.522  0.2223 -0.1470 -0.2315
 4389W        W20463   6.172  11.261   4.690  0.2219 -0.0944 -0.0462
 4390W        W20464  15.000   0.242   1.988 -0.1198  0.3519  0.3328
 4391W        W20465  13.304   5.109  14.402  0.3020 -0.2525  0.0379
 4392W        W20466   9.431   0.728   3.720  0.2095 -0.1057 -0.1698
 4393W        W20467   3.849   3.469   3.143  0.1070  0.1046 -0.2578
 4394W        W20468  10.409   0.719  12.469 -0.0198  0.1530  0.2035
 4395W        W20469  16.909  11.122  11.916  0.2915  0.1189  0.1146
 4396W        W20470   6.449   9.187   0.591 -0.0566  0.0015  0.0603
 4397W        W20471   3.975  13.222   2.648  0.1538  0.0276  0.0367
 4398W        W20472  12.846  16.687   1.743  0.0311  0.0233 -0.0360
 4399W        W20473  13.533  15.603   2.538  0.1217  0.1008 -0.0073
 4400W        W20474  17.839  14.424  15.014  0.0828 -0.0314 -0.0870
 4401W        W20475  15.772   7.665   3.804 -0.0118  0.1942 -0.1329
 4402W        W20476  14.764  15.036   1.386  0.0548  0.1174  0.1045
 4403W        W20477   5.118  13.560  11.862  0.0714 -0.0938 -0.0511
 4404W        W20478   5.823  16.790   4.809  0.1355  0.3786  0.1001
 4405W        W20479   2.475  12.033  14.717  0.1242 -0.0602  0.0301
 4406W        W20480  11.795   4.515  13.491 -0.3640 -0.1770  0.3882
 4407W        W20481   9.171  11.961   2.711  0.0848 -0.1982 -0.2315
 4408W        W20482  12.298  14.937  14.378  0.0037  0.0955 -0.0072
 4409W        W20483   8.427   0.661  15.463 -0.3449 -0.1226  0.2346
 4410W        W20484  17.733   0.420   6.449  0.0909 -0.1362  0.1286
 4411W        W20485  10.562  12.576   2.496  0.1518  0.1931  0.3367
 4412W        W20486  12.728   4.852   1.581  0.1277  0.2781  0.2485
 4413W        W20487   6.347   5.208   3.265  0.2095 -0.1528  0.1330
 4414W        W20488   9.944  13.996  15.171  0.1241 -0.0439 -0.4669
 4415W        W20489   4.365  12.462   5.738  0.2383  0.0837 -0.0183
 4416W        W20490   5.910   4.399   4.982 -0.2013 -0.1838 -0.2038
 4417W        W20491  18.090  14.928   4.200  0.1033  0.0549  0.0298
 4418W        W20492  16.209  14.681  15.168  0.4668 -0.2183  0.0929
 4419W        W20493   0.652   1.251   5.612 -0.0555 -0.1339  0.2273
 4420W        W20494  11.726   6.998   5.843  0.2272 -0.0817  0.2647
 4421W        W20495   0.182   4.800  12.734 -0.1516 -0.0234  0.2763
 4422W        W20496   9.663   8.246  15.674 -0.1833 -0.1088  0.2768
 4423W        W20497  10.670   2.762  10.648  0.1003  0.0964  0.0171
 4424W        W20498  18.315   0.642   1.436  0.1044  0.0023  0.3997
 4425W        W20499  11.253   9.071   1.850 -0.1112 -0.1122 -0.1020
 4426W        W20500   4.805  15.840  12.029 -0.0580 -0.0687  0.2261
 4427W        W20501   3.947   2.572   2.203 -0.2983  0.0579 -0.2338
 4428W        W20502  10.954  11.039   4.207 -0.1569  0.2255 -0.0335
 4429W        W20503  17.922  13.466  11.654  0.3211  0.0548  0.0401
 4430W        W20504  10.171   4.886   2.240  0.0391 -0.0091  0.2156
 4431W        W20505  14.605  10.630   1.749  0.0356  0.1248  0.0884
 4432W        W20506  18.327   1.866   5.340 -0.1487 -0.1014  0.2262
 4433W        W20507   4.444   5.928  15.974  0.1025  0.0427  0.2051
 4434W        W20508  16.691  17.348  16.117  0.0420  0.0559  0.0939
 4435W        W20509  12.232   8.234   0.973 -0.3505 -0.1342  0.1819
 4436W        W20510   1.538   2.171   4.739 -0.2217 -0.0334 -0.1145
 4437W        W20511  17.767   0.122  15.273 -0.2359 -0.1520  0.0608
 4438W        W20512   4.689   7.040  14.419 -0.0444  0.1931  0.0754
 4439W        W20513   0.800  12.685   2.261 -0.3953  0.2266  0.0816
 4440W        W20514   1.658  16.634  12.758  0.3504  0.0153 -0.1261
 4441W        W20515   7.765   0.002  13.611  0.4825  0.2117  0.0397
 4442W        W20516   3.853   6.136  13.807  0.1199 -0.0224  0.3440
 4443W        W20517  12.497   6.807  14.048  0.0611  0.0995  0.0636
 4444W        W20518  11.763  16.619   3.214  0.5692  0.2003 -0.1118
 4445W        W20519  12.605   6.829   0.896 -0.0932 -0.5481 -0.1606
 4446W        W20520   5.469  16.697   1.401 -0.1686 -0.1075 -0.4046
 4447W        W20521  13.430  17.165   3.532  0.0439  0.0566 -0.0552
 4448W        W20522   2.284  16.567  12.492  0.1968 -0.0164  0.1996
 4449W        W20523   7.383  13.192   5.517 -0.0289 -0.1399 -0.0006
 4450W        W20524   4.641  13.035  12.864 -0.4413  0.3349  0.1121
 4451W        W20525   3.549  10.800  13.335  0.2855 -0.2435  0.2875
 4452W        W20526   0.669  14.428   4.104  0.0849 -0.1106  0.1618
 4453W        W20527  18.227   2.032   4.289 -0.1733 -0.0485 -0.1953
 4454W        W20528  11.485  18.030  12.996 -0.0266 -0.1615  0.0235
 4455W        W20529  14.058   3.648   4.997 -0.3371 -0.0087 -0.3598
 4456W        W20530   3.586   3.219  15.439 -0.2642 -0.1340 -0.0684
 4457W        W20531   2.969   3.097  16.292 -0.1518  0.2644 -0.0621
 4458W        W20532  10.205   4.074  10.778 -0.0195  0.3025 -0.1452
 4459W        W20533  16.903   7.859  13.010 -0.0836  0.2230 -0.1026
 4460W        W20534   8.347   3.579   3.805 -0.2039  0.1061  0.2234
 4461W        W20535   8.280  17.043  14.142  0.0164  0.2871 -0.0123
 4462W        W20536  13.792  17.116  12.092 -0.0124 -0.0400  0.0091
 4463W        W20537  16.213   8.020  13.392  0.3515  0.2119 -0.3068
 4464W        W20538  15.648  13.428  14.925 -0.0917  0.1339  0.0972
 4465W        W20539  10.239   5.794   4.514 -0.2284 -0.2177 -0.1742
 4466W        W20540  10.914  15.269  15.543  0.4327 -0.0382 -0.2709
 4467W        W20541  13.701   3.790  12.206 -0.0598  0.2053  0.1179
 4468W        W20542  18.164  15.538  15.846  0.2486  0.1356  0.0491
 4469W        W20543   8.814   3.125  12.223 -0.2460 -0.1407 -0.1506
 4470W        W20544  10.132   2.720  15.351  0.0049 -0.0273  0.3380
 4471W        W20545   4.310   2.758   5.925 -0.2077 -0.1847 -0.0683
 4472W        W20546  13.695   8.681  15.519 -0.3279 -0.1505 -0.3131
 4473W        W20547  15.297   0.124  15.240 -0.1057  0.0790 -0.3593
 4474W        W20548   9.794  17.895   0.914 -0.2218  0.1642  0.1466
 4475W        W20549   3.250   1.266  15.382  0.0661  0.0361 -0.0039
 4476W        W20550   4.958  16.916  12.983  0.3890 -0.1958 -0.2055
 4477W        W20551   8.995  17.641  12.573  0.0522 -0.1370  0.1087
 4478W        W20552   3.354   9.618  15.551  0.0440 -0.3912 -0.0472
 4479W        W20553  13.052   1.392  12.414 -0.1565 -0.3259 -0.2438
 4480W        W20554  18.080  16.155  14.846 -0.0275  0.4123 -0.0032
 4481W        W20555   3.043   6.703  12.741 -0.1025  0.2584 -0.3095
 4482W        W20556  10.018   3.288  11.993 -0.2416 -0.1194  0.2498
 4483W        W20557  18.029  13.506  14.593 -0.1521  0.0571  0.0481
 4484W        W20558  15.393   8.167   2.227 -0.4165  0.0830 -0.1266
 4485W        W20559   2.510  18.305  15.983  0.0391  0.1909  0.0325
 4486W        W20560   2.351  13.694   0.673  0.0507 -0.3624 -0.0925
 4487W        W20561   5.405  12.684  12.013 -0.3065 -0.2567 -0.3044
 4488W        W20562   9.749   3.136   4.265  0.2175  0.3189  0.3317
 4489W        W20563   9.670  16.830   2.322 -0.1276 -0.0188  0.1709
 4490W        W20564  11.477   0.306   5.316 -0.0634  0.0227  0.2639
 4491W        W20565   2.409   5.767  13.952 -0.0341 -0.0145 -0.0070
 4492W        W20566   8.838  12.028   4.980 -0.1038  0.1215 -0.0207
 4493W        W20567  16.864   1.723  10.437  0.0077 -0.0144 -0.0734
 4494W        W20568   5.309   6.801   0.905 -0.0005 -0.0398 -0.5594
 4495W        W20569  15.135   8.943   4.995 -0.0349  0.0625  0.2369
 4496W        W20570   7.938   6.881   2.059 -0.1767  0.0296  0.1547
 4497W        W20571  16.923   1.736  15.522 -0.2109  0.3714 -0.0565
 4498W        W20572  11.190   6.287   1.594 -0.1343 -0.2997 -0.0894
 4499W        W20573  13.270   3.995   1.369 -0.0438  0.0645 -0.1162
 4500W        W20574   4.315   4.148   3.524 -0.1112  0.1094  0.1820
 4501W        W20575  15.722  16.270   5.395 -0.2224 -0.1167  0.2882
 4502W        W20576  13.236  17.350   6.318 -0.0454  0.3999  0.2445
 4503W        W20577   0.767   5.246  11.490 -0.0129 -0.1798 -0.3424
 4504W        W20578   5.956  16.212  12.824 -0.1068  0.0631  0.2744
 4505W        W20579  10.259  17.382  11.849  0.2276 -0.1294 -0.0133
 4506W        W20580  16.135   4.035   5.540 -0.0743  0.1971  0.1364
 4507W        W20581  11.941   2.171  15.118 -0.0865  0.1599  0.2217
 4508W        W20582   2.034   2.634   4.065  0.3683  0.1170 -0.0552
 4509W        W20583  11.705   7.776   0.446 -0.3829 -0.0996 -0.1403
 4510W        W20584  12.551  14.631   0.246 -0.0118 -0.1802 -0.2440
 4511W        W20585   8.951   2.650  13.847  0.4214  0.0268  0.0965
 4512W        W20586   3.199  15.191   2.173 -0.0936 -0.0538  0.2310
 4513W        W20587  14.758   5.304  12.706  0.0737 -0.2801  0.1356
 4514W        W20588  14.858   2.212   2.699  0.1936 -0.0497 -0.5116
 4515W        W20589   7.150  17.212   2.108 -0.0253 -0.2223  0.2637
 4516W        W20590  16.950  14.019   1.550  0.2191  0.0362 -0.3244
 4517W        W20591  14.381   2.222   2.563  0.0023  0.1614 -0.2174
 4518W        W20592  15.287   1.325  16.369 -0.0678  0.1568 -0.0759
 4519W        W20593  17.852  18.251  14.161 -0.0452  0.1172  0.1242
 4520W        W20594   8.043   6.513   0.630 -0.3638  0.0994 -0.1146
 4521W        W20595  17.464   9.098  12.707 -0.1927 -0.1242 -0.1855
 4522W        W20596  14.347   1.378   2.921 -0.2384  0.0070  0.1261
 4523W        W20597  11.859   5.080  11.190 -0.1105  0.0561 -0.1991
 4524W        W20598   4.288  14.170  11.087 -0.0829 -0.2292 -0.0601
 4525W        W20599   7.829   0.091   1.487  0.2499 -0.1225  0.0267
 4526W        W20600  14.033   6.525   2.628 -0.2409 -0.1145 -0.2344
 4527W        W20601  10.698  10.590   2.161  0.3927 -0.1133 -0.1661
 4528W        W20602  12.440   3.070  12.092  0.0841  0.2338 -0.0429
 4529W        W20603   9.418   9.783  12.640 -0.0855  0.3939 -0.2065
 4530W        W20604  14.457   1.662  11.189  0.1539  0.4197 -0.0186
 4531W        W20605   4.994   9.737   0.026 -0.1141  0.1667 -0.0847
 4532W        W20606  15.101   6.472  15.521 -0.1610  0.3995  0.0748
 4533W        W20607   4.459  13.088  13.347  0.1965  0.1523 -0.1063
 4534W        W20608  12.321  16.688  15.078 -0.1264 -0.0569 -0.1677
 4535W        W20609  14.967  12.265   3.775 -0.5618 -0.0147  0.0530
 4536W        W20610  14.322  11.548  15.254  0.0842  0.0761  0.2039
 4537W        W20611   1.077   7.788   4.006 -0.2317  0.2538  0.1169
 4538W        W20612  16.914  11.013  16.085  0.0166 -0.1044  0.1640
 4539W        W20613   9.196  10.156  13.254  0.2746 -0.2419  0.1031
 4540W        W20614  15.996   6.122   2.962  0.1169 -0.2802  0.1042
 4541W        W20615   1.410  13.512  12.147  0.0283  0.0875  0.1731
 4542W        W20616  16.988  14.646  14.318 -0.0685  0.1263  0.1614
 4543W        W20617   5.063  13.180   0.746 -0.0811 -0.3851 -0.3754
 4544W        W20618   2.693   2.601   2.449  0.0348  0.1923 -0.0696
 4545W        W20619   3.352  16.493   4.911 -0.0967  0.2630  0.1646
 4546W        W20620  16.993   6.755  14.993  0.1480 -0.0346 -0.1383
 4547W        W20621  16.366  12.986  13.368 -0.3113 -0.0232  0.0293
 4548W        W20622   7.249  11.209   2.218 -0.1368  0.0329 -0.3161
 4549W        W20623   5.804   6.387   2.235  0.0477 -0.1829 -0.2642
 4550W        W20624   1.300   9.144   3.600 -0.3142  0.0207 -0.2620
 4551W        W20625  14.135   5.527  14.253  0.2106  0.0760  0.1140
 4552W        W20626   5.206   0.166  11.743  0.0548  0.1979 -0.6752
 4553W        W20627   2.070  11.950   4.340  0.0706 -0.2196 -0.3485
 4554W        W20628   8.578  14.133  13.601  0.1828  0.1502  0.3080
 4555W        W20629   2.598   3.278  14.082 -0.3120 -0.0047  0.2288
 4556W        W20630   3.693   6.032  13.235  0.1244  0.1778  0.4117
 4557W        W20631   8.152  17.668  11.603  0.2024  0.1908 -0.0453
 4558W        W20632   6.626   2.851  13.918  0.1190  0.2322 -0.1209
 4559W        W20633  13.208  14.844  15.088 -0.1039 -0.0040 -0.0874
 4560W        W20634   5.552   7.002  11.854  0.0428  0.3412 -0.2058
 4561W        W20635   8.884   2.788   3.955  0.0438  0.0437 -0.1428
 4562W        W20636   0.863   1.828   2.187  0.1113  0.1059 -0.3602
 4563W        W20637   2.287   0.664   0.513  0.0037  0.0928  0.4583
 4564W        W20638   5.603  17.136   5.080  0.0814 -0.1059  0.0647
 4565W        W20639  12.814  10.783  13.512 -0.0960 -0.1799  0.7156
 4566W        W20640   4.927   8.046   0.466  0.0474  0.2378  0.2035
 4567W        W20641  17.994   5.492  11.910 -0.2779 -0.0652 -0.0453
 4568W        W20642   5.729   4.295   4.395 -0.1163 -0.1177 -0.2105
 4569W        W20643   2.983   4.051   1.285 -0.0297 -0.0278 -0.2353
 4570W        W20644  10.630  13.300  13.349 -0.1451 -0.3922  0.2676
 4571W        W20645   2.166  11.395  12.169 -0.3841 -0.1659 -0.0540
 4572W        W20646  13.458  18.007  13.987 -0.0215 -0.0878 -0.1292
 4573W        W20647   7.594   2.715  11.491  0.1386 -0.3129 -0.1662
 4574W        W20648  18.258   6.884  16.357 -0.0387 -0.1367 -0.1274
 4575W        W20649   6.067   6.705  13.052  0.2641 -0.0067  0.2954
 4576W        W20650  17.085   5.526  13.547 -0.0019 -0.1115  0.0861
 4577W        W20651  10.282  17.755  14.344 -0.0879 -0.1930 -0.1043
 4578W        W20652  16.802  11.238  11.436  0.2648 -0.1939 -0.0768
 4579W        W20653   7.619  17.505   1.289  0.2741 -0.0023  0.0731
 4580W        W20654   4.333  18.256   6.128  0.0972  0.4421 -0.0663
 4581W        W20655   6.695   1.773  11.883  0.0786 -0.2267  0.1643
 4582W        W20656  14.245  16.521   1.971  0.2606 -0.2408 -0.3216
 4583W        W20657   2.145   1.304  16.365 -0.1718  0.0869  0.1511
 4584W        W20658  16.129   4.631   6.015 -0.1168  0.0935  0.1562
 4585W        W20659   5.532   5.442   2.995 -0.0496 -0.0142 -0.1819
 4586W        W20660  17.439   3.437   0.118  0.0912  0.2030 -0.4204
 4587W        W20661   1.697  13.696  16.118 -0.0393 -0.4015 -0.2934
 4588W        W20662   5.270  12.744  11.518  0.1124 -0.0305  0.5084
 4589W        W20663   8.720   2.831  15.650 -0.0907  0.2088  0.1478
 4590W        W20664  15.656   0.655   0.947 -0.0914  0.1561 -0.0610
 4591W        W20665  12.088   0.792   4.261  0.0575 -0.2213 -0.0543
 4592W        W20666   1.329   9.191   5.759  0.1792  0.0356  0.1054
 4593W        W20667   0.514   4.414  13.412  0.2549 -0.2747  0.2136
 4594W        W20668  18.120   4.735   2.480  0.0900 -0.2719 -0.0491
 4595W        W20669   7.123   2.641   4.071 -0.3903 -0.0737 -0.1026
 4596W        W20670   8.419   7.336  13.762 -0.0849 -0.2662  0.0177
 4597W        W20671  16.744   3.717   2.866  0.1968 -0.0175 -0.6153
 4598W        W20672  11.673   7.731  15.204 -0.2593  0.3283 -0.1001
 4599W        W20673  11.276  13.659   4.673 -0.2490 -0.0670 -0.1887
 4600W        W20674  15.122   4.749   4.715  0.0058 -0.1014  0.1547
 4601W        W20675  11.418   2.758   0.047 -0.0725  0.0282  0.0131
 4602W        W20676  17.087  14.711   0.952  0.3638  0.1607 -0.1219
 4603W        W20677   8.041   3.963   3.749  0.0778 -0.0067 -0.0532
 4604W        W20678  17.395   8.833   3.586 -0.2450  0.1278 -0.1061
 4605W        W20679  13.346  11.490   0.822  0.0635 -0.0504  0.0670
 4606W        W20680   7.828  17.277   2.751  0.5030  0.1697  0.1720
 4607W        W20681  10.372  17.296   1.546  0.3581 -0.1561  0.0326
 4608W        W20682  16.070   9.085   4.420  0.4684 -0.0625 -0.1592
 4609W        W20683  16.313  14.685   0.311 -0.0956 -0.0799 -0.0982
 4610W        W20684  15.191  13.058  14.111  0.0298  0.1257 -0.0168
 4611W        W20685  12.494  15.749  14.429 -0.0395 -0.1947  0.1447
 4612W        W20686  10.721  13.728   4.743  0.2326 -0.1331 -0.2502
 4613W        W20687  15.662   4.502   5.913 -0.3301  0.1363  0.3053
 4614W        W20688  13.250  16.945  11.394 -0.1025 -0.1504 -0.2729
 4615W        W20689   3.115  16.042  13.386  0.0875 -0.2727 -0.2677
 4616W        W20690  11.432   8.459   4.301 -0.1752  0.3236 -0.0273
 4617W        W20691  14.913   6.106   6.480 -0.3124 -0.4792  0.1516
 4618W        W20692  17.997   1.074   5.946 -0.0203  0.1684 -0.1581
 4619W        W20693  17.096   9.440   5.232  0.1863 -0.0124 -0.1707
 4620W        W20694  10.643  16.212   0.537 -0.0715 -0.3039  0.1024
 4621W        W20695   0.397   6.767   4.278  0.0641 -0.2016  0.1251
 4622W        W20696   6.465  13.808   4.773  0.1088 -0.1402  0.0042
 4623W        W20697   7.511   1.693  16.008 -0.2639  0.1864  0.0009
 4624W        W20698   7.247  10.217  12.503 -0.0201  0.0769 -0.0828
 4625W        W20699   4.457   5.663   4.483  0.0663  0.2124 -0.0375
 4626W        W20700   9.271   5.705  13.045 -0.4274 -0.0280  0.1397
 4627W        W20701  12.969  16.311   3.009 -0.5459  0.0946  0.1923
 4628W        W20702   5.719   7.403  13.136 -0.0707 -0.1258 -0.1952
 4629W        W20703  14.118  18.199  12.204  0.0731 -0.0290 -0.3334
 4630W        W20704   9.261   7.050  16.054 -0.0174 -0.2929 -0.2944
 4631W        W20705  15.034   6.901  12.998 -0.0387 -0.1082 -0.1800
 4632W        W20706   6.689  11.638  14.255  0.2955 -0.2146 -0.2238
 4633W        W20707  15.886  16.418   4.417 -0.1987 -0.0809 -0.2044
 4634W        W20708   8.610   5.744   0.694 -0.0216  0.0161 -0.1739
 4635W        W20709  13.353  12.200  11.584  0.0027 -0.2083  0.2416
 4636W        W20710  17.397  15.327   5.981  0.2320 -0.0294 -0.2277
 4637W        W20711  15.603   4.052   3.901  0.1750  0.5840  0.0360
 4638W        W20712   2.774   4.247  15.990 -0.1597  0.0988  0.0126
 4639W        W20713   9.723   5.953   1.665  0.0457 -0.0169 -0.2597
 4640W        W20714   3.691  12.123  12.793  0.1254  0.0003 -0.1825
 4641W        W20715  11.883   7.835  12.251 -0.0676  0.0651 -0.0425
 4642W        W20716  12.628  16.137   3.772 -0.0827  0.0411 -0.0717
 4643W        W20717   3.683  13.905  12.985 -0.1736 -0.3009  0.1214
 4644W        W20718  14.172   8.036  15.990 -0.2918 -0.1181  0.0398
 4645W        W20719   3.704   0.671   1.822 -0.2711  0.4316  0.1391
 4646W        W20720   0.532  17.124  11.790 -0.0508 -0.1913  0.0157
 4647W        W20721  12.600   0.664  11.911 -0.0141 -0.1685  0.1437
 4648W        W20722   9.649  12.491   0.190  0.3998 -0.3709  0.1565
 4649W        W20723  17.252   1.260  13.886 -0.0444 -0.0214 -0.0579
 4650W        W20724   0.686   9.828   3.331  0.0355 -0.0110  0.1118
 4651W        W20725  10.278   3.740   0.479 -0.0915 -0.6062  0.1642
 4652W        W20726  10.847  10.649   3.930  0.1145  0.0448  0.2810
 4653W        W20727   4.526   2.663   4.466 -0.0454 -0.2063  0.2994
 4654W        W20728   6.727   5.815  13.630  0.3578 -0.0025 -0.0973
 4655W        W20729  12.173   4.650  13.879  0.1962 -0.0870 -0.0813
 4656W        W20730  10.958   8.846   1.490 -0.3138 -0.0917  0.0080
 4657W        W20731   4.763   1.344   4.861  0.0894 -0.1188 -0.0066
 4658W        W20732  18.013  18.165  11.976 -0.1747 -0.1358 -0.1761
 4659W        W20733   5.930   8.323   4.529 -0.1152  0.1833  0.2014
 4660W        W20734   9.260   7.090  12.536 -0.1833 -0.1457 -0.1522
 4661W        W20735  13.247  17.934   2.773 -0.3344  0.1003 -0.0835
 4662W        W20736  14.876  14.590  15.005 -0.2661 -0.2306 -0.1311
 4663W        W20737  17.550  13.887  14.229  0.0138  0.0894 -0.0792
 4664W        W20738   4.000   0.330   2.149 -0.0479  0.0727  0.1984
 4665W        W20739  11.073   7.691  14.740 -0.2537  0.1265  0.1548
 4666W        W20740  14.334   0.409  14.918 -0.2056 -0.2297 -0.0806
 4667W        W20741   3.669   6.998  12.602 -0.0011  0.0496 -0.4982
 4668W        W20742  15.040  13.961  13.724  0.2618  0.1691 -0.0483
 4669W        W20743  15.115   7.741   2.924  0.1440 -0.0873 -0.1041
 4670W        W20744   9.526   1.207   2.217  0.3045 -0.0104  0.2411
 4671W        W20745  10.471   1.618   1.073  0.1754  0.5251  0.2054
 4672W        W20746  11.239   3.635  12.716  0.2602  0.3063  0.0603
 4673W        W20747   5.484   6.743  14.247  0.4863 -0.0269 -0.0322
 4674W        W20748  17.120  17.690  15.864  0.1377 -0.1272 -0.1573
 4675W        W20749   1.575   7.412   2.457 -0.5662  0.2149  0.3402
 4676W        W20750   8.789   9.903   4.113 -0.1212  0.2166  0.5931
 4677W        W20751   9.973  11.657   1.688  0.2631 -0.1847 -0.1410
 4678W        W20752   6.562   4.899  12.555 -0.1796 -0.0294 -0.3030
 4679W        W20753   4.353   3.488   2.819  0.1235 -0.1400  0.1446
 4680W        W20754  12.073  14.034  16.298  0.1303  0.2668 -0.1078
 4681W        W20755   9.573  11.528   3.765 -0.0042 -0.0021 -0.0191
 4682W        W20756  14.812  16.933  15.921 -0.0857  0.0438  0.0373
 4683W        W20757  13.795   7.777  15.220 -0.1890 -0.3027  0.3259
 4684W        W20758  11.982  13.782  12.457  0.1043 -0.1920 -0.0669
 4685W        W20759   7.557   6.177   2.883  0.0260  0.0773 -0.1088
 4686W        W20760  13.206   3.009   0.705  0.2183  0.0883 -0.1156
 4687W        W20761   7.459   8.711   0.555  0.1209  0.1130 -0.1039
 4688W        W20762  17.494   8.780  12.188 -0.0308  0.0058 -0.0819
 4689W        W20763  17.897  18.063   2.739 -0.1699  0.0979 -0.1072
 4690W        W20764   3.789   6.319  11.476  0.1179  0.1602  0.0793
 4691W        W20765   9.826   7.706  13.343  0.4545 -0.1075  0.1927
 4692W        W20766   8.295   7.797   0.244  0.0503 -0.1357  0.0925
 4693W        W20767   4.291   4.479   0.529  0.0366 -0.0549 -0.2036
 4694W        W20768   2.434   8.209   5.029 -0.1562 -0.0062 -0.1867
 4695W        W20769   0.224   3.281   2.430  0.3972 -0.0977 -0.0459
 4696W        W20770  17.339   2.270   1.800  0.1172  0.0763 -0.0345
 4697W        W20771   1.127  12.768   1.680 -0.2656  0.0663 -0.1075
 4698W        W20772  13.909   1.104   3.883  0.4737 -0.0830 -0.1543
 4699W        W20773   2.782   2.840  14.222  0.1465  0.0330  0.1083
 4700W        W20774   8.337  13.041   0.503  0.1112  0.2108 -0.1624
 4701W        W20775  17.774   2.351   0.965  0.1788 -0.0120 -0.2585
 4702W        W20776   7.705   9.833   1.899 -0.4026 -0.0703  0.0683
 4703W        W20777  16.259  10.558  15.574 -0.1800  0.0667 -0.0709
 4704W        W20778   0.231  17.913  16.377  0.0050  0.4253  0.1697
 4705W        W20779   1.383   8.973  16.241  0.1598  0.3734 -0.3248
 4706W        W20780   7.501  11.060  15.555 -0.2862  0.0033  0.2762
 4707W        W20781   9.539  11.438  14.889 -0.1656  0.1014  0.0818
 4708W        W20782  10.868  11.347  12.233  0.1240  0.2643  0.0549
 4709W        W20783  14.701  14.612   5.460  0.0729  0.3406 -0.2127
 4710W        W20784  11.266  15.202  14.361  0.0914  0.0224 -0.2864
 4711W        W20785   7.822  15.205   1.610 -0.0134 -0.0594 -0.0835
 4712W        W20786   2.461   1.640   3.129  0.2791  0.2739 -0.0329
 4713W        W20787   9.612  12.554  13.116 -0.0915 -0.0253 -0.0430
 4714W        W20788   5.413  10.544   4.872  0.0986  0.4253 -0.1873
 4715W        W20789  18.068   8.319   0.131 -0.4214  0.0963 -0.1698
 4716W        W20790  17.506  16.022   1.690 -0.2696  0.2607  0.1343
 4717W        W20791  16.670  10.055   5.889  0.3810 -0.1180 -0.1900
 4718W        W20792   6.886   4.607   4.131  0.0806 -0.0404  0.0413
 4719W        W20793   9.665   7.907   2.266 -0.0407  0.2256 -0.1811
 4720W        W20794   4.322  12.685  14.509 -0.1257  0.0836  0.3666
 4721W        W20795   6.074   8.483   3.538 -0.0080 -0.2428  0.0053
 4722W        W20796   0.472   8.907   0.710  0.1138 -0.0094  0.0359
 4723W        W20797   2.328   5.198   0.829 -0.2855 -0.0122 -0.0006
 4724W        W20798  18.046  15.033  11.964 -0.0621 -0.1289 -0.2335
 4725W        W20799   5.485  16.071  12.934  0.1967  0.0184  0.0092
 4726W        W20800   3.471  11.029   1.465 -0.2313 -0.0600 -0.5779
 4727W        W20801   4.566   9.819  16.242  0.1125 -0.2983  0.2016
 4728W        W20802   3.266   4.229  15.774 -0.0407  0.0293 -0.1371
 4729W        W20803  12.802   1.544   5.690  0.3425  0.1305 -0.2388
 4730W        W20804   3.389  15.845  12.236 -0.3903  0.3665  0.0018
 4731W        W20805   8.142  16.088  11.124 -0.1162  0.1074 -0.1424
 4732W        W20806  11.685  14.266  12.203  0.2579 -0.1541  0.1573
 4733W        W20807   7.295   7.189  14.654 -0.1398 -0.2732 -0.3026
 4734W        W20808   3.882   7.770  15.728  0.1571 -0.0552 -0.4231
 4735W        W20809   8.852   3.493  14.674 -0.0844 -0.1610  0.2281
 4736W        W20810  13.454   4.465   1.276  0.0053  0.0276  0.2485
 4737W        W20811   2.758   5.115  13.864 -0.1643 -0.0473 -0.2491
 4738W        W20812  13.224   4.959  11.624 -0.1659 -0.0480  0.1919
 4739W        W20813  11.130   4.253  11.759  0.3758 -0.0094 -0.2549
 4740W        W20814   1.641   3.693   0.083 -0.1486 -0.1094  0.0619
 4741W        W20815  11.805   5.805  12.771 -0.0399  0.2726 -0.1741
 4742W        W20816  10.102  13.311   3.096  0.2792 -0.1031  0.0437
 4743W        W20817  16.525  14.351   4.876 -0.2394 -0.3091  0.1890
 4744W        W20818  14.351   9.494  13.329 -0.0366 -0.0934 -0.0163
 4745W        W20819   5.299  13.384  10.333 -0.1818 -0.2368 -0.2330
 4746W        W20820   8.280  10.694   4.801 -0.1751  0.3485  0.2134
 4747W        W20821  10.802   1.251   2.537  0.3891  0.0671  0.0923
 4748W        W20822   6.725   1.234  14.811  0.2589  0.2030 -0.2495
 4749W        W20823  17.094  11.120  14.943  0.1418 -0.0275  0.0589
 4750W        W20824  15.360   9.171  12.310 -0.0317  0.3342  0.1951
 4751W        W20825   2.249  14.212   3.821  0.2145  0.0519  0.2618
 4752W        W20826  14.087  17.709  13.365  0.0920  0.0129  0.2635
 4753W        W20827  17.308   0.011   4.108 -0.1489 -0.0125 -0.0475
 4754W        W20828   8.898  10.688   0.336  0.1271 -0.0288 -0.0527
 4755W        W20829   2.259  12.204  15.405  0.2382 -0.0708 -0.0866
 4756W        W20830   1.502  12.143   0.171  0.1805  0.0416 -0.0602
 4757W        W20831  11.869   8.321   5.634  0.2021 -0.0424 -0.0647
 4758W        W20832   7.372   7.750  11.060  0.1059  0.0841 -0.1728
 4759W        W20833  10.516   8.378   5.310  0.4038 -0.3007  0.2574
 4760W        W20834   7.859   2.813  13.753 -0.0547 -0.3022 -0.2386
 4761W        W20835  13.347   7.516   1.949 -0.0232 -0.1671  0.1770
 4762W        W20836  11.657  11.671   2.521 -0.0140  0.2177 -0.2753
 4763W        W20837   5.912   0.462   4.308  0.0993 -0.0315 -0.3370
 4764W        W20838  16.062   2.695  11.599  0.1672 -0.2247  0.0942
 4765W        W20839  12.509   5.341   0.589  0.2172  0.1214  0.1027
 4766W        W20840   7.445   6.590   3.592 -0.4031 -0.0223 -0.0846
 4767W        W20841   9.913   5.780   3.698 -0.1886 -0.1123 -0.0515
 4768W        W20842   0.522  17.622   1.280 -0.0219  0.2037  0.0238
 4769W        W20843   6.659  12.388   0.083 -0.3674  0.0079  0.0731
 4770W        W20844  17.321  14.250   1.261  0.1120 -0.1506  0.0810
 4771W        W20845  16.939   6.246  11.440  0.0385  0.1047 -0.1945
 4772W        W20846  16.292  12.778  14.692  0.2153 -0.1676  0.0166
 4773W        W20847   5.091  14.570   1.626 -0.2372  0.0293  0.1472
 4774W        W20848   9.322   2.952  15.111 -0.3658 -0.0460 -0.1508
 4775W        W20849  13.034  14.054   1.428 -0.0749  0.1000  0.2751
 4776W        W20850  13.287   9.866  13.362  0.0260  0.4455 -0.0721
 4777W        W20851  11.783   1.957   1.912  0.0949  0.3370 -0.1360
 4778W        W20852  17.573  11.639   2.170  0.1561 -0.0011 -0.0284
 4779W        W20853   2.977  18.164  13.525 -0.0614 -0.1175 -0.2995
 4780W        W20854  12.000   4.428   0.891  0.1165  0.0271  0.1776
 4781W        W20855   0.808  15.192  15.175 -0.1542  0.2909  0.0100
 4782W        W20856   4.891  12.424   1.790 -0.0273 -0.2515  0.0631
 4783W        W20857   1.744  16.755  11.796 -0.1394  0.0270  0.0233
 4784W        W20858  15.548   2.573  14.426 -0.0320  0.3502  0.1129
 4785W        W20859   8.755   4.121   4.548  0.1110  0.2335 -0.0043
 4786W        W20860   0.653  15.521   3.558 -0.0063  0.0641  0.4161
 4787W        W20861   0.255   9.928  14.092 -0.1724 -0.0674  0.3558
 4788W        W20862  11.427  10.875  15.038 -0.0317 -0.0949 -0.0253
 4789W        W20863  18.261  15.241   6.408  0.2667 -0.1939 -0.1503
 4790W        W20864  15.649  16.006   1.240 -0.1879 -0.1060 -0.0605
 4791W        W20865  14.893  13.474  13.392 -0.0345 -0.1244 -0.0451
 4792W        W20866  11.885   3.814  11.287 -0.0617  0.0605  0.3274
 4793W        W20867  14.532  13.383   2.469  0.0664  0.0179  0.0449
 4794W        W20868   9.924  12.056  11.477 -0.2096  0.0954 -0.3531
 4795W        W20869   6.725  11.927  15.204  0.0817  0.1926  0.0192
 4796W        W20870  17.117   4.548   3.365 -0.1178  0.3554 -0.1529
 4797W        W20871   6.768  16.484   2.458 -0.0279 -0.6528 -0.2526
 4798W        W20872  10.658  17.649  13.504  0.0409 -0.0748  0.0641
 4799W        W20873   9.248  12.964   1.861 -0.1975 -0.0679  0.1246
 4800W        W20874   9.434   0.718   4.462 -0.2620 -0.0442 -0.0530
 4801W        W20875   1.687  17.732  13.291  0.2152 -0.1235  0.0572
 4802W        W20876   7.042  16.392  14.856 -0.1492 -0.1185  0.0043
 4803W        W20877   3.211  16.665   0.122  0.4140 -0.0847 -0.1003
 4804W        W20878   3.824  12.169  13.317 -0.2115  0.0281 -0.2124
 4805W        W20879   4.609  11.449   1.500 -0.1060  0.2901 -0.0783
 4806W        W20880   3.932   4.816   1.504  0.1000  0.1391 -0.1596
 4807W        W20881  12.016   3.912   4.322  0.0715  0.2852 -0.0324
 4808W        W20882   9.470  15.713   3.132 -0.0514  0.1669 -0.0491
 4809W        W20883   8.450  13.350   4.683  0.0639  0.1436 -0.0908
 4810W        W20884   1.362  16.642   2.508  0.0401 -0.0031 -0.1867
 4811W        W20885   7.117   5.639  12.635  0.0930  0.3654 -0.1654
 4812W        W20886  16.550   7.203   1.145 -0.4760 -0.6012  0.0324
 4813W        W20887   7.939   7.740   1.487  0.1459 -0.1022 -0.0393
 4814W        W20888   6.181   1.437  10.163  0.0681 -0.0281  0.0383
 4815W        W20889  13.745  17.013   0.627  0.0104 -0.0228  0.0698
 4816W        W20890  16.343   7.683   1.612 -0.1430  0.0825  0.0233
 4817W        W20891  13.520  15.559   0.829  0.2987 -0.0602 -0.0657
 4818W        W20892   4.530  16.533   5.771  0.2480 -0.3167  0.1119
 4819W        W20893   8.518  12.755   2.801  0.3124 -0.2103 -0.0120
 4820W        W20894  11.029  17.860  10.959  0.1116 -0.0277 -0.0128
 4821W        W20895   4.850  12.134   5.576  0.0662  0.0083  0.3017
 4822W        W20896   6.816  11.148  12.916  0.3483 -0.0388 -0.2247
 4823W        W20897   6.636   8.305   3.755  0.0216  0.0534  0.3884
 4824W        W20898  15.637  13.098   5.418 -0.1123  0.1460  0.2400
 4825W        W20899   3.738  10.843   2.583 -0.0569 -0.0237 -0.1482
 4826W        W20900   2.161   2.561  14.653 -0.3409 -0.0598 -0.1329
 4827W        W20901   2.131  15.387  14.563  0.1015  0.0731 -0.0780
 4828W        W20902   8.691   7.745  16.276  0.0486  0.0190 -0.0875
 4829W        W20903   8.088   8.617   2.760 -0.2399 -0.2176  0.3868
 4830W        W20904   2.378   9.161   5.097 -0.1063 -0.0261  0.0674
 4831W        W20905  18.189   4.233  15.547  0.0253  0.1947  0.3178
 4832W        W20906   6.693   8.740  13.695  0.2828 -0.0858  0.2030
 4833W        W20907  11.284  11.795   3.622 -0.0298  0.3672  0.0657
 4834W        W20908   0.654   4.284   0.128  0.0536 -0.2319  0.2162
 4835W        W20909  14.072  11.392   0.139  0.3387  0.1905 -0.0618
 4836W        W20910  16.128  17.005  11.771 -0.1399  0.1215  0.0676
 4837W        W20911  12.998  11.238   4.499 -0.0618  0.0293  0.1509
 4838W        W20912  11.972  13.457   3.181  0.2297 -0.2457 -0.3439
 4839W        W20913   9.459   3.209  13.708  0.3803 -0.1654  0.0050
 4840W        W20914  16.723   4.998   5.115 -0.0046  0.1924  0.0525
 4841W        W20915  15.862  11.127  11.898 -0.2338 -0.5005  0.1085
 4842W        W20916   8.557  16.262   2.862  0.0698  0.1483  0.4258
 4843W        W20917   9.838  15.969   0.514 -0.3998 -0.0902 -0.1873
 4844W        W20918  12.886  13.409   3.839 -0.2339 -0.2612 -0.2315
 4845W        W20919   0.795   5.547  12.863 -0.1082  0.1358  0.3698
 4846W        W20920   1.136  12.091   2.205  0.2106 -0.2718  0.3267
 4847W        W20921  16.570  10.261  14.731  0.2409  0.1631  0.0742
 4848W        W20922  14.278  12.743  15.772 -0.2482  0.1428 -0.0740
 4849W        W20923   1.474   2.800   2.798  0.1852  0.0628 -0.0110
 4850W        W20924  15.510  10.046  11.502 -0.0862  0.0949  0.1233
 4851W        W20925  13.650  11.310   4.223  0.1600  0.0015  0.0536
 4852W        W20926  12.725   8.890   1.048 -0.3065  0.1466  0.7619
 4853W        W20927   2.380  10.050   4.171  0.1895  0.0739 -0.2235
 4854W        W20928   4.757   4.253   2.103  0.0068  0.2250 -0.1984
 4855W        W20929   0.225   7.706  12.444 -0.0542  0.0570 -0.0422
 4856W        W20930   9.843  14.445   5.017 -0.0314  0.0491  0.3208
 4857W        W20931  13.123  14.471  14.685  0.4583 -0.3104  0.0960
 4858W        W20932   1.561   7.197   2.019 -0.1811  0.5833  0.2357
 4859W        W20933   8.640   4.319  11.435  0.1199  0.0800 -0.0339
 4860W        W20934   4.729   7.402  12.335  0.2079  0.0379 -0.0517
 4861W        W20935   2.830  14.127  13.539  0.2369  0.2335  0.3748
 4862W        W20936   3.876   6.157   2.895  0.1762 -0.0781 -0.1781
 4863W        W20937   5.224   7.268  13.044  0.1684  0.1075 -0.1075
 4864W        W20938  12.485   4.361   0.831  0.0286  0.0604 -0.0586
 4865W        W20939   8.053   7.851  14.891 -0.0437  0.2689  0.0194
 4866W        W20940   4.384   4.434  14.207 -0.0784  0.2003  0.1443
 4867W        W20941   8.316   1.097  12.834 -0.2411  0.1344 -0.1063
 4868W        W20942  17.434   9.414   0.590  0.0052  0.2757 -0.4506
 4869W        W20943   3.549   3.717   2.539  0.1610 -0.4740  0.0557
 4870W        W20944   1.604   4.515  14.484 -0.0780 -0.0411  0.0219
 4871W        W20945  17.973   4.479   4.122 -0.2240 -0.1136  0.0666
 4872W        W20946   1.402   0.276   3.785 -0.1442  0.1664 -0.3437
 4873W        W20947  13.951   3.913   4.020  0.0310  0.1855  0.3628
 4874W        W20948   7.017   2.130   4.303  0.0200  0.2266 -0.0114
 4875W        W20949  15.682  10.823   4.052 -0.0433 -0.1411  0.0566
 4876W        W20950   7.302   7.296  12.768 -0.1951 -0.3427  0.0292
 4877W        W20951   9.431   6.459  13.928 -0.1092  0.1204  0.0218
 4878W        W20952  13.773   8.487  11.517  0.0876  0.0583  0.0609
 4879W        W20953   8.385  14.114  14.081  0.0966  0.0050 -0.2173
 4880W        W20954  16.655  12.683   0.677 -0.1340 -0.0062  0.1268
 4881W        W20955  11.473   4.932   2.785  0.0883 -0.1070  0.2207
 4882W        W20956  18.226  14.376   1.338 -0.2388  0.3805  0.3718
 4883W        W20957   4.885   2.573   0.267  0.2787 -0.3505  0.2590
 4884W        W20958   2.196   4.904  11.621 -0.3074  0.2967  0.2905
 4885W        W20959  11.525  17.626  15.563 -0.1316  0.2421  0.0406
 4886W        W20960   8.750  12.767  12.263  0.1608 -0.0497  0.4242
 4887W        W20961   5.277   3.852  13.506  0.2254  0.1637 -0.2036
 4888W        W20962  11.269  14.448   5.221  0.0890 -0.0624 -0.0706
 4889W        W20963   2.733  14.551   1.392  0.1849  0.1344 -0.1236
 4890W        W20964  16.446  17.885  10.876  0.1408  0.1878 -0.1483
 4891W        W20965  10.241  11.372   3.027 -0.2161 -0.1792  0.3160
 4892W        W20966   8.561   1.179  14.734 -0.4120 -0.3558  0.2740
 4893W        W20967   8.358  18.148  11.864  0.0259 -0.3398  0.0614
 4894W        W20968  10.578   8.428   2.021 -0.1425  0.2471 -0.1066
 4895W        W20969  14.184  16.622  12.909 -0.1904 -0.1669  0.2641
 4896W        W20970   9.589   3.606  10.958 -0.1829  0.2016  0.0396
 4897W        W20971   0.069   5.064   4.345 -0.2602  0.0590 -0.0345
 4898W        W20972  13.706  14.714  11.372  0.3154  0.3376  0.0500
 4899W        W20973   0.026  16.612  15.027  0.0861 -0.0065  0.1079
 4900W        W20974   6.919  16.155   4.275  0.0886 -0.1521  0.3281
 4901W        W20975   3.948  13.569  15.966  0.0189 -0.0669 -0.0414
 4902W        W20976   6.839   3.824   1.866 -0.0899  0.1243 -0.3145
 4903W        W20977   4.422  16.966   0.625  0.1261  0.1326  0.1620
 4904W        W20978   2.559  15.070  11.356 -0.0095  0.2470 -0.1251
 4905W        W20979  15.003   7.524  15.157 -0.1118  0.1837  0.1292
 4906W        W20980   8.940  13.145  13.906 -0.2887  0.0331 -0.0616
 4907W        W20981  10.545   0.442   0.149  0.0847  0.1791 -0.2287
 4908W        W20982  11.917  16.010   0.818  0.1223 -0.0109 -0.0228
 4909W        W20983   8.574  11.792  15.741  0.4592  0.1431  0.0299
 4910W        W20984   0.118   6.520  15.477 -0.2174 -0.2008  0.4685
 4911W        W20985   7.360  11.489   6.448  0.1431  0.0919  0.1770
 4912W        W20986   3.317   4.157   5.470  0.2045 -0.0414 -0.0706
 4913W        W20987   7.947   5.767   4.023  0.1500 -0.1059  0.1347
 4914W        W20988   7.476  16.587  11.880 -0.1398 -0.0173  0.0079
 4915W        W20989   0.381   9.724   1.468 -0.2530  0.0494 -0.1437
 4916W        W20990   6.859  12.047   3.482 -0.1096  0.0527 -0.2402
 4917W        W20991   7.995  14.970   3.986  0.2222 -0.0863 -0.1267
 4918W        W20992  16.363   7.801   0.539  0.0419  0.1991  0.1147
 4919W        W20993   4.799  13.676   3.538 -0.3504  0.1695 -0.1782
 4920W        W20994   6.565   7.855  14.985  0.0132 -0.1892  0.0218
 4921W        W20995   2.536  17.073   5.056 -0.0675 -0.0937 -0.0359
 4922W        W20996   4.230   4.863  13.658  0.1856 -0.0617  0.0227
 4923W        W20997  11.156  12.663  14.060  0.1825  0.1076  0.1242
 4924W        W20998   0.793  11.362  12.479  0.0674  0.2609  0.2184
 4925W        W20999   8.539   5.742  12.508 -0.0297 -0.1995 -0.2902
 4926W        W21000   5.035   7.062  11.458 -0.1928 -0.2913  0.1047
 4927W        W21001   8.462  12.397  12.060  0.1696 -0.0900 -0.0441
 4928W        W21002   2.391   3.274  14.863  0.1228 -0.1321 -0.0040
 4929W        W21003  12.829   1.445  12.006 -0.1835 -0.1985  0.0571
 4930W        W21004   7.171  15.948  12.412 -0.0054 -0.1115 -0.1799
 4931W        W21005   6.089   7.148   1.420  0.0988  0.0407  0.2988
 4932W        W21006   9.762   7.530   4.633 -0.0270  0.2306  0.0429
 4933W        W21007   2.056   6.107  13.222 -0.0277 -0.3483  0.0577
 4934W        W21008   5.878   4.520   2.992 -0.0384  0.3804 -0.0754
 4935W        W21009   8.309   0.907   1.716  0.0515  0.0058  0.2012
 4936W        W21010  17.479  17.396   0.354  0.1308  0.2943  0.0164
 4937W        W21011  10.052  15.278  13.279  0.2705  0.0766  0.1202
 4938W        W21012  12.480   9.553   0.831  0.1108  0.1004 -0.0424
 4939W        W21013  18.328   7.457   4.903  0.0193  0.0383 -0.1166
 4940W        W21014   4.627   5.468  15.635  0.3527  0.0716 -0.0796
 4941W        W21015   1.450  10.865   4.883 -0.2284 -0.1558  0.0447
 4942W        W21016   7.571   1.546   2.680  0.2249 -0.1695  0.1449
 4943W        W21017   1.932   2.748   5.376  0.4736 -0.1085 -0.0846
 4944W        W21018  12.172   8.559   5.314 -0.0661 -0.1344 -0.2917
 4945W        W21019  12.990   8.036   2.809  0.0024  0.1048 -0.1971
 4946W        W21020  14.067  14.611  12.475  0.0816  0.2474  0.4154
 4947W        W21021   2.706   2.725  12.978  0.0102  0.2998 -0.0227
 4948W        W21022   5.929   6.703   3.047  0.0964  0.0448 -0.1535
 4949W        W21023  11.948   0.408  12.511  0.1224  0.2634 -0.0641
 4950W        W21024  17.223   5.547   0.384  0.1738  0.0552 -0.2911
 4951W        W21025   8.973  15.540  12.157  0.1117 -0.0434 -0.0354
 4952W        W21026   1.463  17.719  12.007 -0.2872 -0.0280  0.0775
 4953W        W21027  13.484   0.784   4.340  0.0704  0.0601 -0.0566
 4954W        W21028  12.081  12.084  13.710 -0.0183  0.2778 -0.1364
 4955W        W21029   0.998  17.046   4.390 -0.1868 -0.1602 -0.5576
 4956W        W21030   2.314  12.149  13.413  0.1670 -0.0472  0.1851
 4957W        W21031  18.314  15.788  15.154 -0.0193 -0.0169  0.0242
 4958W        W21032   5.710  18.052  15.677 -0.3014  0.0884  0.2448
 4959W        W21033  15.348   8.139   6.299 -0.0699  0.3045  0.0729
 4960W        W21034  10.873  11.110  13.501  0.1391 -0.1445  0.1947
 4961W        W21035  11.421   7.125  15.278  0.0711 -0.1016  0.0063
 4962W        W21036   2.184   0.330   1.468  0.0153  0.0075  0.2108
 4963W        W21037  15.015   3.263   3.963 -0.2258  0.1821 -0.0214
 4964W        W21038   4.531  10.811   5.765  0.1711  0.1652 -0.1263
 4965W        W21039  15.637  14.523   5.377  0.0189 -0.0466  0.2357
 4966W        W21040  10.935   2.755  15.831 -0.0433  0.2351  0.2758
 4967W        W21041  13.141  15.021   4.923 -0.5358  0.3383  0.2202
 4968W        W21042   0.014  14.584   2.320  0.1196  0.0529 -0.2201
 4969W        W21043   2.567  10.037   1.011  0.0763  0.0454  0.1815
 4970W        W21044   1.389   5.108  16.319 -0.1265 -0.0476  0.3910
 4971W        W21045   3.054   4.113   5.034  0.0181  0.1078  0.1584
 4972W        W21046   5.727   8.322  12.022  0.2617 -0.0635  0.1453
 4973W        W21047  10.175  16.574   4.561  0.1743 -0.0938  0.1620
 4974W        W21048  14.115  13.705  11.772  0.0061  0.0874  0.0594
 4975W        W21049  16.064   2.513   0.965  0.1751  0.0275  0.1893
 4976W        W21050  10.982  16.779  13.420  0.1447  0.0850 -0.0872
 4977W        W21051   9.976  17.736   4.713  0.3003  0.1863 -0.1990
 4978W        W21052   6.753  11.701  16.058 -0.2892  0.2451 -0.0490
 4979W        W21053  11.925   0.535  13.736 -0.0122 -0.3029  0.3072
 4980W        W21054  17.433  16.431  15.341 -0.0586  0.2864 -0.1341
 4981W        W21055  17.428  15.201   0.528  0.1281 -0.0029 -0.0203
 4982W        W21056   9.385  12.497  12.246  0.0875 -0.0093  0.3592
 4983W        W21057   7.119  16.168  13.661  0.2801  0.3046  0.0781
 4984W        W21058   6.289   0.806   3.076  0.3001  0.0610 -0.2009
 4985W        W21059  16.366  17.819  16.116  0.2487 -0.0793 -0.1416
 4986W        W21060  17.329   6.464   1.019 -0.3555 -0.0955  0.0791
 4987W        W21061   1.892  13.550   5.228 -0.1099  0.4686 -0.0931
 4988W        W21062   6.696   6.439   4.220  0.1196 -0.1425  0.0695
 4989W        W21063   7.186  13.546  13.675  0.0467 -0.3683  0.0079
 4990W        W21064   0.286   6.089   0.001 -0.3004 -0.1036  0.1668
 4991W        W21065  12.140   1.752   5.303 -0.0243 -0.1733  0.3268
 4992W        W21066   1.337   0.104  12.888 -0.2310  0.1629 -0.1465
 4993W        W21067  11.445  16.444  15.883 -0.3395  0.1087 -0.0490
 4994W        W21068  12.450  16.148   5.547 -0.0697  0.0319 -0.2444
 4995W        W21069   7.455   7.678  13.860  0.1609  0.0208  0.0650
 4996W        W21070   6.748  12.576   1.440  0.0597  0.1333 -0.0263
 4997W        W21071   6.746  16.906   3.230 -0.0855 -0.1512 -0.1927
 4998W        W21072  12.886  14.547   4.844 -0.2267 -0.3245 -0.0293
 4999W        W21073  11.516   5.516  12.535  0.1521 -0.1031 -0.1607
 5000W        W21074   6.985  14.469  12.828 -0.0172 -0.1869 -0.1331
 5001W        W21075  11.970   0.250   4.106 -0.1415 -0.0626  0.0171
 5002W        W21076   1.973   4.192  12.744 -0.1031 -0.1422 -0.3690
 5003W        W21077  16.390   8.165  14.783  0.3567  0.4698 -0.0184
 5004W        W21078   9.666   2.775   1.366  0.0200 -0.1540 -0.1592
 5005W        W21079   2.737  17.783   4.024 -0.1359 -0.1063 -0.2205
 5006W        W21080   1.117  16.501   2.122 -0.1508 -0.1441 -0.2365
 5007W        W21081   0.250   9.432  15.790 -0.0581  0.1655  0.1016
 5008W        W21082  10.185   1.726  11.719  0.1904 -0.1335  0.0413
 5009W        W21083   7.135   7.747  12.966 -0.1880  0.1096 -0.0994
 5010W        W21084   9.074   8.846  12.162 -0.0582  0.0123 -0.2515
 5011W        W21085   2.355   5.853  14.982 -0.1800  0.1568  0.1161
 5012W        W21086  14.053   1.560   4.189 -0.0570  0.1921  0.1155
 5013W        W21087  17.143  16.574   2.536  0.2591  0.1840 -0.0613
 5014W        W21088   8.412  10.755   0.139 -0.2995  0.0476  0.2301
 5015W        W21089   9.657   8.090  16.243  0.0823 -0.0996  0.0671
 5016W        W21090   5.715   1.373   1.037 -0.1023  0.1118 -0.0396
 5017W        W21091  10.284  10.294   4.564 -0.0629 -0.0452 -0.0271
 5018W        W21092  10.156  16.216  14.980  0.0230 -0.1822  0.0203
 5019W        W21093  17.117  17.679  13.948 -0.0426  0.1552 -0.0508
 5020W        W21094  16.834   9.160   1.807  0.3971 -0.3600  0.1687
 5021W        W21095   0.616   3.134  12.054  0.1627  0.0988  0.0423
 5022W        W21096   9.000   2.291  11.322 -0.2733 -0.1454 -0.0623
 5023W        W21097   5.858   8.057   0.254 -0.0488 -0.3719 -0.0819
 5024W        W21098   4.635   8.088   0.944  0.1719 -0.1050 -0.2760
 5025W        W21099   1.317   5.590   1.787  0.2323  0.0184  0.0989
 5026W        W21100   3.121  12.977   1.590  0.2848  0.2334 -0.0418
 5027W        W21101  14.940   4.664  15.815  0.0657  0.3111 -0.0741
 5028W        W21102   7.802   5.887  15.704  0.1754  0.0445  0.1138
 5029W        W21103   2.891  10.606  14.994 -0.0574 -0.1189 -0.2989
 5030W        W21104   2.021   2.181   0.078  0.0052 -0.0038 -0.0318
 5031W        W21105  17.292   9.472  14.773 -0.0813 -0.2377 -0.1680
 5032W        W21106  11.361  11.525  12.577  0.0500 -0.2900  0.3001
 5033W        W21107  14.599   5.411   0.235 -0.0726  0.0230  0.1787
 5034W        W21108  16.516  15.890   2.884  0.3152 -0.0364 -0.3094
 5035W        W21109   7.899   0.111  10.481  0.1177  0.0880  0.0218
 5036W        W21110   9.340   5.099   5.284  0.1771  0.4357  0.1575
 5037W        W21111   6.956   8.540   0.638 -0.2678 -0.0111  0.1182
 5038W        W21112  13.028  11.338   3.316  0.3108  0.0208  0.1198
 5039W        W21113   5.121   6.882  14.742  0.2179  0.0830 -0.0271
 5040W        W21114   2.108   8.685  14.074 -0.2453 -0.3071 -0.1239
 5041W        W21115  11.870  16.229  13.146 -0.3634  0.2178 -0.0907
 5042W        W21116   2.551  15.348   3.183  0.0076 -0.2661  0.0160
 5043W        W21117   8.707  15.212  13.749  0.0799 -0.0926  0.0080
 5044W        W21118  10.906   3.944   0.416 -0.1545 -0.2724 -0.0475
 5045W        W21119   7.355   6.927  15.412  0.0336 -0.2537 -0.0393
 5046W        W21120  17.081   5.080   1.728 -0.1070 -0.4189  0.0456
 5047W        W21121   6.964   6.019   4.320 -0.2809  0.0058 -0.1360
 5048W        W21122   2.373  11.459   0.133  0.5256  0.1381 -0.1986
 5049W        W21123  14.077  16.762  11.703  0.2140  0.2422  0.1689
 5050W        W21124  15.829  12.299   0.662 -0.0141 -0.0400 -0.2538
 5051W        W21125  10.363   9.548  13.715 -0.5352  0.0502  0.1434
 5052W        W21126   2.660   5.597   1.638 -0.2442 -0.1557 -0.2517
 5053W        W21127   4.652  12.725   3.572  0.0997  0.1460  0.1224
 5054W        W21128   7.055   4.759  12.337  0.0285 -0.0302  0.3204
 5055W        W21129   4.358   6.189   2.816  0.0215  0.0432 -0.1831
 5056W        W21130   7.726   8.012  11.856  0.1900 -0.0685  0.1623
 5057W        W21131   2.769  14.020  12.567 -0.1826 -0.2017 -0.1756
 5058W        W21132   0.740   3.509   4.588 -0.2244  0.0910 -0.0496
 5059W        W21133  10.420   7.244  10.582 -0.0993  0.0621 -0.1538
 5060W        W21134  12.165  12.061  15.687 -0.2747  0.2617 -0.0295
 5061W        W21135   2.991   1.332   2.078  0.0088 -0.1948  0.1136
 5062W        W21136   5.882  17.460   4.771  0.3118 -0.0301 -0.0487
 5063W        W21137   8.658  13.526   3.660  0.4878  0.1869  0.0287
 5064W        W21138  15.726   5.596   4.424  0.0543 -0.3167  0.1500
 5065W        W21139   1.793   3.868  14.610 -0.2266  0.1645 -0.0491
 5066W        W21140  15.002   3.347   2.573 -0.2100  0.2992  0.1093
 5067W        W21141  13.084  14.339  12.602 -0.1345  0.2669  0.1243
 5068W        W21142  13.640  16.240  11.367 -0.4712  0.0040  0.2669
 5069W        W21143   1.847   3.366  14.436 -0.1671  0.1615  0.4958
 5070W        W21144  12.365  16.876   3.837  0.2235 -0.0174  0.0391
 5071W        W21145  13.306  12.944   3.577  0.2925 -0.1104 -0.1168
 5072W        W21146  10.317   6.077  14.239  0.2008 -0.0040  0.0731
 5073W        W21147   0.261   4.061   3.767  0.1162  0.0723  0.1922
 5074W        W21148  16.581   6.456  11.722 -0.1955 -0.0519 -0.1224
 5075W        W21149   0.227  13.627   2.049 -0.0419 -0.1234  0.1330
 5076W        W21150   5.057  10.391   1.472  0.1426  0.0646 -0.0171
 5077W        W21151  17.062   1.083   0.116 -0.0941  0.3514  0.1229
 5078W        W21152   7.462   1.757  14.283  0.1751 -0.0515 -0.1336
 5079W        W21153   8.060   0.010  14.352 -0.1806  0.1958  0.1118
 5080W        W21154   2.426   7.549   3.097  0.0752  0.1240  0.0340
 5081W        W21155  10.728  11.794   4.792 -0.2183 -0.3111 -0.2427
 5082W        W21156   5.166   2.356   2.399  0.1514 -0.0679  0.0234
 5083W        W21157   4.665   7.036   3.202  0.0113 -0.3156  0.0274
 5084W        W21158  10.827  13.164  14.959 -0.1754 -0.1484 -0.2469
 5085W        W21159  13.411   9.658  14.681  0.1493 -0.0932  0.1396
 5086W        W21160   0.465  15.753  13.090 -0.0482  0.1409 -0.4286
 5087W        W21161   3.744   6.984  14.299 -0.0472 -0.0042 -0.1771
 5088W        W21162  10.590  12.277   2.969 -0.0785  0.1520  0.1389
 5089W        W21163   8.257   4.014   4.556 -0.0465 -0.2907  0.0638
 5090W        W21164  16.334  10.730   5.214 -0.1528 -0.2762  0.0169
 5091W        W21165   6.223  13.589  13.599  0.0177 -0.2725  0.1050
 5092W        W21166  18.116   1.528   3.391  0.1564  0.2500 -0.1567
 5093W        W21167   5.660  11.402   4.819  0.0403  0.1940  0.3826
 5094W        W21168  16.590   3.404  15.341  0.0975  0.0959 -0.2127
 5095W        W21169  14.475   9.009  10.996  0.2784 -0.0885  0.0743
 5096W        W21170   4.889  16.287  11.673 -0.0630  0.2238 -0.0705
 5097W        W21171   1.226   7.445  15.531 -0.0089  0.4537  0.0251
 5098W        W21172  12.369   8.973  13.594  0.1321  0.1027  0.2462
 5099W        W21173   4.232   8.816   2.972  0.2753  0.0220  0.3473
 5100W        W21174  15.055  17.353   5.310  0.3064 -0.0294 -0.2531
 5101W        W21175  12.322   3.824  11.761 -0.2599 -0.0937 -0.1907
 5102W        W21176  12.029   2.441   4.829  0.2490  0.0629  0.1928
 5103W        W21177   3.193   8.141   1.698  0.0063 -0.0406 -0.0237
 5104W        W21178  16.296  11.320   5.519 -0.1207 -0.0271  0.0856
 5105W        W21179   4.837  11.778  14.501  0.0234  0.2729 -0.2199
 5106W        W21180   8.499   6.131  13.360  0.0312  0.0265 -0.1372
 5107W        W21181  14.875  17.385  12.871  0.3220  0.0330  0.0013
 5108W        W21182   8.233  13.517   5.107  0.2598  0.0477 -0.0104
 5109W        W21183   5.945   0.937   0.877 -0.0868 -0.1850 -0.2869
 5110W        W21184   9.516   8.194  10.119  0.3246 -0.1875  0.1824
 5111W        W21185  11.021   6.864  12.595 -0.1359  0.2075 -0.0411
 5112W        W21186   1.249   1.072  12.056 -0.2768 -0.1319 -0.0194
 5113W        W21187  17.349  14.524  15.437 -0.0130  0.0360 -0.1394
 5114W        W21188   5.751  10.117  13.482 -0.1520  0.1196 -0.2291
 5115W        W21189   8.191   5.652   5.119  0.0094  0.2716 -0.1312
 5116W        W21190  10.629  17.566   0.221 -0.1542  0.1582 -0.2985
 5117W        W21191   8.970  15.500  15.226  0.1466 -0.1575 -0.1964
 5118W        W21192  11.466   7.233  14.353 -0.3028 -0.0255  0.1154
 5119W        W21193  14.996   9.399  12.544  0.0558  0.1053 -0.1270
 5120W        W21194   4.421  16.242  13.875 -0.3630 -0.1092  0.0566
 5121W        W21195   7.792   5.880   5.350 -0.1691 -0.1088  0.0187
 5122W        W21196  16.800   8.553  13.422  0.2284  0.1403  0.1306
 5123W        W21197   8.913   2.120  10.802 -0.1724  0.1748 -0.0289
 5124W        W21198   2.670  13.523   3.146  0.1174  0.2302 -0.1549
 5125W        W21199  10.937  10.597  13.565  0.2366 -0.0655 -0.1183
 5126W        W21200   8.264   8.483   4.834  0.0048  0.3006  0.2748
 5127W        W21201   6.967   5.160  11.951  0.1523  0.0670  0.1458
 5128W        W21202  16.175   5.725   2.145  0.1687 -0.1166  0.1522
 5129W        W21203   3.585   0.803  13.064  0.1678  0.0994  0.0465
 5130W        W21204   3.855   9.200  14.484 -0.1440  0.0583 -0.1202
 5131W        W21205   6.147   2.188   4.362 -0.1759  0.2114  0.1561
 5132W        W21206   3.634   4.217   2.662 -0.0003 -0.0375 -0.0673
 5133W        W21207   2.920  11.934  15.266 -0.0539 -0.0432  0.0134
 5134W        W21208   4.435   2.829   5.445  0.0061  0.2993 -0.0588
 5135W        W21209   7.263   3.211   1.970  0.1530 -0.2145  0.1377
 5136W        W21210   9.249   8.404  15.480 -0.1314 -0.1736  0.4833
 5137W        W21211  16.767  17.103   2.153 -0.0006 -0.1922 -0.1687
 5138W        W21212   3.895   4.363   4.687 -0.1160 -0.0480 -0.3003
 5139W        W21213   6.970   3.749  13.160  0.1074 -0.3511 -0.0222
 5140W        W21214  17.023  12.284  13.139  0.1921 -0.1769 -0.2372
 5141W        W21215  13.675  10.921   1.603 -0.1670  0.1640  0.0100
 5142W        W21216  15.764   0.400   6.371 -0.2724  0.4423 -0.2875
 5143W        W21217   8.643  10.238  14.559 -0.3939 -0.0138 -0.1109
 5144W        W21218   4.703  17.800   1.395  0.1315  0.0897 -0.0147
 5145W        W21219   1.522   3.048  15.087  0.0761 -0.0950 -0.1561
 5146W        W21220  13.009   9.844   3.671 -0.1050  0.1080 -0.0628
 5147W        W21221  11.352  13.603   5.238 -0.1884  0.3297 -0.2390
 5148W        W21222   9.176   8.261  11.079 -0.2363  0.1078 -0.2664
 5149W        W21223  15.093   4.451   1.215 -0.1174  0.0291 -0.4185
 5150W        W21224   5.424   4.602  14.732 -0.1411 -0.0055 -0.3181
 5151W        W21225  13.153   9.307   4.954 -0.0675  0.0395 -0.1788
 5152W        W21226   8.657   6.364  16.396 -0.1040 -0.1029 -0.4090
 5153W        W21227   0.595   8.472   0.965  0.1784 -0.1455  0.0043
 5154W        W21228   0.644  12.728   3.254 -0.1660 -0.1151 -0.1062
 5155W        W21229   0.762   6.983  16.299  0.2690  0.2340 -0.1276
 5156W        W21230   2.456   1.446  12.918  0.0484 -0.1163 -0.0424
 5157W        W21231   4.726  18.003  11.393 -0.2895 -0.0632  0.0556
 5158W        W21232   1.534   1.377   5.442  0.3875 -0.3769 -0.1871
 5159W        W21233   4.332   6.166  12.456 -0.1434  0.3888  0.0362
 5160W        W21234   3.081  13.254  12.983 -0.0033  0.3050  0.0675
 5161W        W21235   5.923   9.809   1.405 -0.1116 -0.1608 -0.1369
 5162W        W21236   2.551  16.666   3.811 -0.0962 -0.2641 -0.0697
 5163W        W21237  10.961  12.274  11.334  0.0552  0.3243 -0.0733
 5164W        W21238  14.488  12.398   4.699  0.3626  0.0375 -0.2744
 5165W        W21239  14.813  10.606  12.690  0.3166 -0.1199 -0.0672
 5166W        W21240   4.508   6.407  13.134  0.2260 -0.0790 -0.1633
 5167W        W21241   3.277   7.654   1.486 -0.1896  0.1872  0.1324
 5168W        W21242   2.262   0.593   5.914 -0.2188  0.1019  0.0615
 5169W        W21243  17.774  11.967  13.957  0.0559 -0.0738 -0.1221
 5170W        W21244  11.100  18.198  14.752 -0.3038 -0.1802  0.2348
 5171W        W21245   2.813  16.731   2.101 -0.1438 -0.2069 -0.1316
 5172W        W21246   7.566  18.240  14.062  0.3911  0.3754 -0.2192
 5173W        W21247   6.794  13.727  15.578 -0.0282  0.0669  0.2116
 5174W        W21248   6.329   9.056  13.841  0.3710 -0.1227 -0.1726
 5175W        W21249   0.404  14.361  14.666 -0.0159 -0.0745  0.0978
 5176W        W21250   9.477  14.154  11.318 -0.2554  0.0740 -0.2775
 5177W        W21251  12.825   6.108  13.701 -0.2349  0.3283  0.0510
 5178W        W21252   9.715   1.291  12.194  0.0745  0.0785  0.1719
 5179W        W21253   3.904   1.647  10.842 -0.1093 -0.1262  0.0287
 5180W        W21254   8.202   2.799  12.870 -0.0306 -0.2181 -0.4311
 5181W        W21255  16.176   4.347  16.085 -0.3698  0.0361 -0.1289
 5182W        W21256  17.346   8.630   5.657 -0.0220 -0.1272 -0.0255
 5183W        W21257  15.589  14.570   0.794  0.1055  0.4147  0.0948
 5184W        W21258  12.019   7.626   2.917  0.0409 -0.0200  0.0033
 5185W        W21259  14.098   5.825   2.271 -0.0308 -0.0795 -0.0696
 5186W        W21260   1.094  13.621  13.445 -0.1850  0.3123  0.1304
 5187W        W21261   7.699  17.813   4.534  0.1554  0.0245  0.0639
 5188W        W21262  17.071  11.489   5.282 -0.1931 -0.1059 -0.0523
 5189W        W21263  11.687  10.079  13.876  0.1664  0.1269 -0.1011
 5190W        W21264   1.989   8.065   0.072  0.1931 -0.3294  0.0095
 5191W        W21265   3.958   1.142   0.179  0.0285 -0.0679 -0.1265
 5192W        W21266   8.097   1.328   0.441 -0.2651  0.2032 -0.3504
 5193W        W21267   1.741   0.455   5.820  0.1107  0.0885  0.1355
 5194W        W21268   1.323   4.024  10.370  0.3019  0.1735 -0.0491
 5195W        W21269   6.765   5.247   1.148  0.0796 -0.0316  0.2252
 5196W        W21270  10.646   1.857   2.061 -0.2553  0.1009 -0.2309
 5197W        W21271  16.801   8.146  15.126  0.3819 -0.1521  0.1709
 5198W        W21272   6.519  11.560  13.654 -0.2275  0.1756 -0.1694
 5199W        W21273   3.315   4.074  13.021  0.1483  0.1665 -0.1469
 5200W        W21274   2.009   7.917  13.657 -0.0510 -0.2334 -0.1275
 5201W        W21275  13.516  12.072  13.411  0.1295  0.1566  0.0675
 5202W        W21276   3.545   6.829  15.366  0.1609  0.1609  0.1269
 5203W        W21277   2.912   7.876   5.114 -0.0735 -0.0676  0.1681
 5204W        W21278   5.281   0.221   1.701  0.0196 -0.0808 -0.1742
 5205W        W21279   5.009   3.589   0.347  0.0859  0.1109 -0.1491
 5206W        W21280  10.749   0.707   3.873  0.2047 -0.3042 -0.3406
 5207W        W21281  17.302   8.177  15.429  0.3274  0.1454 -0.0820
 5208W        W21282  14.736   2.140   3.681 -0.2180  0.0291 -0.0637
 5209W        W21283  11.699  14.085   3.838 -0.0366  0.1075  0.1990
 5210W        W21284   7.270   7.209  13.310  0.0772 -0.1686 -0.0065
 5211W        W21285   6.320   6.150  15.061  0.1510  0.1886  0.0179
 5212W        W21286   4.868  13.206   1.315 -0.0074 -0.1316  0.0404
 5213W        W21287   5.105  11.121  12.700 -0.1256  0.0435 -0.1136
 5214W        W21288  16.183  11.369   1.280 -0.1331 -0.0832  0.3682
 5215W        W21289   6.656  12.938  14.162  0.0198  0.2072  0.1594
 5216W        W21290   7.582   6.619   2.578 -0.0316  0.3017  0.2397
 5217W        W21291   6.156  13.480   2.896 -0.0769  0.2364 -0.1356
 5218W        W21292   1.506   4.394  11.873  0.2127 -0.1284  0.3314
 5219W        W21293  12.515   3.288  15.023  0.0143 -0.1103 -0.0307
 5220W        W21294  16.654  16.422   4.427 -0.1683 -0.0155  0.2635
 5221W        W21295  15.599  12.356   4.191 -0.0235 -0.1106 -0.2107
 5222W        W21296  17.366  16.197   1.157 -0.0926 -0.0717 -0.0764
 5223W        W21297   6.016   9.697  15.928  0.1578  0.2300  0.0830
 5224W        W21298  12.764   0.113  13.232  0.3189 -0.4650 -0.0636
 5225W        W21299  11.675   1.671   4.640 -0.2051 -0.2028 -0.0396
 5226W        W21300   2.371   6.187   1.096 -0.1958  0.0054 -0.0737
 5227W        W21301   1.473   6.447   0.030 -0.0833 -0.0473 -0.1065
 5228W        W21302  15.277   8.044   3.842 -0.1372  0.1497 -0.1923
 5229W        W21303   5.531   4.799   4.523 -0.2334 -0.0449 -0.1189
 5230W        W21304   6.302   3.124  13.490 -0.3083  0.1275 -0.0250
 5231W        W21305   1.206   6.527  14.735 -0.1199  0.0317  0.2465
 5232W        W21306   9.969   4.826   1.269  0.0565  0.0217 -0.0105
 5233W        W21307   2.087   8.639   4.973 -0.1253  0.1151 -0.1240
 5234W        W21308   3.163   2.843   5.316  0.0591 -0.0504 -0.1458
 5235W        W21309   5.052  10.035  11.788  0.1612 -0.0213 -0.0772
 5236W        W21310  10.401   5.253  12.983  0.2970  0.1216  0.2336
 5237W        W21311  17.824   5.650  16.083 -0.0808 -0.0859  0.3358
 5238W        W21312   7.481   1.885  13.791  0.1373  0.0484  0.1461
 5239W        W21313  14.442   6.615   0.630  0.1577 -0.1558 -0.1612
 5240W        W21314   7.639  10.174   5.301 -0.2903 -0.2965 -0.3097
 5241W        W21315   4.897   9.164   2.288  0.0183 -0.1965 -0.2480
 5242W        W21316  10.519   9.775   4.817 -0.0791 -0.0035  0.0997
 5243W        W21317   6.661  16.772  12.918  0.0912  0.0120  0.2092
 5244W        W21318  13.274   5.936  12.535 -0.2036 -0.0666  0.0187
 5245W        W21319  17.005   0.062  12.794  0.0818 -0.0289  0.2518
 5246W        W21320  16.966  13.536  15.748 -0.0604 -0.0958 -0.0769
 5247W        W21321  13.607   5.774  13.723  0.0458  0.0453 -0.0217
 5248W        W21322  10.534   6.567   5.114  0.0369 -0.0435  0.1317
 5249W        W21323  14.199  15.449  11.682  0.0361  0.3379  0.3327
 5250W        W21324   5.489   4.255   0.981 -0.0459 -0.2318 -0.1935
 5251W        W21325   3.410   6.889   5.018 -0.0530  0.3076  0.0366
 5252W        W21326   8.551   8.724  11.406  0.1356  0.1236 -0.0505
 5253W        W21327  10.393   2.509  16.282  0.0567  0.2085 -0.0776
 5254W        W21328   7.438  10.763   3.424 -0.0711 -0.0953  0.0679
 5255W        W21329  17.576  12.909   0.841  0.0782  0.3389 -0.2124
 5256W        W21330  10.679   5.258  14.781 -0.1014  0.0989  0.2319
 5257W        W21331   1.023  15.695  15.121 -0.0112 -0.0985  0.3106
 5258W        W21332   3.776  13.100   0.701 -0.2689  0.0873 -0.1344
 5259W        W21333   2.800   4.247   6.208  0.5060 -0.0174 -0.3231
 5260W        W21334  13.057  14.537   0.115  0.1074  0.1625  0.3238
 5261W        W21335   1.058   0.650   3.522 -0.2761 -0.1178  0.0214
 5262W        W21336  11.202   3.566   5.006 -0.0089  0.1298  0.0653
 5263W        W21337  17.155  14.841  12.683  0.1772  0.0389  0.0722
 5264W        W21338   3.247   6.850  14.021 -0.1337 -0.1700  0.0485
 5265W        W21339  11.040   7.849   3.839 -0.0632 -0.2118  0.0782
 5266W        W21340  16.359  16.263   2.238 -0.2086 -0.3381 -0.1012
 5267W        W21341   0.939  14.440  16.091 -0.0792  0.0835 -0.1363
 5268W        W21342   7.665   7.587  11.476  0.1279  0.0830  0.0825
 5269W        W21343   3.154   2.814   1.258 -0.2215  0.3269  0.2338
 5270W        W21344  13.000   9.153  14.074 -0.1890  0.1407 -0.0005
 5271W        W21345   8.381   7.431  15.283  0.0978 -0.0733 -0.0296
 5272W        W21346   8.305   0.327  14.944  0.2925 -0.0678  0.2159
 5273W        W21347   3.843   3.956   2.208 -0.0020  0.0952 -0.2295
 5274W        W21348   8.399  11.443  15.338 -0.0811 -0.2118 -0.2766
 5275W        W21349  12.590   2.516   2.016  0.2010 -0.0437 -0.2353
 5276W        W21350  13.455   9.155   2.297  0.1661  0.1977  0.0472
 5277W        W21351   2.816  12.591  14.189 -0.0574 -0.0858 -0.2641
 5278W        W21352   6.469   9.013  12.605 -0.1427  0.0777 -0.4245
 5279W        W21353  14.355  12.761   1.610 -0.0770 -0.3441  0.1139
 5280W        W21354  17.966   8.992   2.897  0.2151  0.3948  0.0801
 5281W        W21355   1.313  11.109   5.333 -0.0585 -0.2391  0.2944
 5282W        W21356   5.511  11.218   0.404 -0.1222  0.0616 -0.1850
 5283W        W21357   1.090   0.170  13.880 -0.2271 -0.3846  0.0848
 5284W        W21358   0.985  14.011  15.876 -0.0842  0.2781  0.0288
 5285W        W21359  12.503   9.038   5.720 -0.0793 -0.0882  0.0689
 5286W        W21360  10.783  10.386   5.486 -0.1448 -0.0061 -0.0504
 5287W        W21361   5.395   4.948   3.234 -0.2175  0.3007 -0.1988
 5288W        W21362  17.759  11.475  13.807 -0.2316 -0.1470 -0.0793
 5289W        W21363  16.565   0.199  12.955  0.0826  0.1905  0.2311
 5290W        W21364  10.139   0.527  12.866 -0.2818  0.1302 -0.1364
 5291W        W21365  12.259  17.012  11.473  0.2800  0.1853  0.2323
 5292W        W21366  10.340  15.894   0.828  0.1835 -0.1960 -0.0038
 5293W        W21367  17.736   0.312   2.947 -0.2439  0.1843  0.0816
 5294W        W21368  15.208  18.118  13.592 -0.1474 -0.2841  0.0059
 5295W        W21369  18.116  18.011   5.790 -0.1287  0.1129 -0.0491
 5296W        W21370   6.706   0.358   5.032 -0.2185 -0.1501 -0.1220
 5297W        W21371   9.491  14.823   1.037  0.1528 -0.4407 -0.1073
 5298W        W21372   0.942  13.238   2.971 -0.4295 -0.0279 -0.4599
 5299W        W21373   6.066   3.923  13.108  0.0743  0.0172 -0.0223
 5300W        W21374   3.226  17.574  14.791  0.3036  0.4220  0.0515
 5301W        W21375  14.135   4.802  11.692 -0.1212 -0.3966  0.0618
 5302W        W21376   9.903  16.380  14.043  0.3223 -0.3081  0.0431
 5303W        W21377  18.075   4.318  14.620  0.2399 -0.4978 -0.0559
 5304W        W21378  17.900   7.085  15.937  0.0905  0.0729 -0.2574
 5305W        W21379  14.414   3.374  11.163 -0.1982  0.0476  0.6222
 5306W        W21380   9.585   9.113   2.015  0.1631  0.2835 -0.2156
 5307W        W21381   3.481   8.687  15.537  0.1416  0.0282 -0.0315
 5308W        W21382   5.381  17.400   4.634  0.0542 -0.1637  0.0799
 5309W        W21383   0.961   6.640  13.547  0.0557 -0.3447  0.0750
 5310W        W21384  17.235  11.828  13.176 -0.2701  0.2333  0.5393
 5311W        W21385  15.396   4.300  14.752  0.0804 -0.2655 -0.1492
 5312W        W21386  12.195   7.338  13.618  0.2240  0.1114  0.3332
 5313W        W21387  11.345  15.328  13.292 -0.0504  0.0389 -0.4046
 5314W        W21388  15.210  10.381  12.409 -0.1082  0.2944 -0.0739
 5315W        W21389   9.831  17.930  13.937  0.0910  0.2364  0.0952
 5316W        W21390   7.940  17.106  15.631  0.2758  0.2827  0.1612
 5317W        W21391  15.328  11.927  11.472 -0.1969 -0.1071  0.0229
 5318W        W21392   7.393   3.853  10.971  0.0081  0.1177 -0.0998
 5319W        W21393   4.815  14.951   3.424 -0.1542  0.2080  0.2048
 5320W        W21394   9.321   4.137   4.653  0.1359  0.1048  0.2111
 5321W        W21395   5.258  17.533   3.177  0.0693  0.2108  0.0840
 5322W        W21396  12.960   0.392   4.140 -0.0617 -0.0898 -0.0812
 5323W        W21397   2.498  11.006  11.410  0.0960  0.0552 -0.0239
 5324W        W21398   4.393  10.918  14.124  0.4707  0.1667 -0.0724
 5325W        W21399  16.196  11.018   3.280  0.0304 -0.0827  0.1611
 5326W        W21400   0.999   2.930  15.119  0.0444 -0.1127  0.1134
 5327W        W21401  17.711   7.309  15.495 -0.3320 -0.0904 -0.1180
 5328W        W21402   8.975   3.110  11.199 -0.1236 -0.1152 -0.1464
 5329W        W21403  12.837  16.109  15.553 -0.4779  0.0852  0.0539
 5330W        W21404  12.898  18.159   0.621 -0.1575  0.0285 -0.1058
 5331W        W21405  10.921   9.267   4.407 -0.2350 -0.1802  0.1112
 5332W        W21406   8.911  15.128  14.348 -0.0740 -0.0771  0.3498
 5333W        W21407  10.445  11.131  11.567  0.0639  0.0130  0.3752
 5334W        W21408  12.806   8.876   1.548 -0.1767  0.0542 -0.0630
 5335W        W21409  16.531  14.667  11.631 -0.2135  0.1755  0.0123
 5336W        W21410   0.242   6.214  15.908  0.0016  0.1065 -0.1376
 5337W        W21411   9.934   7.568  11.896 -0.1845  0.2846  0.1795
 5338W        W21412  11.253   5.889   1.022  0.0230  0.2077  0.3475
 5339W        W21413   4.554   4.466   1.436 -0.3138 -0.3998 -0.0719
 5340W        W21414   5.437  11.520  15.097 -0.0347 -0.0420  0.1577
 5341W        W21415  14.275  14.998  14.350 -0.3567  0.0988  0.4018
 5342W        W21416  11.534   9.348  13.233 -0.1350 -0.0035  0.0149
 5343W        W21417   9.677   0.478  11.827 -0.3426 -0.0220 -0.1028
 5344W        W21418  15.848   4.702  12.244 -0.3734 -0.0419 -0.1194
 5345W        W21419   3.691   7.763  11.232 -0.0504  0.1198 -0.0086
 5346W        W21420   6.058  12.459   1.236  0.2171  0.1920 -0.1040
 5347W        W21421  10.319   6.742  11.304 -0.0198  0.3076 -0.2387
 5348W        W21422  15.209  14.226  12.237 -0.0574 -0.1412  0.5740
 5349W        W21423   9.111  14.480  15.615  0.0468  0.0218 -0.2754
 5350W        W21424  13.998   6.336  12.511  0.0105 -0.1989 -0.1313
 5351W        W21425   8.287   3.627   5.351 -0.2914  0.3289 -0.0090
 5352W        W21426  11.463   4.100  15.421 -0.0386 -0.0707  0.0845
 5353W        W21427  16.532   1.705   2.561  0.1477  0.3618 -0.4619
 5354W        W21428   3.730  17.329   4.624  0.1843  0.2640  0.0293
 5355W        W21429  16.128   9.236   2.895 -0.1600  0.2586  0.0628
 5356W        W21430   0.388   0.537   2.265  0.0042  0.0478 -0.1395
 5357W        W21431  17.644   6.311  13.131  0.0605  0.0292 -0.4394
 5358W        W21432   4.463   7.110  12.640 -0.2883  0.0152 -0.1453
 5359W        W21433   2.260   4.411   5.388  0.1218 -0.3026 -0.1219
 5360W        W21434   1.146   1.197   3.507 -0.0250  0.1452  0.0135
 5361W        W21435   2.655  17.457   1.627  0.1614  0.1370 -0.1257
 5362W        W21436   8.646  12.033  11.766 -0.0314 -0.2266 -0.0236
 5363W        W21437  10.285   6.493   0.339  0.1393  0.1124 -0.1910
 5364W        W21438  17.587  12.796  12.514  0.2384 -0.0712 -0.1068
 5365W        W21439  14.821   7.927   6.081 -0.1196 -0.1193 -0.1905
 5366W        W21440   0.697   9.581  13.233 -0.0962  0.1171 -0.3866
 5367W        W21441   0.748   6.685  14.897  0.0521 -0.0499  0.1274
 5368W        W21442  18.031  11.752   2.293  0.2737  0.0490 -0.1527
 5369W        W21443  10.445   6.729   4.179 -0.1663 -0.3101 -0.3614
 5370W        W21444   2.381  17.883  13.733 -0.1564  0.1864  0.2258
 5371W        W21445  12.446   1.021  15.302  0.0059 -0.3382  0.0871
 5372W        W21446  11.190   3.374  14.535 -0.3863  0.3109 -0.2139
 5373W        W21447   5.077  17.818   5.747 -0.1469  0.0826  0.3303
 5374W        W21448  14.797   6.522  13.659  0.1555  0.0879 -0.0047
 5375W        W21449   0.481   3.934  13.092 -0.1134  0.0178  0.0940
 5376W        W21450   9.671   1.731   1.266 -0.0799 -0.1101 -0.1523
 5377W        W21451   8.444  15.669   3.034 -0.2086  0.0156  0.0798
 5378W        W21452  15.662  16.540  13.391  0.0630 -0.1161  0.2950
 5379W        W21453   1.058   3.295  14.095  0.2486  0.1290 -0.1981
 5380W        W21454   2.708   0.022   2.776 -0.0420 -0.0846 -0.2367
 5381W        W21455  10.900  17.662   3.664 -0.3739  0.0826  0.2008
 5382W        W21456   9.233  12.924  12.969 -0.1306 -0.1781 -0.2174
 5383W        W21457  10.138  12.586  14.827  0.2929 -0.2931  0.1046
 5384W        W21458  11.044   7.069  14.658  0.3572  0.2207 -0.2960
 5385W        W21459   4.572   5.241  12.269  0.2663 -0.1071  0.0295
 5386W        W21460   2.623   2.757   5.981 -0.0018  0.1357  0.1499
 5387W        W21461  15.743   9.046  14.749 -0.1225 -0.0687 -0.3423
 5388W        W21462   2.298  16.968  15.336 -0.2976 -0.2802 -0.0780
 5389W        W21463   8.789  13.524  15.248  0.0162  0.0102  0.1561
 5390W        W21464  17.864  15.066   5.994  0.1845  0.1684 -0.0898
 5391W        W21465  15.337  13.562   2.926  0.1560 -0.0248 -0.0451
 5392W        W21466   7.815   5.779  12.807  0.2049  0.0793 -0.1964
 5393W        W21467  17.258  13.305   0.760 -0.0736  0.0964 -0.0560
 5394W        W21468  17.525  14.788   4.102 -0.0655  0.2369  0.0021
 5395W        W21469  16.231   3.968  14.141  0.0712 -0.2047  0.1666
 5396W        W21470  15.762  18.056  12.275 -0.2158 -0.2237 -0.4856
 5397W        W21471  12.784   2.838   3.743  0.0933 -0.1479 -0.1090
 5398W        W21472  12.759   3.907   1.482 -0.1094  0.1649  0.3268
 5399W        W21473   5.246  14.414  16.206 -0.1395 -0.0834  0.1033
 5400W        W21474   9.583   0.066   0.291  0.0501 -0.1333 -0.2207
 5401W        W21475  15.709   7.834  14.052  0.0129  0.1549 -0.3971
 5402W        W21476   3.531   7.235  14.743  0.0796 -0.2012  0.1562
 5403W        W21477   7.478   6.844   0.983 -0.1092  0.1484  0.2965
 5404W        W21478   6.209   3.345  14.725  0.0429 -0.0109 -0.0957
 5405W        W21479   5.930   0.558   1.256 -0.2181 -0.0874 -0.1101
 5406W        W21480  12.478   5.381  14.586  0.0421  0.2010  0.1364
 5407W        W21481  16.060   4.473   0.944  0.0583 -0.1336  0.1438
 5408W        W21482  13.537   0.623   0.859 -0.2671 -0.1020  0.0083
 5409W        W21483  16.785   3.529   2.414 -0.0429  0.0077 -0.0515
 5410W        W21484  10.753   1.727  11.820  0.0555  0.1043 -0.2144
 5411W        W21485  13.710  15.515   0.373 -0.2014 -0.1198  0.3310
 5412W        W21486  14.570   9.839   0.813 -0.1784 -0.1133  0.1570
 5413W        W21487  13.898   8.839   4.901 -0.0347  0.1608  0.1062
 5414W        W21488   0.279   3.496  16.277 -0.0775 -0.0660 -0.0741
 5415W        W21489   2.794   7.838  15.457  0.0416 -0.0375  0.2391
 5416W        W21490   0.474   2.826  14.436 -0.2537  0.2311 -0.3715
 5417W        W21491   8.901  12.258  12.138 -0.0000  0.2293 -0.1336
 5418W        W21492   9.671   1.647   4.431 -0.1058 -0.2097 -0.1175
 5419W        W21493  12.271  14.729   3.617 -0.0975 -0.0841 -0.0846
 5420W        W21494  16.986   5.717  12.173 -0.0294  0.0097  0.3138
 5421W        W21495   2.591   9.824  16.243 -0.1314 -0.0109 -0.0222
 5422W        W21496   3.893   6.359  12.460  0.2405  0.0769 -0.3245
 5423W        W21497   5.746   5.680   2.491  0.4347  0.0707 -0.1430
 5424W        W21498  11.245   8.657  14.346  0.0526  0.1367  0.0161
 5425W        W21499  12.647   0.976   4.018 -0.0630  0.1066  0.0463
 5426W        W21500  13.292   5.987  14.449 -0.0643  0.0950 -0.2704
 5427W        W21501   6.248   2.157   1.579 -0.3027  0.2923  0.0553
 5428W        W21502   5.417  15.134   4.618 -0.4156 -0.2336 -0.0997
 5429W        W21503  10.786   0.298  16.104 -0.1172  0.2257  0.1018
 5430W        W21504  16.872   4.924  15.350  0.0352  0.0723 -0.1142
 5431W        W21505   0.417   7.993   0.898  0.1046  0.0359 -0.1487
 5432W        W21506   5.720   0.205  10.601 -0.0148 -0.1080  0.0881
 5433W        W21507   8.596  12.648  11.201  0.1489  0.1957 -0.0074
 5434W        W21508   7.658  15.134  12.657  0.0568 -0.1780 -0.0275
 5435W        W21509   6.311  14.614   5.848  0.1213 -0.1155 -0.3642
 5436W        W21510  15.806   5.325  12.180  0.3968 -0.1104  0.0178
 5437W        W21511  16.611  17.216   6.308 -0.0555 -0.2931 -0.2943
 5438W        W21512  12.542   8.507  12.792  0.0277  0.0218  0.0619
 5439W        W21513   1.770  18.185   2.952  0.2279  0.0305  0.2027
 5440W        W21514   4.061   0.940   2.870  0.3729 -0.0884  0.0198
 5441W        W21515  14.504   3.731   2.897 -0.2052  0.3139 -0.2798
 5442W        W21516  14.554   6.484   0.190  0.2402 -0.0338  0.0658
 5443W        W21517   2.996   0.930   2.434  0.0581 -0.0211 -0.0890
 5444W        W21518   5.321  11.680  13.534 -0.3897 -0.1914  0.1295
 5445W        W21519  12.335   5.707   1.519  0.1617  0.0168  0.3401
 5446W        W21520   8.116  12.494   0.408  0.0289 -0.4636 -0.1171
 5447W        W21521  16.093   4.198  12.239 -0.2785 -0.1264 -0.1133
 5448W        W21522   6.459   6.944   3.263  0.3213 -0.2180 -0.2151
 5449W        W21523  10.317   3.832   3.437  0.4075 -0.0644  0.1452
 5450W        W21524   6.036  12.161  15.916 -0.1335 -0.0356 -0.0807
 5451W        W21525   3.090   1.281   0.949 -0.1694  0.3084 -0.1225
 5452W        W21526   4.802  12.210  12.489 -0.1856  0.0258 -0.1824
 5453W        W21527  13.610   8.517   4.625  0.1453  0.1485 -0.0371
 5454W        W21528  14.820   0.331  12.454 -0.0406 -0.0755  0.1058
 5455W        W21529   4.095   2.832  13.184 -0.0219 -0.1247  0.1735
 5456W        W21530  12.817  17.666   0.489 -0.0387 -0.1406 -0.1649
 5457W        W21531   6.931   8.663  12.663  0.0935 -0.1052  0.0005
 5458W        W21532   8.582   3.188  15.008  0.1240 -0.3703 -0.1442
 5459W        W21533   0.301   5.252  12.689 -0.0742 -0.0285  0.2810
 5460W        W21534  14.886   2.355  13.870 -0.1242 -0.1950  0.4266
 5461W        W21535   4.703   5.550   3.493  0.4210 -0.2633 -0.0646
 5462W        W21536   5.272   8.144  12.298  0.0342 -0.0503 -0.1179
 5463W        W21537  11.253   5.208  13.830 -0.1129  0.1315 -0.1439
 5464W        W21538  17.588  10.745   5.081 -0.2169 -0.0413 -0.2362
 5465W        W21539   2.961   4.813   1.435 -0.0359 -0.3540  0.0153
 5466W        W21540   4.761  10.342   4.553  0.1130  0.1074  0.1273
 5467W        W21541   2.454  11.966   1.812 -0.0498  0.0508 -0.1943
 5468W        W21542  12.424   7.758  11.649 -0.2958  0.0236 -0.0534
 5469W        W21543   4.086   5.371   1.200  0.1650  0.0762 -0.0164
 5470W        W21544   1.270   4.220   4.308 -0.1240 -0.4019 -0.0429
 5471W        W21545  10.247   6.582  14.399 -0.3995 -0.1931  0.2439
 5472W        W21546  15.672  15.839  14.641  0.4938  0.2415  0.2437
 5473W        W21547   1.696   5.960   0.836 -0.0905 -0.1953  0.0028
 5474W        W21548   1.644   0.845  12.329  0.1628 -0.1241  0.0730
 5475W        W21549   6.878   6.818   1.024 -0.0598 -0.0758  0.1229
 5476W        W21550   2.061   7.666   2.640 -0.0333 -0.1845 -0.0352
 5477W        W21551   9.588   4.937  13.281 -0.0343  0.1031  0.0232
 5478W        W21552   6.881   3.947  14.166  0.0676 -0.0211 -0.1109
 5479W        W21553  15.388   6.224   0.270 -0.0535  0.1819 -0.0189
 5480W        W21554   4.067   9.275  15.653  0.0117  0.0877 -0.1037
 5481W        W21555   3.537  10.255   5.207 -0.0596 -0.4412  0.0107
 5482W        W21556   8.493   0.256  14.180  0.0092 -0.0231 -0.0711
 5483W        W21557   3.744   3.933   5.786 -0.0477 -0.1975  0.0894
 5484W        W21558   1.534   9.399  12.612 -0.1805  0.2905 -0.0251
 5485W        W21559  10.393   5.732  15.000 -0.0209 -0.0426  0.0572
 5486W        W21560  11.121   2.420  12.036 -0.3875  0.1454 -0.0223
 5487W        W21561   2.198   6.423  12.791 -0.0288 -0.0301  0.1823
 5488W        W21562   3.457   4.476  11.666 -0.0889 -0.1806  0.2878
 5489W        W21563  17.962  13.214   4.743  0.2360 -0.4013 -0.4963
 5490W        W21564   9.152   6.864  13.849 -0.2401 -0.1177  0.1092
 5491W        W21565   6.391   6.889  14.350 -0.0483 -0.1003 -0.0431
 5492W        W21566  14.947  15.425   1.116 -0.1476  0.0440 -0.0089
 5493W        W21567   3.576   8.868   4.679 -0.3076 -0.1024 -0.0437
 5494W        W21568   9.152   8.831   2.262  0.3391 -0.1126  0.1299
 5495W        W21569   0.222   0.177   1.374  0.1701 -0.0280  0.0023
 5496W        W21570   3.733  13.278  11.709 -0.2884 -0.1832 -0.5352
 5497W        W21571  11.043  13.257   4.952  0.3322  0.0780  0.0146
 5498W        W21572   0.042   2.156   6.315 -0.0181  0.0277  0.2687
 5499W        W21573   7.252  18.250  13.016 -0.4295  0.0662 -0.0993
 5500W        W21574   3.202  11.914  15.831 -0.0740 -0.0049 -0.0613
 5501W        W21575  10.143   7.150  16.162  0.0432  0.1658 -0.1322
 5502W        W21576   6.336   3.777   6.250 -0.0162  0.0033 -0.1381
 5503W        W21577   2.390  14.066  11.294  0.3495 -0.0304  0.2567
 5504W        W21578   4.840   5.648  14.613  0.0815 -0.4176  0.0026
 5505W        W21579   2.877  10.436   0.833 -0.1528  0.0193  0.3776
 5506W        W21580   1.534  17.858   0.030  0.3202  0.0290  0.3067
 5507W        W21581   0.833   5.717   1.131 -0.1912  0.0504  0.0620
 5508W        W21582   0.115  13.382   4.833 -0.3555 -0.1442 -0.0767
 5509W        W21583   9.226   6.435   1.104 -0.0238  0.1034 -0.0263
 5510W        W21584  17.270  16.643  14.402 -0.1024  0.2921  0.1428
 5511W        W21585   2.709  17.690  15.064  0.1045  0.1538  0.2340
 5512W        W21586   2.234  12.675  14.990  0.1669  0.1373 -0.4462
 5513W        W21587   5.899  14.930   2.171 -0.1044  0.2050 -0.2679
 5514W        W21588   7.343  18.191   2.045  0.3685 -0.1196 -0.0425
 5515W        W21589   6.275   8.079   1.711 -0.0191 -0.1974  0.0503
 5516W        W21590   1.942  14.065   5.260  0.0144  0.1332 -0.1609
 5517W        W21591  14.752   3.199  15.997  0.0815  0.1434  0.0967
 5518W        W21592   3.649   6.652  12.143  0.1613  0.0327 -0.0158
 5519W        W21593  14.219   8.627   2.432  0.0460 -0.2314 -0.2069
 5520W        W21594   1.732   7.856  12.724  0.0109  0.0065 -0.2493
 5521W        W21595  12.800   0.047   2.146 -0.1480 -0.2927 -0.3072
 5522W        W21596   9.044   8.102   4.363 -0.0416 -0.3026  0.1155
 5523W        W21597  14.434  10.748  13.191 -0.1343 -0.0702 -0.3220
 5524W        W21598  10.432  14.092   1.714  0.3675  0.0388  0.0704
 5525W        W21599  11.863   1.842  11.742 -0.0032  0.2535  0.0842
 5526W        W21600   2.110  12.287   4.873  0.2151  0.0024  0.2423
 5527W        W21601   8.491   8.277   2.725  0.3443  0.1065  0.1523
 5528W        W21602   7.482  15.224   2.871 -0.3080  0.2459 -0.0665
 5529W        W21603  10.163  11.712  13.783 -0.2204  0.1620 -0.1050
 5530W        W21604  11.406   7.950   5.320  0.3304 -0.0434 -0.0598
 5531W        W21605   8.142  10.001   2.722 -0.1457  0.0922  0.2868
 5532W        W21606   8.598   6.495  11.394 -0.0437  0.0969  0.1368
 5533W        W21607   1.093   9.567  13.605 -0.0143 -0.1490  0.3016
 5534W        W21608   8.514   1.918   2.674 -0.1724 -0.3077 -0.0908
 5535W        W21609   0.433   7.270  13.131 -0.0140 -0.1934  0.1526
 5536W        W21610  10.011  12.743   1.149  0.3129 -0.3493  0.2554
 5537W        W21611   2.276   8.197   1.958  0.3327 -0.3937  0.1904
 5538W        W21612  16.303   8.867   0.613  0.1590  0.0127 -0.0830
 5539W        W21613  17.899  14.544   0.560 -0.1395 -0.1081  0.0832
 5540W        W21614   0.099  14.678  11.622 -0.2304 -0.0503 -0.1177
 5541W        W21615  17.973  13.291   4.028 -0.2345 -0.2733 -0.0300
 5542W        W21616   3.238   5.482  11.952 -0.2293 -0.1374 -0.2224
 5543W        W21617  14.129   2.903   4.041 -0.1404 -0.2132  0.1567
 5544W        W21618  10.467   3.149  10.895 -0.0244  0.0512 -0.0234
 5545W        W21619   2.092   4.105   3.606 -0.0166 -0.0147 -0.3118
 5546W        W21620  11.262  11.934  11.489  0.0026 -0.2949  0.0602
 5547W        W21621  17.440  14.330   0.781  0.0715  0.1634  0.0030
 5548W        W21622  13.361  16.526   2.808  0.1155 -0.1325 -0.0563
 5549W        W21623   3.813  15.956  13.076 -0.0527 -0.1704  0.1605
 5550W        W21624  11.975   7.172   3.397 -0.2493  0.1089 -0.0638
 5551W        W21625  17.616   1.751   3.409 -0.1677 -0.1560  0.0243
 5552W        W21626   9.212   4.792  14.884  0.2876  0.0830  0.3149
 5553W        W21627   6.217  10.954   0.625  0.0995  0.1806 -0.3623
 5554W        W21628   1.929  11.931  16.315  0.2833 -0.4081  0.0792
 5555W        W21629  10.798  11.471   0.523  0.0094 -0.1097  0.0549
 5556W        W21630   4.393   5.767  14.199  0.1702  0.1002  0.0132
 5557W        W21631   4.262   6.923   4.838  0.3289 -0.0080  0.1161
 5558W        W21632   6.341  13.197   4.598 -0.0386  0.1647 -0.5074
 5559W        W21633  12.081   7.828   3.842 -0.0282 -0.0135 -0.0885
 5560W        W21634   6.834  17.107  14.250  0.3081 -0.1382 -0.0541
 5561W        W21635  14.867  11.512  15.421 -0.0676 -0.3239 -0.3061
 5562W        W21636  16.934   4.588   2.603  0.0017  0.0337 -0.0575
 5563W        W21637   7.528  14.984  14.794 -0.1088 -0.1660  0.1732
 5564W        W21638   4.357  14.901  14.249  0.1586 -0.0342 -0.0115
 5565W        W21639   4.864   2.901   4.836 -0.0468  0.1374  0.1425
 5566W        W21640   2.450   8.650   3.505  0.0418  0.1064 -0.1464
 5567W        W21641   3.603   5.221   1.499 -0.2988 -0.1041  0.4475
 5568W        W21642  18.308  10.682   3.389 -0.0138  0.1578 -0.0534
 5569W        W21643   5.863   5.988  13.578 -0.2743 -0.2052 -0.0848
 5570W        W21644   8.901   5.123  16.086  0.0167 -0.0679  0.0405
 5571W        W21645   5.688  15.429   4.046 -0.4399  0.0098  0.0635
 5572W        W21646  17.240  13.128  13.696 -0.5748  0.1171  0.0855
 5573W        W21647   3.637   2.763  14.564  0.1475 -0.1129 -0.0097
 5574W        W21648   0.439   5.069  15.483  0.1047 -0.2617  0.1568
 5575W        W21649   2.519  15.454  14.867 -0.2199 -0.0364 -0.2659
 5576W        W21650  11.321   9.419  13.732 -0.0541 -0.3205 -0.0524
 5577W        W21651   9.540   3.046  15.955  0.6019 -0.0743  0.0220
 5578W        W21652   7.946   5.397  13.119  0.2138  0.0639 -0.2415
 5579W        W21653  12.266   2.975  11.153  0.1292  0.3958  0.1661
 5580W        W21654   6.707   0.308  11.680 -0.1941  0.1384  0.0034
 5581W        W21655  15.729  16.145  11.339 -0.2434  0.1358 -0.0347
 5582W        W21656  13.916  12.702   0.352  0.0375  0.1963  0.3852
 5583W        W21657   0.818   5.864  13.235  0.3725  0.1493 -0.0297
 5584W        W21658   8.565   3.469  15.947 -0.1314 -0.2867  0.3711
 5585W        W21659  10.811  14.023  11.861  0.0293  0.0098 -0.3559
 5586W        W21660  10.275   9.475   4.409 -0.1645 -0.1101 -0.0900
 5587W        W21661   9.530   4.166   0.800 -0.0044 -0.1266 -0.3909
 5588W        W21662   9.420  14.996  12.348  0.0161 -0.2503  0.1820
 5589W        W21663   3.875   7.997  16.308  0.2293  0.0870 -0.2163
 5590W        W21664   4.841   9.765  15.760 -0.2884 -0.2574 -0.1881
 5591W        W21665  12.230  11.578  15.894 -0.0776  0.2425 -0.0680
 5592W        W21666  17.192   3.730  11.171 -0.0949 -0.0542  0.0806
 5593W        W21667  13.622  10.337   3.224  0.0003  0.0437  0.0016
 5594W        W21668   5.782  13.889  14.444  0.1263 -0.1661  0.1373
 5595W        W21669   2.176  11.621   5.451 -0.0097 -0.0840 -0.0121
 5596W        W21670  12.459  17.221   2.739 -0.1482 -0.0635 -0.1469
 5597W        W21671  16.443   8.171   5.275  0.0585  0.2013 -0.1002
 5598W        W21672  10.679   5.040   5.517  0.1963 -0.1655  0.1658
 5599W        W21673   8.379   2.984   5.156  0.0852 -0.1087 -0.0970
 5600W        W21674  11.184  13.932  15.498 -0.2048  0.1916 -0.0437
 5601W        W21675   8.708   4.147   3.024  0.0523  0.0344  0.0801
 5602W        W21676   5.194   7.221  14.201 -0.0757  0.1972  0.0757
 5603W        W21677   9.264   8.664   1.815  0.0083  0.2274  0.0445
 5604W        W21678   5.273   5.665   3.438 -0.1807  0.0575 -0.0314
 5605W        W21679   8.382   9.017   4.564  0.1628  0.1478  0.0493
 5606W        W21680  11.023   1.601  12.630  0.0944  0.1208  0.2118
 5607W        W21681   2.300  15.915  13.074  0.2054 -0.1719 -0.1084
 5608W        W21682   3.667  17.659  14.906  0.0971  0.0964 -0.2397
 5609W        W21683   8.199   4.511   6.291 -0.1594  0.0927  0.3064
 5610W        W21684   9.957  14.624  13.960  0.0450 -0.2351 -0.3469
 5611W        W21685   5.449   7.906   4.745  0.0848 -0.0809  0.0846
 5612W        W21686  17.144   0.486   3.761 -0.3205  0.0267  0.1301
 5613W        W21687  10.556  11.659  15.912 -0.1406  0.0122 -0.3067
 5614W        W21688  15.262   9.460  15.445 -0.0844  0.1760 -0.0403
 5615W        W21689  16.705   3.991  14.153  0.3848  0.1142  0.1621
 5616W        W21690   9.580   3.432  15.357 -0.1629  0.5187 -0.1377
 5617W        W21691   3.998  17.277  14.887  0.0977 -0.1093  0.0183
 5618W        W21692  12.512   6.393   4.942 -0.0837 -0.0391  0.2454
 5619W        W21693   9.386   7.637  11.547  0.3930  0.1003  0.0438
 5620W        W21694  12.368  15.434  13.263  0.1455  0.2988 -0.2568
 5621W        W21695  17.699  17.356  15.346  0.1218  0.0684  0.2777
 5622W        W21696  11.644   2.730   4.625 -0.0559  0.2360  0.0251
 5623W        W21697  13.469  17.496   4.300  0.0814  0.0323  0.2232
 5624W        W21698   7.373  11.261  12.698  0.1290  0.1648  0.2553
 5625W        W21699  11.192   8.113   2.161 -0.2666 -0.0751  0.2570
 5626W        W21700  11.216  14.932   2.019 -0.2266 -0.0776  0.3114
 5627W        W21701  15.763   5.022  11.723  0.0566  0.2466  0.0363
 5628W        W21702   3.802   9.815  15.506  0.0111  0.1568 -0.1241
 5629W        W21703  16.333   4.287   5.039 -0.0982  0.0627  0.0855
 5630W        W21704   1.236  16.829  11.850  0.0932  0.0589  0.0177
 5631W        W21705  17.880   1.783   1.036 -0.0503  0.2726 -0.1216
 5632W        W21706   6.482  11.783   3.192  0.1873 -0.0855  0.0287
 5633W        W21707  16.596   7.387   0.649 -0.3091 -0.0584 -0.1179
 5634W        W21708   5.798  16.067   6.249  0.2674 -0.1091 -0.0854
 5635W        W21709  11.035   1.615   3.004 -0.0880  0.1265 -0.1123
 5636W        W21710   0.013   9.987   0.628  0.1800  0.3567 -0.0162
 5637W        W21711   8.787   1.624  10.798  0.0015 -0.0339 -0.2465
 5638W        W21712   2.133   0.348   5.468  0.0919  0.0148 -0.0173
 5639W        W21713  18.195   5.429   3.499  0.5805 -0.0578  0.2473
 5640W        W21714  16.731   6.618  12.872  0.1516 -0.2293 -0.1777
 5641W        W21715   9.426   6.073  10.943 -0.0697  0.0041  0.0658
 5642W        W21716  11.374  10.665   1.118  0.3022 -0.0450  0.2456
 5643W        W21717  11.881   8.201   2.602 -0.1758 -0.0619 -0.2142
 5644W        W21718  15.345  10.910  13.899  0.0659  0.1292 -0.2560
 5645W        W21719  14.889   7.051  12.035 -0.2585 -0.0471 -0.0312
 5646W        W21720   0.945   8.682  12.147  0.0717 -0.1241  0.1418
 5647W        W21721  14.872  12.271   0.754 -0.1897  0.0212 -0.0746
 5648W        W21722  11.240   3.630   0.650 -0.1334  0.0578 -0.0677
 5649W        W21723  17.280  11.579   0.280  0.3753  0.0955 -0.3479
 5650W        W21724  10.789   3.855   3.602 -0.0694 -0.1021 -0.4830
 5651W        W21725   6.298   7.291   1.007  0.1544 -0.0628 -0.0393
 5652W        W21726   0.045  15.476   2.099  0.2423  0.2470 -0.1503
 5653W        W21727   0.909   1.373  12.898  0.1186  0.2311  0.0195
 5654W        W21728   0.693  16.416   2.953  0.3902 -0.0910  0.0672
 5655W        W21729   8.969   9.555  14.545 -0.0411  0.2196  0.0694
 5656W        W21730   9.036   5.787  14.975  0.2354 -0.1079 -0.1391
 5657W        W21731  12.443  13.440  12.611  0.2494 -0.0867 -0.4189
 5658W        W21732  17.212   9.690   4.345 -0.0110  0.1940 -0.1332
 5659W        W21733   3.730  16.982   4.199  0.1332  0.1813 -0.1766
 5660W        W21734   3.806   8.530  11.732 -0.3022 -0.2071 -0.3580
 5661W        W21735  10.613   3.065   1.210 -0.1333 -0.1109 -0.1418
 5662W        W21736   6.320   8.379   0.568  0.0316  0.0191  0.0186
 5663W        W21737   1.478   4.674   2.649  0.0109 -0.1373 -0.1623
 5664W        W21738  11.696  15.354  14.755 -0.0526  0.0881  0.1231
 5665W        W21739  16.128   6.846   5.920 -0.2334 -0.1764 -0.2159
 5666W        W21740   9.740   4.719  14.698  0.2302  0.0395 -0.2879
 5667W        W21741  16.140  12.474   4.096 -0.0312  0.1808  0.0191
 5668W        W21742  10.169  16.322   0.659 -0.2993  0.1872 -0.3775
 5669W        W21743   4.047  14.280  14.871  0.1736 -0.2673 -0.0782
 5670W        W21744  14.244   9.507   0.619  0.3692 -0.1187  0.1743
 5671W        W21745   7.008   8.110   3.547 -0.0514  0.0026  0.0302
 5672W        W21746   4.176   5.567   1.666  0.0855 -0.1238  0.3362
 5673W        W21747  15.066   3.106   1.117  0.3006 -0.0863 -0.1024
 5674W        W21748  17.979   1.422  12.573 -0.2280 -0.3157  0.0132
 5675W        W21749   2.148   9.038   3.528  0.1001 -0.1321  0.3768
 5676W        W21750   2.393   2.443   3.829 -0.2756 -0.1668  0.1929
 5677W        W21751   4.154   0.052  12.491 -0.1133  0.0147 -0.0608
 5678W        W21752   0.777   2.665   1.259  0.0222 -0.0650  0.1976
 5679W        W21753   2.381  14.708   5.014  0.1035  0.3700  0.1142
 5680W        W21754   0.802  18.075   0.161 -0.0215 -0.1215  0.0703
 5681W        W21755   8.159   3.425   2.777  0.1910 -0.1870 -0.0488
 5682W        W21756  12.237  15.604   0.697  0.0374  0.2354 -0.3950
 5683W        W21757   2.579   4.162  15.161 -0.0386  0.0308  0.2393
 5684W        W21758   2.910  11.319   3.645 -0.1075 -0.2525 -0.0041
 5685W        W21759  10.248  16.407   5.043 -0.1460 -0.0307 -0.2145
 5686W        W21760   6.607   2.221   1.018 -0.0313  0.2915 -0.1461
 5687W        W21761  15.469   8.764  11.986  0.2750 -0.4014 -0.1262
 5688W        W21762   8.096   1.452   4.921 -0.1685  0.0973 -0.0134
 5689W        W21763  11.334   4.561  12.533 -0.0635 -0.3690 -0.4329
 5690W        W21764   3.849   4.947   5.799  0.4308 -0.4799  0.2126
 5691W        W21765  18.295  15.990  14.363 -0.0551 -0.0054 -0.1936
 5692W        W21766  13.438  14.929  13.873 -0.0737 -0.1054  0.0409
 5693W        W21767   3.959  13.691   2.879 -0.1334  0.2755  0.0218
 5694W        W21768  11.878  14.718   1.378  0.5619  0.2865 -0.3027
 5695W        W21769   8.667   9.954   1.764  0.1042  0.0745  0.2866
 5696W        W21770  10.967  12.933   2.170 -0.2568 -0.2865  0.1709
 5697W        W21771   5.722  10.996   1.835 -0.0526  0.3284  0.0471
 5698W        W21772  12.743   9.412   0.402 -0.2051 -0.2565  0.0543
 5699W        W21773   3.048  17.376  12.724  0.1912 -0.4684 -0.1028
 5700W        W21774   3.101   5.263   2.784 -0.2000 -0.1861 -0.0398
 5701W        W21775   3.216   1.840   5.994 -0.2831 -0.0666 -0.0697
 5702W        W21776  15.170   0.311   2.842 -0.3260 -0.1290  0.0139
 5703W        W21777   8.346  17.040   1.798  0.1289 -0.1647  0.0204
 5704W        W21778  13.873  12.530   2.389 -0.0492  0.0431  0.3590
 5705W        W21779   7.914   2.236  11.705 -0.1915  0.2500 -0.0626
 5706W        W21780  10.176   4.860   0.108 -0.0417 -0.0222 -0.3112
 5707W        W21781  13.128   3.317  14.771 -0.1215  0.2382 -0.0922
 5708W        W21782  17.077  13.657  15.247 -0.2172 -0.2075 -0.2152
 5709W        W21783   5.394   8.146   1.379  0.3808 -0.0010  0.0429
 5710W        W21784  14.520  15.507  13.915  0.0850  0.0572 -0.3082
 5711W        W21785  17.345   1.362   3.697 -0.0489  0.0939  0.1104
 5712W        W21786   8.729  13.335   6.098  0.3156  0.3039  0.0565
 5713W        W21787   3.607   6.253   3.928 -0.1240  0.4324  0.1341
 5714W        W21788   7.840   8.537  13.243  0.0381  0.2519 -0.0637
 5715W        W21789  13.257  12.804  12.385 -0.0444 -0.0431 -0.1862
 5716W        W21790   6.945   1.302   6.029 -0.2803 -0.2359  0.0409
 5717W        W21791  13.035  11.383  15.394  0.0267  0.2667  0.3203
 5718W        W21792  11.905   3.456   1.368 -0.2617  0.0151 -0.1470
 5719W        W21793  10.828  12.383   5.193  0.3555  0.0882 -0.1204
 5720W        W21794  10.416  17.520   4.579  0.0489 -0.0956 -0.0428
 5721W        W21795   1.744   8.412  11.908  0.0039  0.1512 -0.0251
 5722W        W21796   1.295   2.146   3.501  0.1466  0.1831 -0.0139
 5723W        W21797   7.895   0.027  14.849  0.1802 -0.1528  0.2764
 5724W        W21798  17.531  10.830  11.200  0.2240  0.1647  0.0892
 5725W        W21799   6.933  10.824   5.417  0.1640 -0.0436 -0.3237
 5726W        W21800   8.590   4.672   1.415 -0.0821 -0.0671 -0.0323
 5727W        W21801  10.987  16.732   4.134 -0.0309  0.0195 -0.2467
 5728W        W21802  17.001  17.355  15.339 -0.0708 -0.1152 -0.0437
 5729W        W21803   9.165  13.069   1.100 -0.0060 -0.1185 -0.2645
 5730W        W21804  11.356  13.969   4.181  0.0923 -0.0409  0.1484
 5731W        W21805   1.978  11.345  15.566 -0.0370  0.2528 -0.0177
 5732W        W21806   0.891  12.758  16.369  0.3304  0.0666 -0.0962
 5733W        W21807  16.957   2.701  11.794  0.3194 -0.1547  0.1007
 5734W        W21808  16.396   5.331  13.036 -0.0375  0.4299  0.0278
 5735W        W21809   3.267   0.524   2.770  0.0678 -0.0780 -0.3029
 5736W        W21810  13.232  17.408   0.606 -0.0528 -0.1974  0.1945
 5737W        W21811   2.013   4.652  12.546 -0.2322  0.1941  0.0856
 5738W        W21812  17.015   0.163  14.645  0.1472  0.4612  0.1515
 5739W        W21813  12.305   2.209   1.747 -0.1634  0.0598  0.3233
 5740W        W21814   7.048   5.347  16.191  0.0267 -0.1852 -0.0902
 5741W        W21815   1.048   7.901  13.544 -0.2731 -0.0350  0.1806
 5742W        W21816  14.140   6.918   4.854 -0.3601 -0.0618  0.2268
 5743W        W21817  11.989   4.566  11.056 -0.1316  0.3160 -0.2088
 5744W        W21818   9.310  17.462  11.540  0.2524 -0.1443  0.1015
 5745W        W21819  17.435   2.770   2.185 -0.0798 -0.3732  0.1819
 5746W        W21820   1.433   7.830   0.656 -0.1164 -0.2521  0.0587
 5747W        W21821  16.158  11.371   0.761  0.0008  0.1014  0.0081
 5748W        W21822   9.343  17.254  12.557  0.1396  0.0741 -0.2656
 5749W        W21823  13.564   2.953  13.040  0.0855  0.0481  0.0202
 5750W        W21824   1.313   2.229  11.699  0.2853  0.2790  0.0313
 5751W        W21825  10.474   1.073  15.687  0.5118 -0.3431 -0.3721
 5752W        W21826  11.312  18.165  11.400 -0.1745 -0.1650  0.0483
 5753W        W21827  12.346  12.115  13.248 -0.4335  0.1190  0.1308
 5754W        W21828  11.581   8.981   3.049  0.0378  0.2597 -0.3706
 5755W        W21829  16.664  11.412   1.481 -0.0929 -0.0007 -0.0574
 5756W        W21830  10.958  12.849   0.758 -0.1804 -0.1646  0.2547
 5757W        W21831  17.158   7.923  15.861 -0.1253 -0.4333 -0.0042
 5758W        W21832  13.764  16.515   4.067 -0.4621  0.2281 -0.2239
 5759W        W21833  15.961   0.068   0.186 -0.3482  0.0631  0.1698
 5760W        W21834   8.815  16.012   3.130  0.0232 -0.1534  0.0270
 5761W        W21835  10.676   4.723   2.637 -0.0063  0.1545  0.1025
 5762W        W21836   6.102  17.975  11.266 -0.3215 -0.2014 -0.0702
 5763W        W21837   0.275   6.124  13.349 -0.0576  0.1495 -0.1973
 5764W        W21838  13.607   3.341  13.446 -0.0165  0.3644  0.3825
 5765W        W21839   5.205  15.994   0.243 -0.0993  0.2045 -0.0929
 5766W        W21840   8.252   7.662   4.327 -0.1267 -0.0784 -0.0885
 5767W        W21841  16.220   5.272  14.534  0.0225  0.0365  0.4758
 5768W        W21842   5.558   7.421  12.670  0.1895  0.0857 -0.0965
 5769W        W21843  10.280   9.122  14.779  0.0628  0.2967 -0.1553
 5770W        W21844   9.771   0.773  13.149  0.0122  0.3184 -0.0712
 5771W        W21845   0.449  14.545  12.250  0.0404 -0.2735  0.3321
 5772W        W21846  12.706  18.184   4.087  0.0899  0.0470  0.0336
 5773W        W21847  14.968  12.704   2.909  0.0338  0.1712 -0.0356
 5774W        W21848  14.811  14.364   0.073 -0.1834  0.2748 -0.1305
 5775W        W21849   4.489   0.586   3.471 -0.1142 -0.1282  0.1039
 5776W        W21850   5.640  16.121  15.175  0.1217  0.1344 -0.1833
 5777W        W21851   6.806   7.749  14.512  0.0987 -0.0917  0.1077
 5778W        W21852  17.099   7.217  15.642 -0.1920  0.3014 -0.0119
 5779W        W21853  18.053  10.130  13.974  0.4498 -0.1371  0.1752
 5780W        W21854   1.399   3.846  12.901 -0.1386  0.0376  0.4003
 5781W        W21855   3.999   9.048   5.313 -0.1991 -0.0482 -0.1875
 5782W        W21856  13.450   3.764  10.540  0.2559 -0.0492  0.2081
 5783W        W21857  16.625  15.742   2.199  0.1306  0.1940 -0.2035
 5784W        W21858  13.718  13.266   3.557 -0.0095  0.2215  0.0175
 5785W        W21859  13.217  17.659  13.142 -0.0554  0.3793 -0.1029
 5786W        W21860  17.334   9.231   4.853  0.2415  0.0594  0.3762
 5787W        W21861  16.495   7.734  15.191 -0.3745 -0.0863  0.3490
 5788W        W21862   5.827   2.390   0.368  0.0525 -0.1731 -0.2179
 5789W        W21863   6.229   5.761  15.351  0.0400 -0.2238  0.1273
 5790W        W21864  13.010   2.706  13.555  0.4468  0.1370 -0.1464
 5791W        W21865   5.063   8.606   2.331  0.1973  0.0122 -0.0333
 5792W        W21866   5.316   2.240   0.499  0.1707 -0.0717  0.1655
 5793W        W21867  13.536  18.033  16.288  0.0780  0.3058  0.0640
 5794W        W21868   5.780   0.529  16.396  0.3534 -0.1208 -0.0575
 5795W        W21869  10.754  10.660   1.346 -0.1194  0.0425 -0.1662
 5796W        W21870   9.100   3.580  10.908 -0.0773 -0.1697  0.0180
 5797W        W21871   7.924  16.692   1.197 -0.0095 -0.0008  0.0984
 5798W        W21872  12.516   5.640   3.629 -0.2517  0.2200 -0.4010
 5799W        W21873   0.917  10.637  14.903  0.2706 -0.0319  0.2531
 5800W        W21874  12.705  17.443   5.423  0.2057 -0.0338  0.1161
 5801W        W21875  13.727   2.392  15.364  0.3300  0.1778  0.0321
 5802W        W21876   0.730   3.881  16.056 -0.0809 -0.0624 -0.0034
 5803W        W21877   4.611  11.551  13.420  0.2717  0.3258  0.1873
 5804W        W21878   2.537   0.666  12.172  0.3191 -0.1690  0.2051
 5805W        W21879   5.936  10.026   2.987  0.0623 -0.2079  0.2903
 5806W        W21880   1.158   8.923  11.397 -0.1985 -0.0505 -0.3762
 5807W        W21881   2.007   6.294   3.151  0.4108  0.0095  0.1177
 5808W        W21882   3.724   8.852  13.357 -0.0920 -0.0377 -0.0637
 5809W        W21883  12.379   0.189   3.787  0.1949  0.0430  0.2651
 5810W        W21884   8.971  13.369   1.662 -0.0245 -0.3135  0.0724
 5811W        W21885   9.270   8.486   4.602  0.1045  0.2678  0.0531
 5812W        W21886  13.156   3.682  16.146 -0.2553 -0.2163 -0.1240
 5813W        W21887   6.088   1.136   3.333  0.0139  0.0207  0.1724
 5814W        W21888   3.530   9.623   3.985  0.1669  0.0326 -0.1249
 5815W        W21889  12.955  10.669   3.340 -0.0210 -0.0372  0.2482
 5816W        W21890   5.771   8.110   3.268  0.1145 -0.1847 -0.0559
 5817W        W21891  11.136   2.648  12.484  0.0138  0.0913  0.3155
 5818W        W21892   6.142   7.479   5.981 -0.2279 -0.1549  0.3092
 5819W        W21893  17.303   5.175  15.319  0.3460 -0.1520 -0.1451
 5820W        W21894   1.569   3.485  11.940  0.0157 -0.1886  0.1342
 5821W        W21895  13.660   2.439   0.088 -0.1379 -0.0868  0.1425
 5822W        W21896  13.408  13.654   5.077 -0.0945 -0.0573  0.1295
 5823W        W21897  15.036   1.464   5.632 -0.2747  0.1169  0.0944
 5824W        W21898  16.970   7.744   2.454 -0.0138  0.0308  0.1837
 5825W        W21899  10.288   0.297   2.712  0.1062 -0.3361 -0.2583
 5826W        W21900   9.052   1.138  16.083  0.2888 -0.1326 -0.3170
 5827W        W21901   3.729   8.852   2.929  0.1228 -0.0788 -0.0962
 5828W        W21902   3.929  16.462  12.994  0.3757 -0.3355 -0.0158
 5829W        W21903  15.373  14.373  15.014  0.3139 -0.0878  0.0979
 5830W        W21904  16.579  17.795   0.716  0.1254  0.1739  0.1676
 5831W        W21905   2.243  18.259   5.746 -0.1837  0.0892 -0.4134
 5832W        W21906   6.894   4.316   3.044 -0.2540 -0.1301 -0.0646
 5833W        W21907   7.106   5.525   5.196  0.0422  0.0289 -0.0755
 5834W        W21908  14.106  15.158  14.810  0.0776 -0.0179 -0.1774
 5835W        W21909  12.492   1.013   5.965  0.1147  0.1665 -0.0432
 5836W        W21910   2.099  10.790  15.627  0.4441 -0.2119  0.0803
 5837W        W21911   6.431  10.116   0.226  0.1590 -0.1544  0.0642
 5838W        W21912  16.240   4.302  15.570 -0.3418  0.0437 -0.0861
 5839W        W21913   9.515   8.992  14.739  0.1838 -0.0077  0.0596
 5840W        W21914  15.026  14.710   5.924 -0.1796 -0.1063  0.1210
 5841W        W21915  15.869   7.833   4.417  0.2679 -0.1635  0.0934
 5842W        W21916   9.229  15.849   5.195  0.1114  0.3207  0.0346
 5843W        W21917  11.700  16.228   3.619  0.1713  0.0502 -0.0176
 5844W        W21918   3.698   0.433   4.039 -0.0259  0.1556  0.2539
 5845W        W21919  13.675   6.395   1.256  0.2503 -0.1399  0.0998
 5846W        W21920  17.291  10.537  13.539  0.1026 -0.1593  0.2173
 5847W        W21921   8.720  10.426  15.102 -0.4929 -0.0699 -0.0289
 5848W        W21922  10.933   5.617  11.339  0.1887  0.3498 -0.0536
 5849W        W21923   2.863   6.625  13.779 -0.0602  0.0734  0.2160
 5850W        W21924   9.257  12.806   3.743 -0.1113  0.1624 -0.2183
 5851W        W21925   6.166   6.472   3.975 -0.0761 -0.2571  0.6551
 5852W        W21926   5.350   6.038  13.388 -0.0834 -0.0777 -0.0275
 5853W        W21927   5.976   1.910  16.277 -0.2639  0.0179 -0.4202
 5854W        W21928  17.122   3.522   4.838  0.0050 -0.2016 -0.0878
 5855W        W21929  12.234   4.726   1.689 -0.0477 -0.0355 -0.0686
 5856W        W21930   0.205  16.359  16.131  0.0746  0.0248  0.2900
 5857W        W21931  13.233   8.005   5.150  0.2740 -0.0534 -0.0983
 5858W        W21932  17.715   6.507  13.693 -0.2970  0.0867 -0.2602
 5859W        W21933  11.661  12.501  13.991 -0.0650 -0.2651  0.0103
 5860W        W21934  15.573  17.271  15.067  0.1445 -0.4164  0.1601
 5861W        W21935   3.559  17.456  13.679  0.1441  0.1716 -0.0903
 5862W        W21936  17.052   2.601   5.669  0.0032  0.3454  0.0016
 5863W        W21937  14.929  13.966   3.066 -0.0352 -0.3085 -0.0027
 5864W        W21938   0.161  10.605   2.034  0.0057  0.1539  0.2452
 5865W        W21939  17.145   8.748   1.853  0.2564 -0.4307  0.0176
 5866W        W21940   9.273  13.724  11.601  0.1926  0.1395  0.2028
 5867W        W21941  13.504   4.965   5.244  0.1062 -0.1596 -0.0873
 5868W        W21942  14.182   6.452  15.219  0.1005  0.2299  0.0973
 5869W        W21943  13.413  17.627   3.675 -0.3662  0.0358 -0.0268
 5870W        W21944  10.454   0.020  14.418  0.0951  0.1512  0.1779
 5871W        W21945   2.537  11.529   3.369 -0.0704  0.0373 -0.0453
 5872W        W21946  13.047  14.232   5.705  0.0946  0.1147  0.1259
 5873W        W21947  12.169  10.871   2.703  0.0207 -0.2350  0.2498
 5874W        W21948  15.610  10.429   1.606 -0.3030 -0.0092  0.3972
 5875W        W21949  14.467  17.378   1.852  0.0947  0.0324 -0.1970
 5876W        W21950   3.314  13.551  15.847  0.1002 -0.2241 -0.0128
 5877W        W21951   6.100   7.160  12.826 -0.2191 -0.1348 -0.0449
 5878W        W21952   7.655  17.819   5.309 -0.1066  0.1195  0.0424
 5879W        W21953  13.554   5.074   3.225 -0.0964 -0.2075  0.0125
 5880W        W21954  10.264   3.392  14.210  0.1403 -0.1574  0.2140
 5881W        W21955   8.199  17.388   1.264 -0.1651 -0.3148  0.0422
 5882W        W21956  10.614   4.882  15.108  0.0753  0.2965  0.1466
 5883W        W21957   8.015   4.603   4.997  0.1950  0.1819 -0.1748
 5884W        W21958   5.485  16.936   2.513  0.2552 -0.1691  0.0312
 5885W        W21959   9.173   3.961  13.472 -0.2525 -0.0751  0.1413
 5886W        W21960   9.291   1.206   0.213 -0.2641 -0.1745 -0.0417
 5887W        W21961   9.095  15.804  12.719  0.0702  0.1454  0.1859
 5888W        W21962  11.965  14.576  13.495  0.2982  0.0125 -0.0132
 5889W        W21963  14.358   3.780   3.425 -0.1826 -0.2561  0.1163
 5890W        W21964   2.447   6.533  11.508  0.4354 -0.0167 -0.1251
 5891W        W21965   7.786   6.814  16.353  0.2815 -0.0900 -0.1878
 5892W        W21966   8.565  13.405  14.259 -0.0536  0.0011 -0.3282
 5893W        W21967  13.603  13.177   2.330 -0.2105 -0.0745  0.0441
 5894W        W21968   2.731   1.449   0.243 -0.2408 -0.1762  0.3301
 5895W        W21969   8.269   5.843  14.411  0.0077 -0.0792 -0.0606
 5896W        W21970   1.791   5.162  11.527  0.2463  0.1439 -0.3914
 5897W        W21971  10.832   3.614  14.103  0.1150  0.1961 -0.0903
 5898W        W21972   3.633  16.340  13.444  0.0073 -0.1894  0.1013
 5899W        W21973   3.654   7.763  13.776  0.0293 -0.0596  0.2000
 5900W        W21974   1.718   6.182  10.537  0.2382 -0.0600 -0.0623
 5901W        W21975   9.706   0.396  14.902  0.2419 -0.0267 -0.4090
 5902W        W21976   3.051  14.210   3.155 -0.1890  0.1381  0.0473
 5903W        W21977  10.209  11.374  16.208 -0.0381  0.1530  0.0884
 5904W        W21978  10.563  17.630  13.041  0.3120  0.3108 -0.0014
 5905W        W21979  18.247  17.403   4.982  0.0868 -0.1167  0.0007
 5906W        W21980   0.041   8.458   3.858 -0.1514 -0.1706  0.0921
 5907W        W21981   3.467   3.257   0.070 -0.0294 -0.1544  0.0252
 5908W        W21982   0.924   6.889   5.450  0.0769 -0.0148 -0.1037
 5909W        W21983   3.248   1.591   5.537 -0.1722  0.1580  0.4600
 5910W        W21984  10.587   3.459  13.592  0.2595 -0.0521 -0.0309
 5911W        W21985  11.311   7.752   1.005  0.0556  0.0731  0.0915
 5912W        W21986   6.991  14.524  16.029 -0.1395 -0.0316 -0.2179
 5913W        W21987   5.874  14.641   3.564 -0.1134 -0.1915  0.3022
 5914W        W21988   3.001   6.092   5.466 -0.0381  0.0736  0.0384
 5915W        W21989  16.026  17.239  12.177 -0.3135  0.2465  0.0362
 5916W        W21990  15.601  12.824   3.413 -0.1595  0.1133  0.2158
 5917W        W21991   1.978  10.331  13.103  0.1245 -0.2144 -0.1701
 5918W        W21992  17.070   6.086   4.218  0.0255 -0.2120  0.0085
 5919W        W21993   3.884  17.885  11.302  0.0165  0.5601  0.1343
 5920W        W21994  12.513   4.133  16.254  0.0751  0.0454  0.1117
 5921W        W21995  14.120  16.364  13.981 -0.1650 -0.3388 -0.1262
 5922W        W21996  12.923  15.127   0.157  0.2519 -0.0604 -0.1405
 5923W        W21997   7.225  12.379   3.413  0.2381  0.0429  0.1065
 5924W        W21998   7.453  17.470   3.295  0.1984 -0.0505 -0.0536
 5925W        W21999  17.266  14.543   4.419  0.0111  0.1187  0.1036
 5926W        W22000  12.860   2.939   5.764 -0.1146  0.2157 -0.0447
 5927W        W22001   8.015   3.731  15.416 -0.2075 -0.0470  0.4876
 5928W        W22002   4.763   8.844   4.685 -0.0765 -0.1233  0.2062
 5929W        W22003   8.871  17.547   0.697 -0.0069 -0.0167  0.2274
 5930W        W22004   1.022  16.472  12.633 -0.0138 -0.1236 -0.0462
 5931W        W22005   9.234   0.445   4.946 -0.1001  0.3405 -0.1316
 5932W        W22006   4.647  13.225   3.491 -0.1440 -0.4714  0.0109
 5933W        W22007  16.946  16.331  15.194 -0.2967  0.0292 -0.2533
 5934W        W22008   4.957  12.781  13.304  0.0805 -0.2069 -0.1036
 5935W        W22009   9.641  12.836   0.591 -0.0189  0.1131 -0.0498
 5936W        W22010   1.560  18.158   0.699  0.2755 -0.2638 -0.1013
 5937W        W22011   0.176  15.481  14.763  0.0482  0.2879 -0.1026
 5938W        W22012  17.744   7.349  13.184  0.1431  0.2176 -0.0839
 5939W        W22013  14.041  18.324  11.377 -0.2106  0.0884 -0.1240
 5940W        W22014  15.285  16.573  12.161  0.2079  0.0790  0.0666
 5941W        W22015  10.949   1.431   1.938 -0.2856  0.1987  0.2120
 5942W        W22016  16.928   9.615  15.932 -0.0261 -0.0480  0.4451
 5943W        W22017  10.417  18.085  12.982 -0.2368  0.0398 -0.2950
 5944W        W22018  11.982   1.021  10.785  0.1579 -0.0187  0.4967
 5945W        W22019   2.248  16.257  10.352 -0.0845  0.2350 -0.0929
 5946W        W22020   9.436   9.010   3.359 -0.2003 -0.1631  0.1942
 5947W        W22021   4.432   5.275   0.149  0.0341 -0.0475  0.2600
 5948W        W22022  18.066   7.538   1.448 -0.0484  0.1317  0.0517
 5949W        W22023   7.565  13.315   4.511 -0.2302 -0.2766 -0.4603
 5950W        W22024   9.717   3.063  14.149 -0.0164 -0.0173 -0.2150
 5951W        W22025  10.259  17.671  13.835 -0.5374 -0.1970 -0.1739
 5952W        W22026   7.543   8.054  14.804  0.0755  0.0158  0.0066
 5953W        W22027   4.584   6.834  15.942 -0.1111 -0.1040 -0.0167
 5954W        W22028   7.671   9.544  13.369  0.1365  0.0368  0.2031
 5955W        W22029   7.036   2.174  11.986 -0.3626  0.1925  0.0967
 5956W        W22030  15.017  10.222  13.629  0.1121  0.1512 -0.1690
 5957W        W22031  13.808  16.610   2.670  0.1695 -0.3551 -0.0833
 5958W        W22032  17.619  15.803  14.891  0.0915  0.0123  0.4906
 5959W        W22033  10.120  16.154   3.665  0.2015  0.0661 -0.0829
 5960W        W22034   2.681  16.763  15.086 -0.1231 -0.0451 -0.0962
 5961W        W22035  18.287   1.555   0.801  0.1942 -0.0646  0.0197
 5962W        W22036  16.508   1.453  15.705 -0.1934  0.0724  0.2167
 5963W        W22037   9.943  15.385   3.272  0.3236 -0.0331 -0.1822
 5964W        W22038  13.731   7.348  12.653  0.1367 -0.0755 -0.0218
 5965W        W22039  17.189   3.566   3.666 -0.1557  0.0754  0.1418
 5966W        W22040   0.436  12.034   3.763  0.3734 -0.0369 -0.0630
 5967W        W22041  11.947  12.905  16.225  0.1899  0.1115 -0.0157
 5968W        W22042  15.237   6.738  12.063 -0.1663  0.4140  0.1682
 5969W        W22043  16.201   5.329   1.499 -0.1071  0.1881  0.1740
 5970W        W22044  13.348   7.617  11.001 -0.1817 -0.0354  0.0378
 5971W        W22045  14.132  10.396   2.975  0.3525  0.0286 -0.4153
 5972W        W22046  16.146  11.280   2.429 -0.0437 -0.1714 -0.0605
 5973W        W22047  14.140   2.728  10.596  0.0996 -0.0009 -0.0428
 5974W        W22048  11.011   5.454   2.254 -0.1275 -0.4876  0.1229
 5975W        W22049   1.736   2.231  16.032 -0.2077 -0.0102  0.1645
 5976W        W22050   8.098  15.657  15.126 -0.0818 -0.2284 -0.2063
 5977W        W22051  17.158  13.646   3.015  0.1052  0.0620  0.0403
 5978W        W22052  10.858   5.314  12.390  0.0495 -0.2955 -0.4011
 5979W        W22053   6.440   2.946   2.853  0.1697 -0.3274 -0.4047
 5980W        W22054  10.414  16.528  12.909  0.2501 -0.0333  0.0311
 5981W        W22055  16.975   6.132  15.609  0.1109 -0.0487  0.2618
 5982W        W22056  12.474   4.521   6.406 -0.1534  0.3293 -0.3638
 5983W        W22057   9.928  12.836   3.010  0.2092  0.1559  0.1935
 5984W        W22058  11.183  16.073  16.128  0.0311  0.3522 -0.2086
 5985W        W22059   9.404  12.765  16.043 -0.1082 -0.0546 -0.2172
 5986W        W22060  15.615   6.507  11.685 -0.0995 -0.2178  0.3099
 5987W        W22061   3.768  14.857   1.496 -0.2987 -0.1693  0.0572
 5988W        W22062  14.741  11.163  12.505  0.0817 -0.0081 -0.1034
 5989W        W22063  16.675  12.781   4.587 -0.1480  0.2171 -0.3285
 5990W        W22064  12.011  16.821  12.421 -0.0386  0.0354 -0.3080
 5991W        W22065   9.217   6.149  15.814  0.0769  0.1708  0.0737
 5992W        W22066  15.795   8.146  13.688  0.0425  0.2247 -0.2915
 5993W        W22067  11.349   9.061   3.562  0.0571  0.2929 -0.1590
 5994W        W22068   3.396  13.905  12.405 -0.2150  0.0658  0.2438
 5995W        W22069   8.296  15.993   1.314 -0.1854 -0.1748 -0.1733
 5996W        W22070   3.453  10.951  15.917  0.2094 -0.1922  0.0726
 5997W        W22071  16.198  12.393   2.306  0.0155 -0.2197 -0.2876
 5998W        W22072   8.544  10.467  12.616 -0.0409 -0.4343 -0.1312
 5999W        W22073   6.725   4.110   0.398 -0.0109 -0.0449 -0.0868
 6000W        W22074  15.428  18.310   2.227 -0.0631  0.1990 -0.2992
 6001W        W22075   4.444   0.160   1.370  0.2741 -0.1783 -0.0789
 6002W        W22076  10.077   8.838   0.022  0.1049  0.1505 -0.0812
 6003W        W22077   0.468  11.765   3.261  0.0933 -0.0887  0.2066
 6004W        W22078   8.876  18.026   0.823 -0.1075 -0.3168 -0.0001
 6005W        W22079   7.449   5.066  14.093 -0.0298 -0.1985  0.2236
 6006W        W22080   2.132   3.686   5.180 -0.2841 -0.0583 -0.0782
 6007W        W22081  16.007   1.179   4.218 -0.2741 -0.0527  0.1172
 6008W        W22082  12.239   7.345   1.054 -0.0816 -0.1846  0.3268
 6009W        W22083  16.524   0.088   1.455  0.0280 -0.1023 -0.2064
 6010W        W22084   6.242   4.700   3.246  0.1766  0.0477  0.0292
 6011W        W22085   9.212  17.425  13.042 -0.2826 -0.0040 -0.4551
 6012W        W22086   7.009   4.206  15.368  0.1617  0.3951 -0.1200
 6013W        W22087   9.271  10.998  15.146 -0.3486  0.0632 -0.3286
 6014W        W22088   0.684  11.520   3.705  0.2099 -0.0962 -0.5673
 6015W        W22089   3.244   1.965   1.529 -0.3367 -0.0258 -0.2172
 6016W        W22090   7.955   0.507   3.793  0.2591  0.1801  0.0587
 6017W        W22091  18.172  17.534  15.034  0.2002  0.2327  0.0982
 6018W        W22092  15.171  14.750   3.548 -0.1723 -0.0745 -0.0492
 6019W        W22093   0.396  10.837  14.839  0.4194  0.0323 -0.1285
 6020W        W22094   7.703  15.176  13.427 -0.2191  0.1469  0.1906
 6021W        W22095  15.272   4.482   4.075 -0.0274 -0.2915 -0.0470
 6022W        W22096  10.805   8.666  15.798  0.0935  0.0504 -0.3135
 6023W        W22097   8.636   5.046   0.185  0.0961  0.1022  0.0079
 6024W        W22098   9.785  10.347   4.614 -0.0539  0.2413  0.1441
 6025W        W22099  17.272  13.786   1.182  0.2304 -0.1842 -0.3058
 6026W        W22100  10.676   8.226   2.979 -0.4096 -0.3454  0.1558
 6027W        W22101  15.732  17.655  13.925 -0.2567  0.1884 -0.0027
 6028W        W22102   8.983  15.045   4.334 -0.0706  0.0387 -0.3571
 6029W        W22103  15.185  15.031  13.253  0.2927 -0.2505  0.0525
 6030W        W22104   8.341   6.729  15.678  0.2162  0.0847 -0.2291
 6031W        W22105  14.974   4.697  16.333  0.0643 -0.0079 -0.0343
 6032W        W22106   3.690  13.959  16.086 -0.1235  0.1962  0.0360
 6033W        W22107  13.027  10.044   1.911 -0.0091  0.1483 -0.0281
 6034W        W22108   7.484  16.103   1.899 -0.5078 -0.0578 -0.1158
 6035W        W22109  18.140  14.699   0.932  0.2037  0.0720  0.1776
 6036W        W22110  18.208   5.729   5.052  0.1473  0.0672  0.1748
 6037W        W22111   7.227  14.753   2.766  0.2011  0.2607  0.0209
 6038W        W22112   6.589  12.619   1.953 -0.3800  0.0456 -0.0001
 6039W        W22113   0.536   0.244   4.117 -0.1596 -0.0086  0.0937
 6040W        W22114   2.775   3.569   2.855 -0.2225 -0.4474  0.1879
 6041W        W22115  14.337  15.506   4.127 -0.0233 -0.1205 -0.1518
 6042W        W22116   2.383  14.713   3.694 -0.1828  0.1374  0.0309
 6043W        W22117   9.456   0.625  11.399 -0.3069 -0.0668 -0.2890
 6044W        W22118   9.304   1.930  11.112  0.4605  0.0512  0.1036
 6045W        W22119  16.639  17.996   2.660  0.1898 -0.2590  0.2138
 6046W        W22120  16.539  15.093   1.041 -0.2121 -0.0133  0.2693
 6047W        W22121  10.872  14.034  14.690  0.1019 -0.0539 -0.3602
 6048W        W22122   8.500  13.993   3.861  0.2832  0.0645  0.0535
 6049W        W22123   9.911   6.153   5.790  0.0466  0.3237  0.3133
 6050W        W22124   0.036   8.166   4.396  0.2267  0.2330  0.1016
 6051W        W22125  14.966   5.681   3.990 -0.3195 -0.0962 -0.2622
 6052W        W22126   5.524  16.743  14.565  0.0254  0.0099  0.1127
 6053W        W22127   0.221  15.895   5.471 -0.1440  0.2533  0.0125
 6054W        W22128  15.860  10.490  12.209  0.2175 -0.1148  0.1141
 6055W        W22129   9.770  10.451   1.044  0.2696  0.0575 -0.0752
 6056W        W22130   7.708   1.191  12.727 -0.0684 -0.2489  0.3628
 6057W        W22131  11.502   6.279   5.116  0.2467  0.0945  0.2752
 6058W        W22132  16.314   1.288  12.703  0.0440  0.3089  0.0547
 6059W        W22133   9.601  10.536   3.319 -0.1490 -0.0788  0.1826
 6060W        W22134  12.676  12.778   2.311 -0.4299  0.0147 -0.0448
 6061W        W22135   8.654   8.681   1.024 -0.2961  0.0899  0.5485
 6062W        W22136   4.319   3.974   0.591 -0.1031 -0.1855  0.0487
 6063W        W22137  11.404  16.631  12.889  0.1210  0.2472 -0.0365
 6064W        W22138  11.969   9.259   4.870  0.0350  0.2809  0.0793
 6065W        W22139  10.671   4.249  13.368  0.0225 -0.0382  0.0562
 6066W        W22140  15.994   4.331  14.445  0.2028  0.0251 -0.0090
 6067W        W22141  15.129  10.731  14.958 -0.1075  0.0623 -0.1224
 6068W        W22142  11.970  14.900  14.745  0.3551  0.1146 -0.1735
 6069W        W22143  15.682   6.773   4.044  0.1194  0.1773 -0.0981
 6070W        W22144   9.272  14.984  14.720 -0.0175 -0.2184 -0.0806
 6071W        W22145  13.756  13.672   3.231 -0.0138  0.1707  0.1082
 6072W        W22146   0.178  14.861  14.699  0.2076 -0.2120 -0.1751
 6073W        W22147  13.193   0.829   3.916  0.0554 -0.0035 -0.1279
 6074W        W22148  16.274  12.314   1.374 -0.1896  0.0074 -0.2282
 6075W        W22149   7.125   8.371  16.209  0.0861  0.2170 -0.4644
 6076W        W22150  12.895  18.078   3.162  0.1340 -0.1614  0.2073
 6077W        W22151  17.640   0.819  13.712 -0.0267  0.2756 -0.4373
 6078W        W22152  15.681   2.782  16.308 -0.2555 -0.2189  0.1684
 6079W        W22153  16.180   9.647   1.916 -0.3134 -0.3762 -0.0472
 6080W        W22154  13.477   7.845   2.771 -0.0852 -0.1323 -0.1131
 6081W        W22155   9.055  17.622   1.227  0.1983  0.3121  0.0121
 6082W        W22156   4.053  16.903  14.529  0.6165 -0.1078 -0.2171
 6083W        W22157  17.301  16.510   4.986 -0.3681  0.1246  0.1872
 6084W        W22158  14.199   4.929  15.276 -0.1065  0.0981 -0.0944
 6085W        W22159   8.256  14.407   1.731 -0.1017  0.1303  0.1183
 6086W        W22160  10.713  10.451  12.216 -0.1018 -0.0864 -0.5658
 6087W        W22161  14.361  12.017  12.460 -0.0529 -0.1678 -0.3318
 6088W        W22162  16.536   1.302   5.408 -0.2306 -0.0242 -0.0497
 6089W        W22163   6.995  14.469   4.473 -0.1656 -0.0248 -0.3968
 6090W        W22164  13.309   8.117   3.210 -0.1062  0.1072 -0.0222
 6091W        W22165  16.774  11.141  15.390 -0.4124 -0.1321 -0.0146
 6092W        W22166  17.318  10.337   2.730  0.2364 -0.0166 -0.2033
 6093W        W22167   0.076  16.590  13.431  0.0672 -0.1572 -0.0381
 6094W        W22168  11.177   9.281  12.371  0.2025  0.1195 -0.2998
 6095W        W22169  17.107  17.882   1.504 -0.2378  0.0368  0.2025
 6096W        W22170   4.896  10.838  12.268 -0.2117 -0.0413  0.2798
 6097W        W22171   2.232  12.409   4.317 -0.1023  0.0933 -0.1445
 6098W        W22172   4.326   4.895   1.228 -0.0620  0.0656  0.4106
 6099W        W22173  16.379   9.926   0.513  0.2540  0.2022  0.1216
 6100W        W22174   1.968   9.460   2.448  0.4409  0.0318  0.0819
 6101W        W22175  14.459  17.705  14.155  0.0302 -0.1607  0.0331
 6102W        W22176  12.495   2.810   0.584  0.0262 -0.0823  0.2080
 6103W        W22177   9.946   4.143  13.636  0.2079 -0.3748 -0.2006
 6104W        W22178  12.169   3.793   1.610  0.1398  0.0473 -0.3082
 6105W        W22179  10.168   1.790  15.204  0.0781  0.3119 -0.1404
 6106W        W22180  17.198  12.997   4.462 -0.3524 -0.1307 -0.2568
 6107W        W22181   2.285   8.183   3.636  0.1037 -0.0597 -0.1253
 6108W        W22182   9.517  16.021  12.712 -0.2578 -0.0279 -0.0529
 6109W        W22183  15.253   1.621   0.644 -0.1329  0.0109  0.0460
 6110W        W22184  13.045  12.204   4.471  0.2193  0.1814 -0.3486
 6111W        W22185   8.230  14.789   0.320 -0.1942  0.0737 -0.0099
 6112W        W22186   0.782   5.323  13.291  0.0796  0.2223  0.1255
 6113W        W22187  11.579   2.238   0.046  0.0861 -0.3380  0.1011
 6114W        W22188  11.446   5.609  15.153  0.2047 -0.2146  0.1009
 6115W        W22189   0.731   8.209  15.848  0.1829 -0.2777  0.2840
 6116W        W22190  14.262  17.480   5.304  0.1195  0.1947 -0.1094
 6117W        W22191   3.363   3.484  11.572 -0.1724  0.0798 -0.1673
 6118W        W22192  11.743  12.179  15.489 -0.2192  0.2137 -0.0699
 6119W        W22193  14.196   7.941  14.927  0.0966 -0.0082  0.0974
 6120W        W22194  14.906  13.360  14.430 -0.2497 -0.1954  0.0707
 6121W        W22195   7.414   0.517  14.909  0.1077  0.2592 -0.1431
 6122W        W22196  11.756   2.514   4.178 -0.2570 -0.1725 -0.3282
 6123W        W22197   2.396  14.554   0.999  0.1674 -0.1047 -0.1216
 6124W        W22198   0.830  11.951   4.413 -0.1337  0.2108  0.2178
 6125W        W22199  13.290  10.244  15.469 -0.2701  0.4531 -0.1419
 6126W        W22200   6.174   9.149   1.052  0.2615 -0.1043 -0.1054
 6127W        W22201   1.111   2.158  15.486 -0.2864  0.2143  0.2737
 6128W        W22202  10.545  15.546   2.292  0.0407 -0.1029 -0.0493
 6129W        W22203  15.464   2.422  15.822 -0.0320 -0.0640  0.0823
 6130W        W22204  15.199  15.746  15.512  0.0550  0.2506 -0.1567
 6131W        W22205   4.974   1.503  15.676 -0.0833 -0.1341  0.1650
 6132W        W22206   7.759   0.415   0.552 -0.3000  0.2375 -0.0958
 6133W        W22207   1.744   2.669  12.429 -0.0452  0.1407 -0.0792
 6134W        W22208  11.068   5.827   1.710 -0.2250  0.3192 -0.0808
 6135W        W22209  14.101   6.308   4.451 -0.3560  0.3741 -0.1447
 6136W        W22210   6.901   0.718  15.497  0.0236  0.0692  0.0296
 6137W        W22211   2.464   2.208  12.796 -0.2094  0.2211  0.1707
 6138W        W22212  14.264   2.930   4.517 -0.1687  0.2579 -0.1441
 6139W        W22213   4.694   0.978  15.981 -0.1060 -0.1597  0.2146
 6140W        W22214  11.481   7.013  16.097 -0.2095  0.1392 -0.1130
 6141W        W22215   1.211  12.398   1.269  0.1059  0.0310 -0.0999
 6142W        W22216   1.331   9.566  14.741 -0.1953  0.0624 -0.0180
 6143W        W22217   1.212   4.243  11.368 -0.0378 -0.3558  0.0588
 6144W        W22218  10.115   9.794  14.236 -0.0783 -0.0951 -0.0102
 6145W        W22219   1.664   4.467  15.264 -0.0627  0.1381  0.1155
 6146W        W22220   4.138  17.917   3.187  0.0093 -0.1997 -0.2838
 6147W        W22221  17.540  11.927  12.809  0.0631 -0.0135  0.1169
 6148W        W22222   6.444   9.698   3.652  0.2907  0.3139  0.0554
 6149W        W22223  18.218   5.332  14.288  0.1979  0.1988 -0.0188
 6150W        W22224   5.198  13.354  15.101 -0.0651 -0.2322  0.1869
 6151W        W22225   7.247   7.526   2.206 -0.1215  0.0381  0.2016
 6152W        W22226  11.183   4.240  13.301 -0.0030 -0.3707 -0.2294
 6153W        W22227  15.232   7.393  16.265 -0.0246 -0.2091  0.0371
 6154W        W22228  14.134  16.284   1.464 -0.2151 -0.4790 -0.0028
 6155W        W22229   9.484  17.690  16.384 -0.2171 -0.0247  0.1079
 6156W        W22230   6.973   4.247  15.845  0.2167 -0.0663 -0.0899
 6157W        W22231  16.347   4.732  15.845  0.0881  0.1251 -0.0493
 6158W        W22232   6.274  16.569  12.203  0.3744  0.0650 -0.1212
 6159W        W22233   1.120  16.905  12.354 -0.1727  0.3255  0.2974
 6160W        W22234  14.874  17.764   1.149  0.2261 -0.0655  0.3686
 6161W        W22235   0.122   2.103  13.092 -0.1691  0.5179  0.1087
 6162W        W22236  10.802   6.411  13.252 -0.0175  0.0448  0.2236
 6163W        W22237  12.982   2.064  15.937 -0.4560 -0.1864 -0.0531
 6164W        W22238   5.588  17.807   3.523  0.0103  0.1882  0.2666
 6165W        W22239  16.206   1.270   0.569 -0.1445  0.0015  0.3690
 6166W        W22240  11.059  13.111  11.436  0.0820 -0.0644 -0.4116
 6167W        W22241   2.051  16.899   1.179  0.1756 -0.0804 -0.2649
 6168W        W22242   5.575  13.648  11.516  0.0247 -0.4258 -0.1028
 6169W        W22243  15.865   0.472  12.438 -0.3358  0.3394  0.1034
 6170W        W22244  14.496  12.949   4.064  0.1306  0.1426 -0.2586
 6171W        W22245   8.060  11.740   0.368 -0.0218 -0.0282  0.2301
 6172W        W22246  12.525   4.331  12.887  0.0742  0.0155  0.1521
 6173W        W22247   9.005  11.131   5.342 -0.1450 -0.3519 -0.3179
 6174W        W22248   7.691  11.833  15.114  0.2645  0.1386  0.1689
 6175W        W22249   5.647  17.253   0.230  0.0014 -0.0629  0.1449
 6176W        W22250   6.656  17.298  15.989  0.4649 -0.0787 -0.0380
 6177W        W22251   7.067   2.691   2.648  0.0827  0.1404  0.0899
 6178W        W22252   2.249  10.056  15.331 -0.1273  0.0170 -0.1836
 6179W        W22253  16.921   7.156  13.434  0.2088  0.1697 -0.0874
 6180W        W22254  11.537   7.276   2.193 -0.2923  0.1435  0.1242
 6181W        W22255  16.336  10.236  11.457 -0.1085  0.1142 -0.1018
 6182W        W22256  11.001   2.255  12.727 -0.1500  0.0513 -0.1010
 6183W        W22257  10.207  14.343  14.861  0.2058 -0.0723 -0.1812
 6184W        W22258   6.894   4.448  10.864  0.1507 -0.1578 -0.0365
 6185W        W22259   2.812   9.882   5.677 -0.2011  0.0038  0.0711
 6186W        W22260  14.269  15.664   4.631  0.0391 -0.3545 -0.2792
 6187W        W22261  12.472  14.523  13.402  0.1307 -0.0761  0.2086
 6188W        W22262   6.919  10.651  12.067  0.2594 -0.1596  0.1253
 6189W        W22263   2.394  15.899   2.212  0.1995  0.1639 -0.4970
 6190W        W22264  11.093  13.279   6.522  0.0580  0.3503 -0.0710
 6191W        W22265   6.077  10.919   3.478 -0.0432  0.1739 -0.0946
 6192W        W22266  15.407  17.477  13.506  0.1229  0.3245  0.0867
 6193W        W22267  17.195  15.567   1.326 -0.0169  0.2716  0.0838
 6194W        W22268   2.753   4.939  11.690 -0.2093  0.0530 -0.0081
 6195W        W22269   1.683  17.441   2.974  0.2607 -0.0326 -0.0337
 6196W        W22270  12.911  11.643  16.366  0.2589  0.0668  0.0202
 6197W        W22271  17.148   2.603  13.733 -0.0671  0.2897 -0.2114
 6198W        W22272   0.501  18.267  16.168 -0.2915  0.1353  0.1136
 6199W        W22273  14.538   5.183  15.034 -0.0975 -0.2855  0.2315
 6200W        W22274  16.034   4.452   0.433  0.1744 -0.2108  0.0072
 6201W        W22275  15.490   1.375  13.168  0.0220  0.4776 -0.0643
 6202W        W22276  10.900   9.649   3.189 -0.0893  0.0768 -0.1209
 6203W        W22277   7.764  11.080   2.089 -0.2594 -0.0643  0.0709
 6204W        W22278  15.600   0.395   5.244  0.0888 -0.1917  0.2014
 6205W        W22279  11.479  13.346  13.616 -0.0550  0.0580 -0.0890
 6206W        W22280   1.102   3.219  12.152  0.1069  0.0617 -0.1908
 6207W        W22281   9.096   0.244   0.772  0.1993  0.0050  0.2199
 6208W        W22282  10.596   0.945   5.504  0.4146  0.2881 -0.0582
 6209W        W22283  10.796   3.817  11.908  0.3447 -0.0983 -0.0526
 6210W        W22284  16.194  14.652  13.817 -0.0198  0.1668 -0.0183
 6211W        W22285   4.643  12.070   3.210  0.0614 -0.0931 -0.1603
 6212W        W22286   4.881   9.589   2.925  0.3976 -0.1501 -0.1334
 6213W        W22287  16.076   7.632   2.900 -0.0255  0.0279 -0.3463
 6214W        W22288  17.589  14.719  10.659 -0.0797  0.2299 -0.0607
 6215W        W22289  10.925   6.832   4.009  0.0857 -0.1446  0.0366
 6216W        W22290  16.089   9.764   2.829 -0.3493  0.2708 -0.2081
 6217W        W22291   2.997   6.450   4.647  0.1521 -0.3137 -0.0217
 6218W        W22292   6.630   2.856   4.053 -0.1405 -0.4241  0.1968
 6219W        W22293   5.616   1.180  15.715 -0.0701  0.4572  0.1787
 6220W        W22294   3.130   1.684   2.723 -0.0759 -0.1895 -0.0383
 6221W        W22295   1.483   3.974  16.032  0.0485 -0.1062 -0.0966
 6222W        W22296  17.546   5.796  11.188  0.1963  0.0416  0.0202
 6223W        W22297   1.947   9.952   5.614 -0.1242 -0.0077  0.0115
 6224W        W22298   5.371   8.222   2.406  0.1696  0.2131 -0.0453
 6225W        W22299   8.923  10.833  12.586 -0.2979 -0.0429 -0.1426
 6226W        W22300   7.391  10.659  13.917 -0.1347 -0.2937 -0.1594
 6227W        W22301  10.799  16.606  11.634 -0.2726 -0.1106  0.0037
 6228W        W22302   6.000  16.857  14.714 -0.2665 -0.2430 -0.0860
 6229W        W22303  12.338   9.393   2.805 -0.1458 -0.0104 -0.0416
 6230W        W22304  10.273   3.107   5.475  0.4017  0.0588  0.0766
 6231W        W22305  10.250  11.529  13.326 -0.0255 -0.1431 -0.1424
 6232W        W22306  17.336  13.905   0.546  0.2252 -0.2146 -0.1114
 6233W        W22307   8.703  16.635  11.343 -0.4479  0.0593 -0.2029
 6234W        W22308   6.661  12.916   2.820  0.3962  0.0495 -0.1649
 6235W        W22309  14.782   4.168   0.972  0.3230 -0.0813 -0.2264
 6236W        W22310   3.614   1.843   1.156 -0.0405 -0.0917 -0.1028
 6237W        W22311  14.895  13.828   0.005 -0.2016  0.0562 -0.1235
 6238W        W22312   7.525  11.734   5.289  0.1623 -0.1534 -0.0390
 6239W        W22313  15.091   0.567   4.459 -0.1253 -0.1486 -0.0619
 6240W        W22314   7.467   1.632   5.135 -0.4057  0.3093 -0.2979
 6241W        W22315   8.758   7.557  15.519  0.0083 -0.1783  0.2525
 6242W        W22316   2.987   1.109  14.022  0.0919 -0.0504 -0.0926
 6243W        W22317   9.538   5.705   4.659  0.3198  0.2068 -0.0686
 6244W        W22318   4.954   2.558  15.797 -0.2228  0.0264 -0.1352
 6245W        W22319  17.599   0.620   1.673 -0.0576  0.1505  0.1785
 6246W        W22320   0.130  10.465   0.549 -0.3002  0.0531  0.0070
 6247W        W22321   8.458  16.455   1.020 -0.1091 -0.1285 -0.0518
 6248W        W22322   5.262   6.707  12.745 -0.0090 -0.0501  0.2348
 6249W        W22323  17.297   3.797   6.203  0.3472  0.1797  0.5171
 6250W        W22324  12.802  17.501   1.558  0.5369  0.1602  0.0449
 6251W        W22325   6.358   0.860   2.330  0.0423 -0.1111  0.0686
 6252W        W22326   1.091  12.047  13.432  0.2132  0.1409  0.1273
 6253W        W22327  15.222  17.892   5.605 -0.3648  0.0341  0.0680
 6254W        W22328  12.878   1.031   3.300  0.1371  0.0937 -0.0971
 6255W        W22329   2.990   7.227   4.134 -0.0453 -0.0580 -0.3265
 6256W        W22330   1.273  16.083   3.309  0.2893  0.3815  0.1158
 6257W        W22331   7.300   5.074   5.354  0.0315 -0.0083  0.0337
 6258W        W22332  10.388  12.151  12.982 -0.1020  0.1271  0.1704
 6259W        W22333   4.204  11.295  16.125  0.2962  0.1676 -0.0341
 6260W        W22334   0.707  11.105  15.208  0.1348 -0.3489  0.0392
 6261W        W22335   4.628  14.408   1.953  0.2102  0.0269 -0.0235
 6262W        W22336  14.522   3.929   5.644 -0.0031  0.1610 -0.3405
 6263W        W22337  15.791  11.712  14.244  0.5739 -0.1273 -0.2170
 6264W        W22338   6.443   8.892  11.250  0.0471 -0.1523  0.3097
 6265W        W22339   0.631   8.727  13.521 -0.1663  0.2275 -0.0182
 6266W        W22340   1.982   7.080  15.498  0.1707 -0.2941 -0.0853
 6267W        W22341  16.057  18.077  14.608 -0.1260 -0.4053 -0.4367
 6268W        W22342  11.412  16.132  15.484  0.1745  0.0592 -0.1097
 6269W        W22343  13.128   8.317   4.636  0.0894  0.2113 -0.0765
 6270W        W22344   9.021  15.122   1.193  0.1545  0.2052 -0.1098
 6271W        W22345  17.204  15.197   2.691 -0.1462 -0.2987 -0.4190
 6272W        W22346  16.913  10.481   3.583  0.1049 -0.1476 -0.1588
 6273W        W22347   2.713   3.617   0.787 -0.1375  0.1934 -0.1537
 6274W        W22348  13.278   2.767  16.360 -0.0404  0.1728 -0.0554
 6275W        W22349  12.649   5.268   1.193  0.2458 -0.0558 -0.0484
 6276W        W22350  12.650   0.065  16.281  0.3347 -0.1517 -0.2351
 6277W        W22351   2.755  13.107  15.598 -0.0882  0.2054  0.2567
 6278W        W22352  12.297   6.881  15.471  0.3060 -0.0555 -0.2280
 6279W        W22353  10.158   0.700   5.379  0.1672  0.0243 -0.3093
 6280W        W22354   2.658   4.701   4.378  0.0238  0.1082  0.0455
 6281W        W22355  13.786  16.030   0.863  0.1106 -0.0035  0.0979
 6282W        W22356   8.898  17.226  15.765  0.1453  0.0727  0.1906
 6283W        W22357   0.253  14.503   0.964 -0.2467  0.0814 -0.5582
 6284W        W22358  17.508   4.384   5.868 -0.0859 -0.1684  0.2433
 6285W        W22359  11.866   6.659   5.250  0.2367  0.0050  0.1791
 6286W        W22360   8.270   2.574   4.855  0.1221  0.1030 -0.1220
 6287W        W22361  12.236  11.092   3.777 -0.0228  0.0300 -0.0116
 6288W        W22362   0.934  17.427   1.119 -0.1935 -0.1764  0.0118
 6289W        W22363   6.624   2.464  11.057 -0.3905 -0.0722 -0.3855
 6290W        W22364  13.135  16.793   4.837 -0.2464  0.2362 -0.1239
 6291W        W22365   8.669  16.959   3.078 -0.0839 -0.1409 -0.2460
 6292W        W22366  16.232  17.888  11.351  0.2199  0.1526 -0.3291
 6293W        W22367  11.852  11.599   3.001  0.0452  0.0481 -0.1287
 6294W        W22368   1.379   5.582   2.292  0.1316  0.0897 -0.2696
 6295W        W22369  12.013  15.949   3.435 -0.1455  0.2150  0.1969
 6296W        W22370  13.900   6.396   0.235 -0.3593  0.1217 -0.3684
 6297W        W22371  14.492  16.450  14.284  0.1551  0.0014 -0.1747
 6298W        W22372   8.563   6.069   3.376  0.1226  0.1206 -0.0155
 6299W        W22373  18.215  13.769  11.439  0.0650 -0.2508  0.3045
 6300W        W22374  14.347  16.781   3.839 -0.4073  0.1594  0.1897
 6301W        W22375   1.607  11.938   0.735  0.0645  0.2473  0.1437
 6302W        W22376   9.276  10.179   0.973 -0.1171  0.0393  0.1753
 6303W        W22377  16.297  13.065   4.702  0.0520 -0.2072  0.2436
 6304W        W22378  18.170   2.328  12.438 -0.0352  0.0527  0.1934
 6305W        W22379   7.462  12.744  11.974  0.2563 -0.2061  0.1321
 6306W        W22380   9.569   7.298   3.364 -0.0677  0.2433 -0.0806
 6307W        W22381  17.893  11.452  11.896  0.2175 -0.2371 -0.1178
 6308W        W22382  11.622   5.633   2.257  0.0995  0.1573  0.0687
 6309W        W22383  11.560  10.170   4.800 -0.1532  0.0403 -0.2930
 6310W        W22384   8.834  10.309  10.395 -0.1581 -0.4265  0.0572
 6311W        W22385  10.436   4.066  15.562  0.1819  0.1474  0.3020
 6312W        W22386  18.097   9.303  15.569 -0.1813  0.1382 -0.1064
 6313W        W22387   4.560   4.061   1.136  0.0982 -0.4701 -0.0651
 6314W        W22388   9.596   2.684   3.563 -0.3454 -0.1346 -0.2814
 6315W        W22389  17.699   5.538  15.338  0.1890 -0.3385 -0.0269
 6316W        W22390  13.020   1.220   2.052  0.3857 -0.0721 -0.2776
 6317W        W22391  14.174  12.898  13.485  0.0214 -0.1026 -0.3048
 6318W        W22392   3.761   6.065   4.367 -0.3010 -0.1392  0.0364
 6319W        W22393  10.496   4.242   0.655  0.0787  0.0256  0.1127
 6320W        W22394   7.302   2.815   1.619  0.1804 -0.1459 -0.0888
 6321W        W22395  12.977  15.610  14.109 -0.1882 -0.1074  0.0167
 6322W        W22396  17.474  14.497  12.503  0.0671  0.1670  0.3077
 6323W        W22397   4.075   9.420   3.729 -0.3202 -0.0551  0.0454
 6324W        W22398  10.154   4.283  14.064 -0.1737  0.1394  0.1569
 6325W        W22399  13.351   8.292  11.673  0.1759  0.1240 -0.0974
 6326W        W22400  11.202  11.095   5.029 -0.2534  0.0434 -0.2438
 6327W        W22401   9.958   8.781   0.677 -0.1934 -0.0408 -0.2067
 6328W        W22402   9.281  10.903   3.176  0.1235 -0.0238 -0.3684
 6329W        W22403  12.145  15.166  12.203 -0.1931  0.0409  0.1514
 6330W        W22404   7.293   3.368   2.980 -0.5154 -0.2532 -0.0170
 6331W        W22405  11.156  16.373  12.382  0.2675 -0.1073 -0.3658
 6332W        W22406   4.882  16.370  12.942 -0.0231 -0.1747 -0.0351
 6333W        W22407   4.628   4.601   3.688  0.1673  0.2345 -0.0486
 6334W        W22408   8.957   0.812  13.595  0.1670  0.0844  0.2074
 6335W        W22409   5.087  11.179   3.700 -0.2727 -0.0930  0.1830
 6336W        W22410   9.015   0.873   4.642 -0.0120 -0.1052  0.0432
 6337W        W22411   9.020   3.440   1.875  0.0060 -0.1304 -0.2398
 6338W        W22412   9.100  15.488   1.597  0.1118  0.2920  0.0236
 6339W        W22413  15.961  11.425  13.212 -0.0433 -0.1134  0.0060
 6340W        W22414   8.264  10.807  14.540 -0.3357 -0.0139 -0.1366
 6341W        W22415   0.699   2.327  12.507 -0.2366 -0.2366 -0.0348
 6342W        W22416   5.771   2.519   0.896 -0.1270 -0.3166  0.0589
 6343W        W22417   5.898  13.872   3.294 -0.0234 -0.1709  0.0291
 6344W        W22418   2.828  16.851   5.607  0.1310  0.0609 -0.0957
 6345W        W22419  15.236  17.615  12.031  0.0781  0.2303 -0.1853
 6346W        W22420  15.804   5.513   3.636  0.1769 -0.0009  0.0399
 6347W        W22421  12.943   4.429   0.599  0.1121 -0.1383  0.3610
 6348W        W22422   8.897   6.961   2.473  0.0806  0.0406 -0.3084
 6349W        W22423   0.013   0.892   2.448 -0.1647  0.2945 -0.0837
 6350W        W22424  13.869   9.203   3.723 -0.2337  0.1455 -0.2225
 6351W        W22425  17.543   8.184   5.417 -0.2782 -0.1234 -0.4193
 6352W        W22426   0.049   0.907  16.153  0.0874 -0.1876 -0.0349
 6353W        W22427   5.597   9.371  12.981 -0.2387 -0.0170  0.4705
 6354W        W22428   2.563   2.466  15.688 -0.0240  0.1822  0.2787
 6355W        W22429   8.643  17.520   5.144  0.1187 -0.2618  0.1936
 6356W        W22430   3.624   3.423   1.167  0.3068  0.5117  0.0206
 6357W        W22431   6.551  18.105  15.454 -0.0380 -0.1310 -0.0961
 6358W        W22432  15.903  14.264   3.394 -0.2275  0.3329  0.0330
 6359W        W22433   8.861  11.157   3.220  0.0436 -0.0427 -0.6248
 6360W        W22434   6.329   5.266  13.312  0.0638  0.1656  0.0967
 6361W        W22435   0.339   5.188  13.527  0.2356 -0.1448  0.0203
 6362W        W22436   5.686   3.402   4.048  0.1146 -0.0953 -0.3778
 6363W        W22437  16.534   6.452   0.699  0.1114  0.0433  0.3439
 6364W        W22438  11.055   4.208  10.954 -0.2490  0.0866 -0.3973
 6365W        W22439   5.868   0.888   4.833 -0.0458  0.1959  0.1776
 6366W        W22440   5.585  15.272  12.383  0.3402 -0.0038 -0.2439
 6367W        W22441  17.482  15.732  15.742 -0.0127 -0.2060  0.3254
 6368W        W22442   5.794   6.766  11.537 -0.3554  0.0845 -0.3154
 6369W        W22443   4.302   6.424   5.058  0.0291 -0.2601 -0.0383
 6370W        W22444   7.880  14.121   4.673 -0.0511  0.0290 -0.0604
 6371W        W22445   7.780   9.711  15.775 -0.0263 -0.1826  0.1652
 6372W        W22446  17.049  10.184  13.848  0.1534 -0.0365 -0.4109
 6373W        W22447   2.980  11.244  11.507 -0.2503  0.2954  0.0627
 6374W        W22448  16.487   8.160   1.278  0.0495 -0.0386  0.0175
 6375W        W22449   5.414   0.536  14.376  0.1086  0.2763 -0.2116
 6376W        W22450   7.316  14.663   0.073 -0.0191  0.1440 -0.1673
 6377W        W22451   5.700   2.892   5.626 -0.4763  0.1723  0.0360
 6378W        W22452   0.602  11.898  14.810  0.2949 -0.1662  0.2111
 6379W        W22453  14.086  18.154  13.081 -0.3934  0.0730  0.1092
 6380W        W22454   3.313   4.665   5.524 -0.0139 -0.0755 -0.0315
 6381W        W22455   9.836   7.931  14.626 -0.0906  0.0475 -0.1807
 6382W        W22456   8.307   7.920   3.529  0.2975  0.1974 -0.0418
 6383W        W22457  17.794  11.886   3.119  0.0938  0.1621  0.0200
 6384W        W22458   5.981  11.438  13.521  0.0459 -0.3067 -0.2661
 6385W        W22459   8.203  12.558   5.282  0.0654  0.1558  0.1444
 6386W        W22460  16.198  11.468   1.825  0.2119 -0.2417  0.3414
 6387W        W22461   0.738   8.373  16.357 -0.0043 -0.0153 -0.3264
 6388W        W22462   2.386   4.092  16.303 -0.0409  0.0833  0.0752
 6389W        W22463   9.301  11.558   4.462 -0.0297  0.1375  0.0176
 6390W        W22464   4.700   8.932  13.412  0.2458  0.4157 -0.0924
 6391W        W22465   5.288   5.186   4.217  0.0764 -0.5250  0.2654
 6392W        W22466   0.519   5.913   6.249  0.2696 -0.0762  0.0488
 6393W        W22467   9.976  17.115  14.966 -0.0581 -0.3761 -0.0645
 6394W        W22468   6.434   1.923  15.099 -0.0139  0.2195  0.0836
 6395W        W22469  17.785   1.620  14.909 -0.0755  0.2925 -0.1679
 6396W        W22470  17.770   1.402   6.310 -0.2075 -0.0357 -0.0592
 6397W        W22471   7.350  12.728   5.769  0.0154 -0.2485 -0.0557
 6398W        W22472   3.066  13.487   5.691 -0.0309 -0.1414 -0.1205
 6399W        W22473   8.231  17.027  14.647  0.3912  0.2918  0.0189
 6400W        W22474  16.729  16.280   3.295 -0.1816 -0.5328  0.0503
 6401W        W22475   8.814   7.323  11.484 -0.0907 -0.3847  0.0759
 6402W        W22476  11.121   0.675   4.563 -0.0474  0.0295  0.1468
 6403W        W22477   8.279  11.591   2.626  0.0314 -0.1103 -0.0283
 6404W        W22478   3.938  11.600  14.736  0.1730  0.0847 -0.0165
 6405W        W22479   9.876  16.258  14.547 -0.2561 -0.0206 -0.2504
 6406W        W22480  15.861   1.589  13.664  0.0939  0.0565  0.0721
 6407W        W22481  16.226   6.327   2.501  0.1383 -0.5344 -0.4002
 6408W        W22482   3.893   0.533   4.584  0.0849  0.1044 -0.0411
 6409W        W22483   2.999  15.623   2.933 -0.1714  0.0266 -0.0290
 6410W        W22484  15.540  15.542  14.182  0.1608 -0.1347 -0.1791
 6411W        W22485   8.467  12.521   5.762 -0.2931 -0.0426 -0.0275
 6412W        W22486  14.010  17.833  14.451  0.4004  0.1162  0.0814
 6413W        W22487  15.924   3.192   3.350  0.5353  0.0877  0.1142
 6414W        W22488   6.500  14.304   4.522 -0.0246 -0.0772  0.2316
 6415W        W22489   0.059  17.789  11.844  0.0914 -0.0438  0.1119
 6416W        W22490   6.411  13.863  15.920 -0.1359 -0.2276  0.0921
 6417W        W22491   6.170   4.693   4.615  0.1225  0.0616  0.2467
 6418W        W22492  16.079   5.676  12.836  0.1931  0.1475  0.3946
 6419W        W22493  10.415  17.744   3.357  0.0381 -0.0968 -0.0732
 6420W        W22494   2.034   4.296  11.779 -0.0711  0.1570  0.0958
 6421W        W22495  12.324  13.591   5.919  0.3579 -0.2332  0.2259
 6422W        W22496   8.505  15.163   1.103 -0.1993 -0.0680  0.0676
 6423W        W22497  17.406  17.410  13.063  0.2854 -0.0937 -0.1076
 6424W        W22498   3.018  18.226  11.639  0.0627 -0.0719  0.0563
 6425W        W22499   9.271   1.741   5.302  0.2312  0.0789 -0.3162
 6426W        W22500   0.822   1.439   2.565 -0.3220 -0.2969 -0.1431
 6427W        W22501  11.111  15.347  15.013  0.3196 -0.1792 -0.0896
 6428W        W22502   3.425   1.462  13.890 -0.0185 -0.0093 -0.2145
 6429W        W22503   8.676   0.685  12.740  0.1852  0.2072  0.1569
 6430W        W22504  16.207   7.101   4.539 -0.0921  0.0486 -0.0401
 6431W        W22505   2.002   3.229   3.378 -0.0036  0.0365  0.0551
 6432W        W22506   1.098   6.307   0.581 -0.2710  0.0074  0.4069
 6433W        W22507   3.137  12.759   4.302  0.0210 -0.1015 -0.1356
 6434W        W22508   6.746   6.367   1.961  0.0890 -0.0038  0.1311
 6435W        W22509   8.588  14.477   2.301 -0.0262 -0.1451  0.1792
 6436W        W22510   0.653   5.087   2.818  0.3120 -0.0322 -0.3687
 6437W        W22511   7.397  17.306   4.461 -0.0946  0.2871 -0.1466
 6438W        W22512   6.992   1.725   6.340  0.1411  0.2771  0.2248
 6439W        W22513  17.183  15.853  12.107  0.0897 -0.1280 -0.1014
 6440W        W22514  13.024   8.856   2.427  0.2498 -0.1343 -0.1306
 6441W        W22515  10.384   2.365  14.611 -0.2539 -0.0285 -0.0240
 6442W        W22516  17.610   4.159   0.651 -0.0390 -0.1874 -0.0910
 6443W        W22517  14.113   0.287   3.511 -0.1395 -0.0795  0.0599
 6444W        W22518   7.349   4.427  12.637  0.1801  0.1628 -0.2810
 6445W        W22519   1.344   5.259  11.530  0.0518 -0.3030  0.3606
 6446W        W22520   7.288  10.277  14.540 -0.0669 -0.2181 -0.2049
 6447W        W22521   2.704  18.269  13.925 -0.1503 -0.1162 -0.0520
 6448W        W22522   5.140   1.339  11.260  0.1294  0.0469 -0.4674
 6449W        W22523  15.651   3.235  14.107 -0.0297  0.2640 -0.2540
 6450W        W22524   5.983   7.064   4.685 -0.0267 -0.0503 -0.0407
 6451W        W22525   5.617   0.998   1.977  0.2605  0.0416  0.0506
 6452W        W22526   2.168   7.430  13.482  0.0698 -0.0868  0.0718
 6453W        W22527   2.360   3.688   2.578 -0.0537 -0.0775  0.1952
 6454W        W22528   1.942   0.992   6.003 -0.2189  0.0818 -0.2176
 6455W        W22529   4.239  14.103  16.178  0.0198  0.0786 -0.0774
 6456W        W22530   2.684  11.521  13.036  0.1112 -0.1407 -0.0371
 6457W        W22531  17.983  13.611   0.149 -0.0237  0.3191 -0.0205
 6458W        W22532   2.191  12.630  13.489  0.3067  0.0203 -0.0776
 6459W        W22533   6.302   8.153  15.418  0.1365  0.1772  0.0026
 6460W        W22534   2.335   7.661   4.483  0.1425 -0.0655  0.1555
 6461W        W22535  18.288   3.521   4.523  0.0846 -0.0169  0.3434
 6462W        W22536  14.579   3.279  13.035 -0.1836 -0.1344  0.3179
 6463W        W22537   0.037   5.164   1.938 -0.2809  0.1559 -0.0106
 6464W        W22538   3.328   7.693   3.590  0.0961  0.1370  0.1637
 6465W        W22539  10.326  10.461  11.856 -0.0504 -0.2423 -0.0546
 6466W        W22540  16.664  13.199  11.876 -0.0975 -0.1380 -0.0565
 6467W        W22541  14.173  15.140   3.741 -0.0993  0.2053 -0.2590
 6468W        W22542   3.187   9.176   4.716  0.2063 -0.2261  0.1303
 6469W        W22543  16.827  10.889  12.991 -0.0177 -0.0921 -0.1738
 6470W        W22544  13.928  12.001  12.662  0.2403 -0.2221  0.2321
 6471W        W22545  12.838  10.972  14.511 -0.1118 -0.1152 -0.4814
 6472W        W22546  16.226  14.329  13.084 -0.0657 -0.1982  0.1262
 6473W        W22547  13.824   8.522  13.268  0.0465  0.2135 -0.0310
 6474W        W22548  10.459  16.503   3.983  0.2557 -0.1559 -0.1550
 6475W        W22549   5.136   0.388  13.823 -0.3121 -0.1837  0.1146
 6476W        W22550  10.102  12.127   5.791  0.2575  0.0603 -0.2007
 6477W        W22551  17.681  16.526   3.096  0.1915  0.0122 -0.2287
 6478W        W22552  11.523   7.915  14.654 -0.1681 -0.1205  0.0997
 6479W        W22553   2.354   1.190  11.014 -0.1219 -0.1207 -0.0237
 6480W        W22554  14.278   9.273  15.885 -0.1313  0.1257 -0.1517
 6481W        W22555   6.416   1.264   4.086 -0.4729 -0.0204  0.0572
 6482W        W22556  16.862   1.354   1.140 -0.0667  0.1620  0.1620
 6483W        W22557  13.558   7.357  13.093 -0.2077  0.0179  0.1394
 6484W        W22558   8.055  15.338   3.656 -0.0051 -0.0008  0.0750
 6485W        W22559   7.152   5.332   0.310 -0.2563  0.3281 -0.3519
 6486W        W22560  15.708  16.886   4.177 -0.2065 -0.0084 -0.0593
 6487W        W22561  10.480   9.268   4.026 -0.2760 -0.0239  0.1865
 6488W        W22562  14.111   4.383  12.839 -0.2302 -0.2151  0.0877
 6489W        W22563  18.246   4.404   3.680  0.0474  0.2051 -0.0879
 6490W        W22564  10.031   3.249   3.287 -0.1176  0.1289 -0.1161
 6491W        W22565   2.678   6.712  15.284 -0.0437  0.1542 -0.1135
 6492W        W22566   4.592  14.830  15.592 -0.2320 -0.1162  0.1492
 6493W        W22567  16.262  10.255   2.716  0.2732  0.3310  0.2710
 6494W        W22568   0.706  18.200  15.708 -0.3053  0.0296  0.2032
 6495W        W22569   9.105  10.452   5.915 -0.3114  0.5355 -0.5200
 6496W        W22570   9.155  14.410   2.473 -0.0257 -0.1823 -0.1771
 6497W        W22571   3.753   4.507   2.261 -0.1335  0.1194  0.0496
 6498W        W22572  15.462  17.227   5.538  0.0912 -0.1977  0.0274
 6499W        W22573  14.140   4.264  12.051  0.0408  0.1765  0.0561
 6500W        W22574  14.215   4.830   5.458 -0.2469  0.0065  0.1006
 6501W        W22575   7.993   6.869   2.539  0.3248  0.1703  0.0163
 6502W        W22576   3.293  10.078   4.151 -0.0530  0.0295  0.0488
 6503W        W22577  13.595  13.351  11.114 -0.0112  0.2786  0.1024
 6504W        W22578  11.770   2.809   0.477 -0.0414  0.0056  0.4497
 6505W        W22579  13.114   8.015  11.195 -0.0643 -0.4261 -0.2360
 6506W        W22580  10.020   4.661   5.374 -0.1426  0.1072  0.1692
 6507W        W22581   5.823   6.920  13.430 -0.1463  0.2768  0.1842
 6508W        W22582   5.861   0.433  12.889  0.1554 -0.2080  0.0360
 6509W        W22583  17.638  12.013   5.932  0.1368 -0.0553 -0.1680
 6510W        W22584  10.200   9.739   0.421 -0.1067  0.0041 -0.3400
 6511W        W22585  17.257   6.593  10.737 -0.2517 -0.1455 -0.1124
 6512W        W22586  13.412   4.870  11.054  0.3181  0.0449  0.0834
 6513W        W22587  12.962   3.107   1.534  0.0741  0.0900 -0.1241
 6514W        W22588  14.211   0.378  11.628 -0.3035 -0.2807 -0.0640
 6515W        W22589   5.513   0.691  15.686 -0.0230  0.0702  0.1034
 6516W        W22590   7.920   7.479   5.179  0.0147 -0.1945  0.0040
 6517W        W22591   3.979   0.302  14.887 -0.0901 -0.1874  0.1186
 6518W        W22592  16.218   5.022  12.011  0.1421 -0.3874  0.0678
 6519W        W22593   8.255  16.067   3.242 -0.0381 -0.0679 -0.4776
 6520W        W22594   1.624   4.593   4.237  0.0451  0.0749  0.1087
 6521W        W22595  12.814   0.305   2.974 -0.1703  0.0244  0.0878
 6522W        W22596  14.817  15.536   3.830  0.3262  0.1582  0.3233
 6523W        W22597   2.863   4.037   0.049  0.3792 -0.1543 -0.0997
 6524W        W22598   0.914   0.675  14.689 -0.1542 -0.1345 -0.1865
 6525W        W22599   8.208  10.148  13.062 -0.0486  0.2628  0.1461
 6526W        W22600  13.150  14.065  11.745 -0.0578 -0.2042  0.2684
 6527W        W22601   3.275  11.373   0.391  0.0420 -0.1725  0.0658
 6528W        W22602   8.249   8.158   1.717 -0.1482 -0.2059  0.1846
 6529W        W22603  11.771  17.283  12.272 -0.1218 -0.2319  0.2897
 6530W        W22604   1.194  16.085   5.064 -0.1549 -0.0134 -0.2839
 6531W        W22605  16.497   3.796   5.818 -0.3443  0.0402  0.0993
 6532W        W22606   5.941   6.251   0.245 -0.1692  0.0412 -0.1791
 6533W        W22607  14.458   8.048  14.049 -0.1941 -0.2856 -0.0690
 6534W        W22608   3.599   8.625  14.970 -0.3367  0.1192  0.2405
 6535W        W22609   6.037   0.499   2.761  0.2196  0.0562  0.1546
 6536W        W22610  14.016   4.991   0.670 -0.1901 -0.0103 -0.1037
 6537W        W22611   6.976  15.403  11.266 -0.0822 -0.1706 -0.3346
 6538W        W22612   0.718   5.554   0.651 -0.2804  0.3092 -0.0933
 6539W        W22613   7.491   6.462  13.059 -0.3269 -0.0486 -0.0012
 6540W        W22614  13.562  16.742   4.500  0.0047 -0.0282  0.0401
 6541W        W22615   4.307  15.321  15.758 -0.0447 -0.0407 -0.0937
 6542W        W22616  16.265  14.154   0.159 -0.0279 -0.1346 -0.4369
 6543W        W22617  17.715   1.474   0.673 -0.1937  0.0275 -0.1537
 6544W        W22618  16.379   2.850  15.651  0.2302  0.3853  0.1073
 6545W        W22619   0.298   6.820  14.702  0.0370 -0.0772 -0.1845
 6546W        W22620  14.861   0.743  13.116 -0.0033 -0.1145  0.1625
 6547W        W22621   9.141  11.750  14.173  0.0906 -0.2044 -0.3945
 6548W        W22622   1.455  16.998  13.497  0.1797  0.2841 -0.1751
 6549W        W22623  10.838  18.201  13.540 -0.2668  0.1098 -0.2204
 6550W        W22624  12.417   1.920  15.209 -0.0866  0.2174 -0.1320
 6551W        W22625   3.716   9.051   2.208 -0.0893  0.2729 -0.3406
 6552W        W22626   4.257  12.834   0.719 -0.1782 -0.2615  0.2834
 6553W        W22627  16.947   4.878  14.564 -0.0560  0.1527  0.1544
 6554W        W22628  12.501   5.502   4.444 -0.0160  0.1109  0.2435
 6555W        W22629  11.729   4.312  12.454  0.0564  0.0722 -0.1054
 6556W        W22630  15.028  17.688  13.309 -0.0904  0.1959  0.0437
 6557W        W22631  18.153   7.963  12.371  0.0618 -0.0816 -0.0056
 6558W        W22632   1.162  16.302   1.228 -0.1103 -0.0908  0.1196
 6559W        W22633   1.084   1.839  11.424  0.2832 -0.1002 -0.0029
 6560W        W22634   1.914   9.177  14.236 -0.3137  0.1859 -0.2394
 6561W        W22635   2.031   6.162   5.285  0.1615  0.0250  0.0743
 6562W        W22636  16.647   4.118  15.793 -0.2539  0.3198  0.3790
 6563W        W22637   2.996   6.473   5.157 -0.1161 -0.2147 -0.1137
 6564W        W22638   3.976  16.548  15.794  0.1057 -0.0411  0.0066
 6565W        W22639   0.585   2.348  13.660 -0.1889 -0.2484  0.3413
 6566W        W22640  10.355  14.460  11.242  0.0761 -0.0125  0.2901
 6567W        W22641  14.641  14.869   2.826  0.4064  0.3486 -0.2739
 6568W        W22642  10.198   0.164   4.844 -0.0428  0.2832  0.3189
 6569W        W22643   3.176   1.977  12.349  0.0989  0.0101 -0.0892
 6570W        W22644  11.023  11.224  11.707  0.0545 -0.4039  0.1471
 6571W        W22645   3.758   9.702  11.189  0.0651  0.3878  0.0823
 6572W        W22646   7.204   7.571   3.328  0.1135  0.3409 -0.2036
 6573W        W22647  15.491   1.521   4.906  0.1359 -0.0901  0.2297
 6574W        W22648   8.787  16.078   1.046 -0.5376 -0.1735  0.0780
 6575W        W22649   4.468   7.030  13.770 -0.0952  0.3420  0.0241
 6576W        W22650   3.724  12.052   5.334 -0.1207  0.1117  0.1677
 6577W        W22651   4.037   7.250  12.982 -0.2388  0.2689 -0.0024
 6578W        W22652  11.695  11.052  11.702 -0.0054  0.2758 -0.1467
 6579W        W22653  11.396   5.406   3.784  0.6738 -0.0802 -0.0387
 6580W        W22654   4.126   0.921   3.369 -0.0854  0.3149  0.0637
 6581W        W22655   0.274  16.135  14.005  0.1358 -0.0196  0.0029
 6582W        W22656   0.331  17.585   3.604 -0.1101  0.1899 -0.1320
 6583W        W22657  13.373  16.739   1.749  0.1146  0.0507 -0.1925
 6584W        W22658   6.866   6.121  12.398 -0.2242  0.0779 -0.1203
 6585W        W22659   9.407   6.172   4.758  0.1742 -0.0938 -0.1363
 6586W        W22660   2.257  13.405  15.749  0.0185  0.3085  0.1508
 6587W        W22661  15.723  11.092  12.760  0.2260 -0.0846  0.0916
 6588W        W22662   1.562   6.201  14.842 -0.1024  0.1224 -0.3044
 6589W        W22663   1.790  14.328   1.359 -0.1123 -0.0897 -0.0855
 6590W        W22664   9.634   2.592   0.494 -0.0765 -0.1405 -0.0268
 6591W        W22665   1.759   0.606  14.554 -0.1155 -0.0410 -0.3340
 6592W        W22666   6.255  14.132   4.102 -0.2504  0.3128  0.4301
 6593W        W22667   2.216  12.354   2.652  0.1903 -0.0155 -0.1976
 6594W        W22668   1.113  10.757  10.219  0.1731 -0.0475  0.1327
 6595W        W22669  13.619  11.158   0.119  0.0072  0.0185  0.0134
 6596W        W22670   7.018   1.820   0.402  0.0362 -0.1274  0.0284
 6597W        W22671  13.285   1.808  13.410 -0.1945 -0.0645  0.0351
 6598W        W22672   5.447   4.657  13.747 -0.0412 -0.4566  0.2402
 6599W        W22673  15.770   4.152  15.849 -0.1125 -0.2986  0.0686
 6600W        W22674   4.212   6.532  13.563 -0.1421  0.1348 -0.2315
 6601W        W22675  14.409  13.461  13.483 -0.1630 -0.0823  0.2124
 6602W        W22676  11.277  14.729   1.515 -0.0976  0.0495 -0.1845
 6603W        W22677  14.910   9.808   1.317 -0.0924 -0.1189 -0.2719
 6604W        W22678  11.730   6.303  15.763  0.0734  0.0133 -0.1369
 6605W        W22679   1.652   9.780  11.251 -0.0888  0.0902 -0.0332
 6606W        W22680   8.435   5.576  13.022 -0.2548 -0.2541  0.0917
 6607W        W22681   1.673   5.661  11.296  0.1893 -0.3004 -0.3670
 6608W        W22682   7.868  10.429   4.931 -0.0989 -0.1278 -0.1488
 6609W        W22683   5.826   5.204   0.189  0.1986  0.0001 -0.2609
 6610W        W22684   7.235  11.802  14.988  0.0695 -0.1249 -0.0616
 6611W        W22685  16.903  15.993   5.499  0.2878  0.2095 -0.0613
 6612W        W22686  14.747  11.524   1.373  0.1612 -0.3632 -0.1351
 6613W        W22687  16.007   8.668  15.519  0.1043 -0.2066  0.0591
 6614W        W22688  16.171  14.546   2.526  0.2602  0.0268 -0.2506
 6615W        W22689   4.256   7.739   0.949  0.1916  0.0059 -0.2778
 6616W        W22690  15.204   4.558  11.494  0.1871  0.0051  0.0337
 6617W        W22691  14.490  14.314  13.185  0.0040  0.1217  0.1651
 6618W        W22692   6.858  13.294   0.229  0.1732 -0.3464  0.0662
 6619W        W22693   5.017  11.699   5.768  0.3607 -0.0558 -0.0430
 6620W        W22694   9.702  14.846   4.763  0.0116 -0.1012 -0.2282
 6621W        W22695   9.237   2.456  14.936 -0.1348  0.0390  0.3202
 6622W        W22696   0.711  12.063   2.476 -0.0730  0.1498 -0.0277
 6623W        W22697   1.324  18.038   1.497  0.1834 -0.1298  0.2944
 6624W        W22698  16.902   5.559  16.137 -0.0622 -0.4090  0.0547
 6625W        W22699  15.407  13.903  14.743 -0.1358  0.2585  0.2386
 6626W        W22700  16.179   3.814  13.637  0.2003  0.1778  0.0266
 6627W        W22701  13.332  15.876   1.181 -0.1930  0.1166  0.0607
 6628W        W22702   3.380  14.091   0.533  0.2532  0.0701  0.3166
 6629W        W22703   9.586   4.978  12.189 -0.1401 -0.0028 -0.1751
 6630W        W22704   3.869   6.107   5.134  0.3360 -0.1595 -0.0793
 6631W        W22705   7.041   3.021   3.635  0.0065  0.0034 -0.1656
 6632W        W22706   7.983  14.936  14.446  0.0049 -0.0630  0.2030
 6633W        W22707   8.876  12.052   0.814  0.1626  0.2316  0.2839
 6634W        W22708  15.931   2.660  15.513  0.2228  0.1237 -0.2713
 6635W        W22709  16.450   2.989  11.835  0.2459  0.0408 -0.0327
 6636W        W22710  17.290  11.530  14.746  0.4579  0.0319 -0.1966
 6637W        W22711   3.675   5.026   4.211  0.0306  0.1269 -0.1848
 6638W        W22712  18.067   8.396  13.494  0.2310  0.1663  0.0710
 6639W        W22713  15.897  15.103  12.059  0.2089 -0.0941  0.2387
 6640W        W22714   4.250   3.505  13.566 -0.1779 -0.0809  0.1209
 6641W        W22715   1.308  13.377  12.936  0.0268  0.0267 -0.2415
 6642W        W22716   7.627   7.003  14.979  0.1145  0.0866  0.2388
 6643W        W22717  15.435  17.479  11.161 -0.0823 -0.0784  0.2142
 6644W        W22718   5.382  14.175  14.498  0.1179  0.2419  0.1837
 6645W        W22719  17.214  12.227   1.505 -0.3473 -0.1031  0.0866
 6646W        W22720  17.314  10.160   3.626  0.4202 -0.2796 -0.0385
 6647W        W22721   1.957  13.988  11.641 -0.4297  0.1174 -0.1499
 6648W        W22722  15.332  16.915   2.094 -0.2471 -0.0332  0.1686
 6649W        W22723  15.827   0.153  14.144 -0.0720  0.2437  0.0768
 6650W        W22724   8.124   4.619  10.827  0.1221 -0.0649  0.0617
 6651W        W22725  17.513   1.383  12.891 -0.0087  0.0242  0.1037
 6652W        W22726  13.087   4.329   2.100  0.4034 -0.1038 -0.3149
 6653W        W22727  16.513  14.870   4.910 -0.0874 -0.1302 -0.0139
 6654W        W22728   4.553  16.778  12.076  0.3308  0.0137  0.1948
 6655W        W22729   0.530  12.991   5.037 -0.2619  0.0836 -0.0287
 6656W        W22730   8.919   1.268   0.563  0.0128 -0.3324 -0.3145
 6657W        W22731   3.533   1.125  13.574  0.0391  0.0149  0.0003
 6658W        W22732  16.543   9.247   0.325  0.1601 -0.1505 -0.1175
 6659W        W22733   7.908   6.237   1.173 -0.0054 -0.0613  0.0055
 6660W        W22734  12.572   9.283  14.333 -0.0735 -0.2110 -0.1839
 6661W        W22735  18.046   1.041  13.949 -0.0268  0.1665  0.1491
 6662W        W22736  12.523  14.007   3.795 -0.0054 -0.2217  0.1146
 6663W        W22737   2.381   3.610   6.597 -0.4154  0.2321 -0.2099
 6664W        W22738  16.297  13.810   5.256 -0.4876  0.0632  0.0748
 6665W        W22739   8.322  17.157  12.826  0.0178 -0.3525  0.2219
 6666W        W22740   1.066  11.230  16.048  0.0744  0.2089 -0.0456
 6667W        W22741   8.060   4.630   5.823 -0.2189  0.3311  0.1473
 6668W        W22742  12.645  16.253  11.388  0.1388 -0.2976 -0.0007
 6669W        W22743  11.380   5.107  15.536  0.3082 -0.2092 -0.2386
 6670W        W22744  12.447  16.104  12.069 -0.0171 -0.1242 -0.1502
 6671W        W22745   5.536   2.314  13.504 -0.2947 -0.1550  0.2146
 6672W        W22746  11.006  14.131  12.332 -0.1638 -0.1427  0.1342
 6673W        W22747   7.342  12.570   3.925  0.1457  0.0630 -0.0111
 6674W        W22748  15.663  10.327  14.449  0.1162  0.1314  0.2043
 6675W        W22749  11.119   1.615   4.524  0.3112 -0.1467 -0.0681
 6676W        W22750  11.843  15.669   2.403  0.0467 -0.1059 -0.1711
 6677W        W22751  13.302   7.636  11.504  0.1445 -0.0429  0.2700
 6678W        W22752   6.524  10.467  12.930 -0.1487  0.0418 -0.3702
 6679W        W22753   0.951   5.287   1.951  0.0483  0.1926 -0.1736
 6680W        W22754   8.404   5.042   4.358 -0.1741 -0.0371  0.0118
 6681W        W22755  15.248  17.744  11.557  0.0998  0.1181 -0.1080
 6682W        W22756  10.102  13.227   1.758  0.0306 -0.4466  0.1273
 6683W        W22757  12.638   3.566   1.113 -0.0599  0.0018  0.0659
 6684W        W22758  15.421   3.400  16.173  0.2256  0.3893  0.0643
 6685W        W22759  14.218  15.962   1.069  0.1964 -0.0129 -0.0948
 6686W        W22760  10.381   2.210  13.222  0.0658  0.1317 -0.0127
 6687W        W22761   3.076   3.871   0.473 -0.0557 -0.1086 -0.2574
 6688W        W22762  10.288  17.075   5.835  0.0523 -0.2956 -0.1793
 6689W        W22763   0.166   2.053   1.260  0.1608 -0.0183  0.2648
 6690W        W22764   6.368  17.446   4.790  0.2619 -0.0781  0.0978
 6691W        W22765   7.703  11.636  12.844  0.0000  0.0841 -0.2054
 6692W        W22766  13.736  17.112  11.502  0.0300 -0.1386 -0.0303
 6693W        W22767   8.419   9.334  13.417 -0.2872  0.2431 -0.0381
 6694W        W22768  12.572   6.859   4.011 -0.2355 -0.4017  0.1386
 6695W        W22769  17.265  10.087  13.427 -0.0366 -0.1304  0.1693
 6696W        W22770  17.782   9.287   1.431  0.1533 -0.1656  0.1524
 6697W        W22771   5.308   7.491   0.933 -0.1534  0.1978  0.2763
 6698W        W22772  14.400   0.245  13.089 -0.0160 -0.1059 -0.3168
 6699W        W22773   7.623  11.754   0.602 -0.0484 -0.1754  0.3649
 6700W        W22774  17.358   1.763   5.553 -0.1127  0.2153  0.0614
 6701W        W22775   5.530  15.792  14.785  0.0221  0.1250  0.1055
 6702W        W22776  13.913  16.900   1.136  0.1344 -0.1968  0.1795
 6703W        W22777   2.066  14.887  15.379 -0.0490 -0.3855 -0.2599
 6704W        W22778   0.780  11.432   5.837 -0.1438  0.1778 -0.2707
 6705W        W22779  13.339  15.482   4.929 -0.0173  0.2165 -0.0316
 6706W        W22780  10.153  15.680   1.304  0.1963  0.2689  0.0540
 6707W        W22781  15.444  10.437  13.996 -0.0388  0.0656  0.0822
 6708W        W22782   5.143   1.205   4.312 -0.1622  0.0926 -0.0386
 6709W        W22783  13.346   5.701   1.035 -0.3835  0.0187  0.1577
 6710W        W22784   8.903   9.263   0.145  0.1398 -0.3150 -0.3346
 6711W        W22785  14.950   3.160  11.927 -0.1334  0.2160  0.0012
 6712W        W22786  10.192  17.412   0.709  0.0751  0.2594  0.2521
 6713W        W22787  10.294  11.624   5.809 -0.2728  0.0956 -0.1814
 6714W        W22788   7.012  16.600  12.234  0.2406  0.2494  0.0818
 6715W        W22789  13.394   6.992  12.768  0.2183  0.0966  0.1701
 6716W        W22790   2.447  17.223  14.920 -0.0407  0.3478 -0.2939
 6717W        W22791   4.728   5.366  11.768 -0.1333  0.2492 -0.2043
 6718W        W22792   2.467   9.233  15.393 -0.0072 -0.0904  0.0045
 6719W        W22793  12.954  11.872  12.690  0.1778  0.1607 -0.1388
 6720W        W22794   0.878   0.836  16.379 -0.0616  0.0959  0.0755
 6721W        W22795   5.877  12.367   1.694  0.1077  0.0169 -0.1651
 6722W        W22796   9.517  11.837  13.520 -0.0862 -0.3028  0.2003
 6723W        W22797   3.928  16.593   1.448  0.0112 -0.2090 -0.1117
 6724W        W22798   0.043  13.906   4.717  0.2830 -0.1262 -0.1842
 6725W        W22799  17.166   4.663  13.480  0.3082  0.0097 -0.0689
 6726W        W22800  13.646  16.990  15.407  0.0613 -0.0355 -0.0246
 6727W        W22801  16.594  12.603   1.679 -0.0687  0.2206 -0.1763
 6728W        W22802  13.856   0.356   1.687  0.1669 -0.0851  0.3473
 6729W        W22803  13.293  12.728   4.529  0.0766 -0.0608  0.1728
 6730W        W22804  13.249  11.294   4.988  0.0954  0.0132  0.3575
 6731W        W22805   7.974  11.014   4.404  0.2836  0.0907 -0.0677
 6732W        W22806  12.392  15.698   2.518  0.1252  0.1274 -0.1036
 6733W        W22807   6.077   4.683  12.480 -0.2196  0.0540  0.2460
 6734W        W22808  17.090   2.515   3.615  0.1478  0.2317 -0.1187
 6735W        W22809   7.299   5.881  10.696 -0.1822  0.3005  0.1193
 6736W        W22810   5.934  15.042   4.425 -0.2096  0.0958  0.0363
 6737W        W22811   7.746  15.062  13.980  0.2606 -0.1815 -0.1388
 6738W        W22812   9.678  17.164  15.499 -0.1666  0.0998  0.2370
 6739W        W22813  12.875   1.819   4.824 -0.0898 -0.0163  0.0791
 6740W        W22814   2.183   6.377   1.646 -0.3486  0.2289 -0.3025
 6741W        W22815   8.644   1.176  15.243 -0.2000  0.1721 -0.3900
 6742W        W22816  11.963  12.077   2.322 -0.0898 -0.3605 -0.0149
 6743W        W22817  10.569   6.876   3.151 -0.0371 -0.3321 -0.2747
 6744W        W22818  14.224   3.418   2.592  0.0716  0.0053 -0.2490
 6745W        W22819   1.191  14.214   0.494 -0.0562 -0.1845 -0.1246
 6746W        W22820   1.457  13.277   2.793 -0.1282  0.0778  0.0113
 6747W        W22821   6.416   9.702   4.812  0.1959 -0.1580 -0.1133
 6748W        W22822  15.311  10.869  16.176 -0.2071 -0.1691  0.0489
 6749W        W22823  14.448  11.301  12.978  0.1336  0.1196  0.2752
 6750W        W22824   7.695   5.884   1.954 -0.2823 -0.1083 -0.1502
 6751W        W22825   5.775   9.763  16.357  0.0598 -0.3089  0.2536
 6752W        W22826   6.937  15.268   4.043  0.1979  0.0551 -0.1372
 6753W        W22827   9.996   7.896  11.106 -0.3148  0.0929  0.1802
 6754W        W22828  14.097  10.837  15.647 -0.3025 -0.3169 -0.0065
 6755W        W22829  16.813   6.634   4.105  0.1845  0.0209 -0.0916
 6756W        W22830   1.036  12.657  15.096  0.0858 -0.1046 -0.1736
 6757W        W22831   7.923  16.943  11.004 -0.1265  0.0525 -0.0463
 6758W        W22832  12.052   2.651   1.867 -0.2662 -0.0627  0.0893
 6759W        W22833   1.460  12.096  13.818  0.2401 -0.4163  0.0621
 6760W        W22834   6.150   6.272   6.011 -0.0319  0.1015 -0.2764
 6761W        W22835  17.705  12.279   3.358 -0.3096  0.2212  0.0354
 6762W        W22836   0.257   4.929   2.358  0.1196  0.1070  0.1069
 6763W        W22837   5.333   5.124  13.565 -0.2653  0.2308  0.2074
 6764W        W22838   1.257  18.191  14.792  0.3904 -0.2585  0.2013
 6765W        W22839  18.005  12.125  12.964 -0.3043  0.0992  0.1036
 6766W        W22840   9.951   8.248   1.513  0.1554  0.0999 -0.1753
 6767W        W22841   0.955   9.332  14.073  0.0251 -0.1469  0.0412
 6768W        W22842  10.081   8.635   1.328 -0.1763  0.2264 -0.0957
 6769W        W22843  13.559  16.700   0.270 -0.1554 -0.0405  0.0638
 6770W        W22844   0.303   7.233  12.121  0.1559  0.1169 -0.0158
 6771W        W22845   7.238  14.601  15.003  0.2893  0.3420 -0.1644
 6772W        W22846   9.266  14.872  15.939  0.3062  0.0992  0.0815
 6773W        W22847   6.139   2.424  14.726 -0.0010 -0.1020 -0.1246
 6774W        W22848  16.171   3.881  15.877 -0.4287 -0.1826 -0.2132
 6775W        W22849  16.747   4.683   0.274  0.2855 -0.0095 -0.0985
 6776W        W22850  17.240  12.854  14.595 -0.0724 -0.0746 -0.1824
 6777W        W22851   3.511   4.506   3.551  0.4000 -0.2253  0.1288
 6778W        W22852   6.601  15.146  12.315  0.1136 -0.3549  0.1602
 6779W        W22853   5.436  12.387  15.219 -0.1477 -0.1304  0.2261
 6780W        W22854  10.907   2.601   0.037  0.0802 -0.1590 -0.2204
 6781W        W22855  15.544  10.268   0.896  0.2392  0.0792  0.1478
 6782W        W22856  11.916  12.428  11.777  0.0964  0.0138 -0.0716
 6783W        W22857  11.621  13.039  15.833 -0.1149 -0.2795  0.0311
 6784W        W22858  14.600   3.530  11.693 -0.4008  0.1444 -0.0807
 6785W        W22859   2.553   6.302   4.647 -0.0727  0.0803  0.1139
 6786W        W22860   5.061  15.017  12.622  0.0067  0.2026 -0.1455
 6787W        W22861   2.256  16.856  15.826 -0.2291  0.1203 -0.0979
 6788W        W22862  11.627   4.119  10.924  0.4581 -0.1162  0.0837
 6789W        W22863   8.521   1.678  14.201  0.0564  0.1306  0.0513
 6790W        W22864  16.519   3.980  13.100  0.2402 -0.0203  0.2582
 6791W        W22865  13.602  13.745   5.838  0.2332  0.2711 -0.0476
 6792W        W22866   3.410  10.572   1.756  0.0595 -0.4331 -0.0427
 6793W        W22867   5.686   5.997  16.272 -0.0549  0.0229 -0.0726
 6794W        W22868   1.795  14.089  13.953 -0.1640  0.0314  0.0675
 6795W        W22869  15.681  11.001  13.482  0.1903  0.0027  0.0187
 6796W        W22870   7.090   7.283   4.769  0.1096 -0.0163 -0.1644
 6797W        W22871   5.128  11.775   3.294  0.2554  0.2035  0.1158
 6798W        W22872  16.568   0.404  15.325  0.3389 -0.2987 -0.0314
 6799W        W22873   9.842   4.222   9.723  0.3791 -0.0891  0.3964
 6800W        W22874   1.033  14.592  14.376 -0.1408 -0.0431 -0.1171
 6801W        W22875   6.711  15.263  13.532 -0.4045  0.2050 -0.3104
 6802W        W22876   4.382   3.063  12.188 -0.1340  0.1416 -0.2368
 6803W        W22877  16.098  15.457   5.494  0.0783 -0.1770 -0.0610
 6804W        W22878   6.515   5.642   3.517  0.0171 -0.0244  0.2581
 6805W        W22879   4.862   5.103  11.265 -0.0369  0.0595 -0.1113
 6806W        W22880   4.548   2.353   3.551 -0.0384 -0.0516 -0.3193
 6807W        W22881  17.204  18.326  16.094  0.1410  0.1037 -0.0160
 6808W        W22882   6.275   4.943  12.939  0.0956 -0.1695 -0.0360
 6809W        W22883   7.564   6.501  15.389  0.1299 -0.4943 -0.1629
 6810W        W22884   8.740   8.462   5.750  0.0922  0.2234  0.0716
 6811W        W22885   7.795  15.234   5.136 -0.0192 -0.1150 -0.0459
 6812W        W22886   9.635   4.248  11.514 -0.0160  0.0125 -0.0432
 6813W        W22887   8.589   8.098  12.108 -0.1210  0.1651  0.0480
 6814W        W22888  10.851   8.668   0.124 -0.1824  0.1200 -0.0643
 6815W        W22889   4.549  17.668  16.157 -0.1246  0.0665 -0.3682
 6816W        W22890   0.170  13.370  13.768  0.1813 -0.2198  0.0454
 6817W        W22891  12.306   4.453   5.863 -0.1126 -0.0086 -0.2852
 6818W        W22892  12.422   3.547   4.779  0.2362  0.0849 -0.0950
 6819W        W22893   5.059  10.523   0.974  0.0472  0.0187  0.0678
 6820W        W22894   6.580   1.167  11.131 -0.0730 -0.0696 -0.1901
 6821W        W22895  15.810  16.852   1.147 -0.0812 -0.1711  0.0682
 6822W        W22896  10.468   1.700  12.375 -0.0493  0.0382 -0.0914
 6823W        W22897  12.639  16.352   0.413 -0.3087  0.2431  0.1224
 6824W        W22898  17.447  11.259   3.859  0.1444  0.2521 -0.0051
 6825W        W22899   6.197   0.619  14.277  0.0798 -0.0740  0.1171
 6826W        W22900   2.085  12.145   3.858  0.2178  0.2432 -0.3489
 6827W        W22901  16.135  17.819   0.255 -0.0991  0.1135  0.0565
 6828W        W22902   4.265  12.358  13.745 -0.1701  0.2698 -0.2153
 6829W        W22903   0.217   4.139   4.308 -0.1845 -0.0807 -0.1357
 6830W        W22904   5.230   5.216   3.587  0.3565  0.3189 -0.1875
 6831W        W22905   8.135  17.897  14.667  0.0938  0.0044  0.1545
 6832W        W22906  13.396  16.140  13.404 -0.0870 -0.1550 -0.2698
 6833W        W22907   1.276   0.417   4.874 -0.1369 -0.0658  0.0217
 6834W        W22908   9.293   9.196  11.907 -0.0397  0.1816 -0.0685
 6835W        W22909   7.164   1.504   0.060 -0.0459 -0.0555  0.0290
 6836W        W22910   0.393   2.464  14.708 -0.1358 -0.0632 -0.0230
 6837W        W22911   1.262   4.091   5.921 -0.3222 -0.1892  0.0192
 6838W        W22912   5.634  12.229   2.963 -0.0196  0.0678 -0.2673
 6839W        W22913   9.635   0.281   0.849 -0.2131  0.2910 -0.1913
 6840W        W22914   7.692  10.468   1.162  0.2837  0.1402 -0.1650
 6841W        W22915   8.935   5.372  12.928  0.1739 -0.0426 -0.2475
 6842W        W22916   2.504  16.175  12.619  0.2009 -0.0611  0.1487
 6843W        W22917   3.772   3.745  14.802 -0.1975 -0.0027  0.1523
 6844W        W22918  14.941   3.859  15.419 -0.1914 -0.2981 -0.0676
 6845W        W22919   1.288  14.591  11.481 -0.0085 -0.3676 -0.0334
 6846W        W22920   7.141   2.715   2.098 -0.0203  0.1920  0.1445
 6847W        W22921  15.798  10.402   5.874 -0.0000  0.0426 -0.1867
 6848W        W22922   6.745   5.208  14.900  0.0185  0.1499 -0.0783
 6849W        W22923  16.227  17.172   2.092 -0.2051  0.1525  0.1120
 6850W        W22924   9.618   6.926  13.767 -0.0946 -0.0818 -0.2790
 6851W        W22925  12.093  13.979   5.722 -0.1929 -0.1294 -0.1182
 6852W        W22926   0.352  12.491   0.832 -0.0732 -0.2562  0.4537
 6853W        W22927   6.750   7.889   5.255 -0.3952  0.1620  0.0089
 6854W        W22928  16.186   1.099   6.078 -0.0382 -0.0203  0.0342
 6855W        W22929   2.233  11.488  11.657  0.2744 -0.0592  0.1719
 6856W        W22930   5.600  15.774  16.217 -0.0833 -0.1309 -0.1524
 6857W        W22931   4.509  12.570  15.581 -0.2529 -0.1570 -0.1856
 6858W        W22932  17.483  16.319  12.714  0.1169  0.1784 -0.1458
 6859W        W22933   8.396  14.138   1.341 -0.1677  0.1057  0.1449
 6860W        W22934   6.653  13.924   2.759  0.1523 -0.2854 -0.0265
 6861W        W22935  10.653  17.493  14.208 -0.1880  0.2086  0.3460
 6862W        W22936  14.630   4.498   5.640 -0.2905  0.4069  0.1216
 6863W        W22937   4.790   4.129  14.106  0.2438  0.0012 -0.0546
 6864W        W22938   5.670   6.071   5.003  0.1423  0.1603  0.0178
 6865W        W22939  15.674  14.894  14.443  0.1681  0.1186 -0.1399
 6866W        W22940   9.511  17.012  13.818  0.2877  0.0994  0.1703
 6867W        W22941  16.506   2.554  11.966 -0.0278  0.2204 -0.0773
 6868W        W22942  10.395   8.547   0.852  0.5453  0.1270  0.4695
 6869W        W22943   3.776  12.112   0.243  0.1239  0.0883  0.0845
 6870W        W22944  16.834   4.724   3.822 -0.2833  0.2121  0.0109
 6871W        W22945   3.137   8.490   2.591  0.1459 -0.3297 -0.0369
 6872W        W22946  13.090  15.242  14.951 -0.2824  0.1784  0.2526
 6873W        W22947   4.151   1.063  13.520  0.1191  0.0022  0.0741
 6874W        W22948  12.983   9.022   3.040 -0.3287  0.0446  0.2217
 6875W        W22949   9.507   7.457  12.205  0.0747  0.3411 -0.3413
 6876W        W22950   4.893   3.918  12.473 -0.1598  0.2939 -0.1763
 6877W        W22951   7.118   5.059   1.425 -0.2141  0.1197 -0.0882
 6878W        W22952  15.774  13.776   2.761  0.0196  0.0889  0.0166
 6879W        W22953   4.590  10.443  12.196  0.1262  0.0177 -0.2651
 6880W        W22954  17.602   0.140  10.572 -0.0084 -0.2010  0.3456
 6881W        W22955   0.896  16.671  15.690  0.0306 -0.1658  0.0563
 6882W        W22956   6.008   2.492  13.551  0.0155 -0.4210  0.3065
 6883W        W22957   8.694  15.761   1.480  0.0177 -0.2391 -0.1567
 6884W        W22958  15.778   9.507  13.817 -0.1524 -0.1916  0.0468
 6885W        W22959  12.447  12.138   0.534  0.1113  0.3176 -0.0092
 6886W        W22960   4.034  14.681   5.705 -0.2118 -0.1276  0.2488
 6887W        W22961   7.307   8.924  14.447 -0.0953 -0.0511 -0.2859
 6888W        W22962   0.073   9.244  13.815  0.1265  0.0361 -0.1748
 6889W        W22963  11.927  17.769   3.726 -0.3244 -0.2845  0.2812
 6890W        W22964  10.804   6.854  15.512 -0.0485  0.1539 -0.0635
 6891W        W22965   3.810  16.806   5.434 -0.2099 -0.1601 -0.1038
 6892W        W22966  16.811   4.080  11.979 -0.0282  0.1075  0.0913
 6893W        W22967   0.941   2.004  12.737 -0.1452  0.2403 -0.1239
 6894W        W22968   7.516   4.449  13.259 -0.0957  0.1668  0.0647
 6895W        W22969  17.458  15.607   4.840 -0.0114 -0.1056 -0.1315
 6896W        W22970  17.785  10.832   0.700 -0.1247  0.0701 -0.1978
 6897W        W22971   9.287   2.552   3.004  0.1106 -0.0598 -0.0128
 6898W        W22972  18.136  11.545  14.225 -0.1078 -0.0620  0.1280
 6899W        W22973  17.689  15.764   3.883  0.0747  0.1215  0.2666
 6900W        W22974  17.087  13.934   0.126  0.0373  0.0270 -0.2861
 6901W        W22975   2.573  15.153  15.262 -0.0162  0.0877  0.3466
 6902W        W22976   2.728  15.566  16.017 -0.3180  0.1295  0.0035
 6903W        W22977  16.803   5.328   0.650  0.0925  0.0262 -0.0493
 6904W        W22978  13.585   3.903   1.989  0.1321  0.0743  0.2350
 6905W        W22979  10.302  11.375  15.171 -0.4784  0.2643 -0.0037
 6906W        W22980  16.496  12.889  15.190 -0.0266 -0.0041 -0.0999
 6907W        W22981  12.723  10.987  16.104  0.1526 -0.0790  0.0781
 6908W        W22982   3.037  15.743  10.480 -0.1161  0.0098  0.3883
 6909W        W22983   1.309   2.520   5.103  0.1138 -0.1909  0.2688
 6910W        W22984  11.638   9.461  12.242  0.0072  0.1297 -0.0212
 6911W        W22985  12.087   5.599  12.113  0.0759 -0.0719 -0.0402
 6912W        W22986   0.108   4.199   2.065 -0.0679 -0.0929 -0.1435
 6913W        W22987   8.936   3.060   1.484 -0.0032 -0.0201  0.0334
 6914W        W22988   1.777   0.112  14.720  0.0064 -0.1022 -0.0765
 6915W        W22989  10.299  17.532   5.527  0.1375  0.0980 -0.1562
 6916W        W22990   7.878  14.908  16.251 -0.0134 -0.0556  0.2073
 6917W        W22991  15.514  15.163   3.102  0.1598  0.2202 -0.1328
 6918W        W22992   7.409   9.247   3.413 -0.2268 -0.1834  0.0183
 6919W        W22993   4.689  15.011   1.055  0.0469 -0.0234 -0.1979
 6920W        W22994   2.122   0.585  15.929 -0.1451  0.2322 -0.1664
 6921W        W22995  12.416  18.136   0.469 -0.0835  0.0651  0.1642
 6922W        W22996  17.281   5.091  16.090 -0.0529 -0.2222 -0.1346
 6923W        W22997   3.879  12.635   1.982 -0.0515 -0.0413  0.1786
 6924W        W22998   4.497  13.271  12.430  0.0942  0.0937  0.1253
 6925W        W22999   4.946   7.189   0.549 -0.0353  0.1009  0.0997
 6926W        W23000  17.385  18.048  14.070 -0.0746 -0.2244 -0.1348
 6927W        W23001   6.394   6.970  13.823  0.1356  0.0413 -0.1206
 6928W        W23002   0.165   9.255   5.147  0.2303 -0.2112  0.0431
 6929W        W23003   0.067   6.869  11.505 -0.5168  0.1329  0.0506
 6930W        W23004  14.930  13.255   2.087  0.1556 -0.2106 -0.2464
 6931W        W23005  13.436   3.671  14.935  0.2965 -0.1764  0.0468
 6932W        W23006  10.989   0.663   3.389 -0.0678  0.1750  0.1701
 6933W        W23007   2.104   8.395   1.452 -0.0385  0.0999 -0.0315
 6934W        W23008  13.275  15.185   2.255 -0.1757  0.0472 -0.0937
 6935W        W23009   9.057  16.977   0.358 -0.2656  0.1006 -0.1682
 6936W        W23010  10.442  18.099  11.938 -0.0183  0.0836 -0.2163
 6937W        W23011  10.929  15.239  11.647 -0.2846 -0.3680 -0.1380
 6938W        W23012   8.914  14.948  12.295  0.0522 -0.0291 -0.0018
 6939W        W23013   1.623   1.485   6.013  0.1706 -0.1222 -0.0291
 6940W        W23014   3.578   0.669   4.998 -0.1960 -0.2528  0.2500
 6941W        W23015  12.043  17.348   4.932 -0.2042  0.0564  0.1039
 6942W        W23016  17.224   8.214  11.467 -0.2826 -0.1477  0.2630
 6943W        W23017  16.627  12.833  13.824 -0.2071 -0.1830  0.0250
 6944W        W23018  15.453   2.922   0.770 -0.2394  0.0398  0.0130
 6945W        W23019   4.788   3.651   2.022  0.0309  0.0166  0.4488
 6946W        W23020   1.445   3.653  14.251 -0.1251 -0.1890 -0.4027
 6947W        W23021   0.686   5.769   5.434  0.0154  0.1276  0.2134
 6948W        W23022   7.602   1.588   3.603  0.1362  0.4188 -0.0555
 6949W        W23023   1.848  12.835  10.930  0.2030  0.0705  0.0392
 6950W        W23024   9.143  11.802   0.499 -0.0236 -0.0366  0.0071
 6951W        W23025   2.470   2.135  16.053 -0.1442 -0.1881  0.1826
 6952W        W23026  16.952   1.816  12.221 -0.1923 -0.5436  0.0803
 6953W        W23027   9.242   3.671   2.256  0.1907 -0.1199 -0.0066
 6954W        W23028  13.112   3.332  12.274 -0.0768 -0.0135 -0.0429
 6955W        W23029   3.736   5.649  14.757 -0.0466 -0.0227  0.2011
 6956W        W23030  12.486   9.773  12.001 -0.1283 -0.1966 -0.2833
 6957W        W23031   3.407   2.393   6.094 -0.0885 -0.2799  0.1410
 6958W        W23032   0.058   2.214  15.185  0.1589  0.2726 -0.0101
 6959W        W23033   2.879  14.705   3.810  0.3924 -0.1598  0.0678
 6960W        W23034  12.133   2.860  10.397 -0.2481 -0.2205  0.0482
 6961W        W23035   3.449  13.060  13.225 -0.1438 -0.1849 -0.0827
 6962W        W23036  11.581  17.181   5.390  0.2348  0.4424 -0.4305
 6963W        W23037  11.496   9.559   3.651  0.1248  0.0722  0.1399
 6964W        W23038   9.982  11.603   2.671  0.1723  0.2747  0.1017
 6965W        W23039  11.822   3.474  12.816 -0.1564 -0.2294  0.4148
 6966W        W23040   6.728   2.262  11.546 -0.2464 -0.0982  0.1257
 6967W        W23041  12.648  16.540  16.298  0.2025 -0.1465  0.0532
 6968W        W23042  14.279   2.113  14.679 -0.0953 -0.0570 -0.0795
 6969W        W23043  12.459   6.546  15.783  0.1998 -0.0673 -0.1135
 6970W        W23044   6.335   2.925   5.304 -0.0272  0.1503 -0.1544
 6971W        W23045   5.145  16.359   5.184  0.0752 -0.0453 -0.1342
 6972W        W23046  15.743   2.440   5.580  0.1018  0.1638 -0.0092
 6973W        W23047  16.015   3.095  11.974  0.1458  0.3259  0.1932
 6974W        W23048   1.775   9.195   4.988 -0.0559  0.2483 -0.1431
 6975W        W23049   2.014  12.014   1.416 -0.1761 -0.1513 -0.0698
 6976W        W23050  13.818   6.241  13.594  0.0857  0.1374 -0.2012
 6977W        W23051  13.350  15.194   0.449 -0.2901  0.1378 -0.0413
 6978W        W23052   2.232  13.603   2.940  0.0584 -0.4461  0.0251
 6979W        W23053  18.326  14.251  15.278  0.1390  0.1086  0.2747
 6980W        W23054  14.246   6.427   3.901  0.1602 -0.4191 -0.0114
 6981W        W23055  14.807  11.808   3.850 -0.2569  0.0138  0.1608
 6982W        W23056   2.881  12.583  14.724 -0.0724  0.2821 -0.2549
 6983W        W23057  10.101   9.545   2.875 -0.0651  0.0009  0.0868
 6984W        W23058  17.782   8.963   0.551  0.0065 -0.1179 -0.0643
 6985W        W23059   0.067   8.636   1.488  0.1524  0.4544 -0.0837
 6986W        W23060  15.328   9.267   2.200 -0.0605  0.2181 -0.3444
 6987W        W23061  14.336   7.299   1.165  0.2288 -0.1583  0.1619
 6988W        W23062   2.332  14.191   4.917  0.3848  0.1950  0.0535
 6989W        W23063   7.546  13.198  15.775 -0.1026  0.1487  0.0548
 6990W        W23064   6.703  13.576  13.813  0.0226  0.0205  0.0251
 6991W        W23065  13.048   8.768  11.592  0.0509  0.2226 -0.0877
 6992W        W23066  13.441   5.367   0.430 -0.3618  0.0127  0.2306
 6993W        W23067  17.131   5.025   1.282 -0.0138 -0.0905  0.1314
 6994W        W23068   0.476   2.696   2.533 -0.0242 -0.0406 -0.0568
 6995W        W23069  13.623   7.199   4.736 -0.0718 -0.4084 -0.0694
 6996W        W23070  15.004   6.958   0.800 -0.0187  0.2469 -0.0326
 6997W        W23071   6.991  16.504   1.070  0.0667  0.0583  0.0767
 6998W        W23072   3.215   9.019  14.709  0.0748  0.0348 -0.1371
 6999W        W23073  17.060  10.175   4.031  0.0692  0.0926  0.2558
 7000W        W23074   6.302   0.509  14.746  0.1035  0.2679  0.3423
 7001W        W23075  14.383   8.322   4.267 -0.1523  0.0798 -0.1718
 7002W        W23076  11.538   4.124   3.253 -0.2858  0.1399 -0.0875
 7003W        W23077  10.166   1.014  12.895 -0.2339  0.1967 -0.2355
 7004W        W23078   5.616   4.485  12.420  0.4071 -0.1768 -0.2538
 7005W        W23079  10.710  14.550  12.191 -0.4959  0.0889 -0.1008
 7006W        W23080   0.484  10.873   4.847  0.0461  0.1388  0.5181
 7007W        W23081   5.762  10.627  14.802 -0.1785 -0.0427 -0.1350
 7008W        W23082   1.258  14.380  13.505  0.3686  0.3076 -0.1734
 7009W        W23083   8.254   6.622   4.083 -0.2379  0.2086 -0.0166
 7010W        W23084   9.083   9.879   2.936  0.0941 -0.0003  0.0076
 7011W        W23085  11.795   3.780  15.752  0.0420  0.1378 -0.0473
 7012W        W23086   7.243  12.865   4.577  0.0962  0.1824  0.2459
 7013W        W23087  11.664  12.221  14.386 -0.1445  0.1337  0.1448
 7014W        W23088  14.930  11.719  13.516 -0.1595  0.3007 -0.1433
 7015W        W23089   8.764   1.338  12.884  0.0153 -0.1191 -0.0319
 7016W        W23090  11.920   5.678  15.958  0.0834 -0.2551 -0.1684
 7017W        W23091  11.462  11.221  12.134 -0.1091 -0.2808  0.2923
 7018W        W23092   3.734   7.308   4.464 -0.3666  0.2064 -0.0049
 7019W        W23093   8.972  11.943   1.801  0.0668  0.0477 -0.4010
 7020W        W23094   4.864   8.578   1.234  0.1534 -0.0389  0.1894
 7021W        W23095  11.549  12.974   0.669  0.4001 -0.0456 -0.0065
 7022W        W23096   4.725  10.889  11.794 -0.2879  0.5038 -0.0770
 7023W        W23097   2.164   2.585  12.758  0.0417  0.3051 -0.1167
 7024W        W23098   8.099  11.955  15.504  0.0235 -0.1656 -0.1901
 7025W        W23099   7.241  11.623   4.833 -0.0508  0.4950  0.0526
 7026W        W23100   9.703  17.746   4.330  0.2408 -0.0163  0.1262
 7027W        W23101  10.751   4.256  12.536 -0.3156  0.2208 -0.1954
 7028W        W23102   3.989  11.573   4.607 -0.1573 -0.1957 -0.1145
 7029W        W23103  14.250   0.402  15.391  0.0141  0.0259  0.0932
 7030W        W23104  16.023  16.396   0.921 -0.2433 -0.1963 -0.3287
 7031W        W23105   3.752  13.642  13.569  0.1276 -0.2018  0.2325
 7032W        W23106  17.057  12.577   3.329 -0.0708  0.4609 -0.0217
 7033W        W23107  14.703   4.121  14.055 -0.1278  0.2309 -0.0703
 7034W        W23108   6.705   7.978   1.424  0.1046 -0.0260  0.2583
 7035W        W23109   2.349   9.657   1.253  0.2266  0.0131  0.0719
 7036W        W23110   5.123   4.534   2.400  0.3734  0.0562 -0.4134
 7037W        W23111   8.811  10.166   5.492 -0.0821 -0.0873 -0.2652
 7038W        W23112  10.055  14.353   1.555 -0.0908  0.1517  0.0673
 7039W        W23113  10.128  12.871   0.245 -0.3400 -0.1322  0.1094
 7040W        W23114   3.573  11.701  13.148 -0.2103 -0.3993 -0.0119
 7041W        W23115   4.894  18.298   0.581  0.0166  0.2869 -0.3412
 7042W        W23116   5.470  11.357  13.148  0.0425  0.2990 -0.1770
 7043W        W23117   3.551   8.523   0.613 -0.1204 -0.0392 -0.2210
 7044W        W23118  10.001  15.808   3.044  0.2076  0.2218 -0.0754
 7045W        W23119  17.854   3.893  11.851  0.0548  0.0040 -0.2979
 7046W        W23120   5.341   0.474   2.121 -0.0464  0.0669  0.0194
 7047W        W23121  11.293   5.862  14.581  0.0102 -0.0324  0.0608
 7048W        W23122  12.795   2.048   2.138 -0.1517 -0.2571 -0.0303
 7049W        W23123   0.700  12.297   0.446  0.0986  0.0152 -0.0601
 7050W        W23124   5.019   9.325  15.555  0.0805  0.1563  0.1767
 7051W        W23125   0.731  12.525   4.995  0.0534 -0.0145 -0.0166
 7052W        W23126  11.640  11.083   0.926 -0.0358 -0.6517 -0.1330
 7053W        W23127  10.334   3.992  13.070  0.0883 -0.3130 -0.0863
 7054W        W23128  14.417   0.102  12.622  0.1745 -0.3046  0.1677
 7055W        W23129   2.107  15.538   3.342  0.1215  0.2409  0.0419
 7056W        W23130   7.282  14.124  14.750 -0.2248  0.1187 -0.4091
 7057W        W23131   4.307   7.205  15.567 -0.1586 -0.0317 -0.0858
 7058W        W23132   5.148   0.331   6.248 -0.0028  0.0678 -0.1627
 7059W        W23133   7.404   1.898  11.136 -0.1068 -0.1707 -0.0244
 7060W        W23134  16.009   8.322  15.086  0.2643 -0.2105 -0.1403
 7061W        W23135   0.220  11.515   1.541 -0.1431 -0.1218  0.2921
 7062W        W23136   6.330   6.998   1.883 -0.2574  0.1575  0.4020
 7063W        W23137  12.317   4.960   2.356  0.3846 -0.3623  0.0057
 7064W        W23138   3.269   3.639   4.938  0.0934  0.2011  0.2349
 7065W        W23139   9.567   4.879  10.777 -0.2873  0.0833 -0.2241
 7066W        W23140   1.877  17.410   1.102  0.0880  0.1149  0.1909
 7067W        W23141   9.225  14.433   0.269  0.0376 -0.1328  0.2686
 7068W        W23142  14.376  16.991   5.090 -0.1642 -0.1832  0.2897
 7069W        W23143   1.536   5.428  12.691  0.1504 -0.2201  0.0127
 7070W        W23144  13.276  12.445   5.364 -0.0419  0.2481 -0.0563
 7071W        W23145   3.807  13.143   1.809 -0.0698 -0.2591  0.2919
 7072W        W23146   5.259  13.680   1.051  0.0555  0.0669 -0.1686
 7073W        W23147   7.538   3.104  14.162 -0.0699  0.1166  0.1526
 7074W        W23148  11.962  18.260  15.460 -0.0607  0.3843 -0.1888
 7075W        W23149   0.209   6.241   4.249 -0.0029  0.0376 -0.4600
 7076W        W23150   1.210   8.314   4.848  0.1258 -0.2099  0.1980
 7077W        W23151   8.427   2.116   0.539  0.0842 -0.0250  0.4499
 7078W        W23152   7.096   0.428   1.952  0.1232 -0.1875  0.2866
 7079W        W23153  16.941   9.059   1.342  0.1403  0.0147  0.4782
 7080W        W23154   4.954  11.668  14.976  0.0071  0.1846  0.3225
 7081W        W23155  14.069   3.242  12.602  0.1042 -0.0571  0.0849
 7082W        W23156  10.596  14.157  12.590 -0.3568  0.0266  0.3175
 7083W        W23157  18.334  11.098   3.805 -0.0629 -0.0055 -0.0068
 7084W        W23158   7.176   0.245  13.996 -0.2273 -0.1145  0.3072
 7085W        W23159  10.558  18.295   2.518 -0.4656 -0.2556 -0.0096
 7086W        W23160  11.934  10.904   4.738 -0.0218  0.1922 -0.2764
 7087W        W23161  11.024   4.623  15.000 -0.4832 -0.0788  0.1055
 7088W        W23162  16.391  17.250   3.585  0.1603 -0.3167  0.0709
 7089W        W23163   0.360   8.724   0.167  0.3578 -0.0313 -0.0635
 7090W        W23164   1.844   5.085   4.972 -0.1736 -0.1513  0.0876
 7091W        W23165   0.270  15.093   0.051 -0.2608 -0.0327  0.1403
 7092W        W23166  13.024   1.504   0.727 -0.0697  0.1153 -0.2840
 7093W        W23167   1.790   2.142   2.327 -0.2087 -0.0264  0.1845
 7094W        W23168  12.020   6.140   1.349 -0.0118 -0.0422  0.0781
 7095W        W23169  16.689   5.764  14.785 -0.1212 -0.1058 -0.0616
 7096W        W23170  16.278  11.730   2.626  0.0403 -0.0411  0.1653
 7097W        W23171  15.493   1.069   4.364  0.1555  0.0448 -0.1009
 7098W        W23172   4.439   7.814  12.268 -0.0137  0.2158 -0.1207
 7099W        W23173   1.879   6.856   0.806  0.1103 -0.1029  0.2945
 7100W        W23174   7.564  15.579  12.441 -0.1374  0.0822 -0.1303
 7101W        W23175  14.557  15.754   6.348 -0.2080  0.1106  0.0369
 7102W        W23176   9.314  15.920   3.766 -0.0604  0.1587 -0.0103
 7103W        W23177   3.199   8.936   2.819 -0.0018 -0.1678 -0.3050
 7104W        W23178  18.050   2.265   5.477 -0.0101  0.5211 -0.0984
 7105W        W23179  10.970   2.243   2.047  0.1746 -0.1156  0.0842
 7106W        W23180  14.327   7.351   4.088 -0.3146 -0.1419 -0.1476
 7107W        W23181  14.106  17.252   1.475  0.0116  0.4360  0.1335
 7108W        W23182  16.249  14.051   1.677  0.2367  0.1482  0.0492
 7109W        W23183  15.095   9.915   0.835  0.3648 -0.0809 -0.1983
 7110W        W23184   8.489   1.565   0.570  0.1767  0.0084 -0.0270
 7111W        W23185  12.785  15.678   3.596  0.0060  0.0508  0.0538
 7112W        W23186   5.260   4.728   0.356 -0.3182 -0.1444  0.4862
 7113W        W23187   1.375   7.505   4.328  0.0410 -0.1672 -0.0194
 7114W        W23188   4.130  16.430   2.609  0.0421 -0.0883 -0.0453
 7115W        W23189   2.999  13.135   1.109 -0.1819 -0.1690  0.0728
 7116W        W23190  10.909   3.488  15.974 -0.1103 -0.1906  0.3460
 7117W        W23191   5.476   4.053  15.019 -0.2215 -0.1473 -0.2083
 7118W        W23192  11.547  11.873   0.620 -0.3101 -0.0195  0.0110
 7119W        W23193   7.477  16.765  11.340 -0.3114 -0.0964 -0.0662
 7120W        W23194  17.072  12.265  14.097  0.2479  0.1913  0.0985
 7121W        W23195  17.131  13.268  14.895  0.1003 -0.4608 -0.3689
 7122W        W23196   3.033   8.346  16.345  0.1567  0.0326 -0.3669
 7123W        W23197  15.122  15.946   2.140  0.3605 -0.2029 -0.0227
 7124W        W23198  10.143   4.471  11.365 -0.0734  0.0573  0.1886
 7125W        W23199   4.021   5.931   3.887 -0.1971 -0.1114  0.0887
 7126W        W23200  18.005   8.414   4.630  0.2092  0.3276 -0.1428
 7127W        W23201  13.666  12.415  15.964  0.1130  0.1312 -0.0651
 7128W        W23202  10.294  15.047   1.540 -0.0999 -0.2169 -0.1488
 7129W        W23203   6.037  14.002   4.528 -0.1472 -0.1398 -0.3462
 7130W        W23204   0.158   0.488  11.577  0.1302 -0.0749  0.0951
 7131W        W23205   3.738   1.375  15.035 -0.0222  0.0518 -0.0973
 7132W        W23206   9.050   5.645  16.239 -0.0566  0.0354 -0.1080
 7133W        W23207   6.102   0.463  13.312  0.0714 -0.1918 -0.0778
 7134W        W23208  11.731  13.869   1.141  0.0050  0.0491 -0.1078
 7135W        W23209  14.458   5.939   4.637  0.0660  0.0842  0.1353
 7136W        W23210   9.758  13.618  15.420 -0.2020  0.0122 -0.1630
 7137W        W23211   9.076   9.922   3.694  0.1432  0.0680 -0.2896
 7138W        W23212  16.024   1.899   2.115  0.1033 -0.0275  0.1453
 7139W        W23213   0.121   8.853  13.458 -0.4125 -0.1329  0.0589
 7140W        W23214   5.150  13.057  16.106 -0.0737 -0.0132 -0.2265
 7141W        W23215   5.010  10.902   4.168 -0.0745  0.3763  0.0541
 7142W        W23216  11.400  10.887  13.317  0.3471 -0.1992 -0.1594
 7143W        W23217   4.411   8.933   1.612 -0.2278 -0.1287  0.1059
 7144W        W23218  11.958   5.084  14.314  0.0660 -0.3866  0.2777
 7145W        W23219   2.385  16.862   5.921  0.0233 -0.1098 -0.0571
 7146W        W23220   0.643   4.505   0.608  0.0928  0.0774  0.3234
 7147W        W23221   0.033  12.766   3.428  0.0570 -0.0271 -0.0248
 7148W        W23222   5.836  16.763  11.321 -0.1566  0.0419  0.0399
 7149W        W23223  12.571   1.209   0.127  0.2098 -0.0054  0.0202
 7150W        W23224  17.701   8.570   3.151  0.0258 -0.2619  0.0531
 7151W        W23225   3.534  10.705   4.720 -0.0930 -0.1569 -0.2375
 7152W        W23226  16.823  17.810  12.108  0.1631 -0.2346 -0.2159
 7153W        W23227   7.933   1.791   0.633  0.2503 -0.0480  0.1891
 7154W        W23228   1.089  13.128  13.363 -0.2988 -0.0541  0.0559
 7155W        W23229   9.975   1.377  14.891  0.3454  0.0715 -0.3985
 7156W        W23230   7.279  10.343  16.139  0.0431 -0.0460 -0.1388
 7157W        W23231   6.477   2.540   5.572  0.1915  0.0902 -0.1338
 7158W        W23232  11.188   8.858   4.259 -0.0198 -0.2266  0.1732
 7159W        W23233  10.085   1.159   5.078 -0.2400 -0.1467  0.2110
 7160W        W23234  17.015  10.648   1.142 -0.0010 -0.1653 -0.0751
 7161W        W23235  12.428   5.061  14.211 -0.2851  0.0907  0.0526
 7162W        W23236  12.265   9.343   0.246 -0.1590 -0.1545  0.2184
 7163W        W23237   8.705   0.470  10.229  0.2371 -0.0057 -0.1158
 7164W        W23238   8.191  12.967   4.924 -0.1317  0.2102  0.0521
 7165W        W23239  15.612   4.568   0.732  0.0788  0.0757  0.2178
 7166W        W23240  11.414   9.406   3.177 -0.1333 -0.1098 -0.5319
 7167W        W23241  11.202   9.996  13.672 -0.0361 -0.3005 -0.0328
 7168W        W23242   0.291  17.021   1.773  0.1128  0.0432 -0.2331
 7169W        W23243   0.829   3.407   3.912  0.1699  0.2554  0.0417
 7170W        W23244  15.095  18.183   0.297  0.0119 -0.1285  0.1993
 7171W        W23245  13.582   5.119  10.505  0.0670 -0.1007  0.0239
 7172W        W23246   8.674  15.079  11.353  0.0918 -0.3009  0.2528
 7173W        W23247   9.175   2.380   5.749 -0.2432 -0.0897 -0.1443
 7174W        W23248  15.331  11.376   0.752 -0.1317  0.0568  0.0095
 7175W        W23249   2.918  16.700  14.682 -0.1428  0.0718 -0.1651
 7176W        W23250   1.852  14.091  12.502  0.0152 -0.1989  0.0116
 7177W        W23251   0.877  10.373   5.495 -0.1240  0.1762 -0.0692
 7178W        W23252  10.491   4.114  11.709  0.2619 -0.0809  0.0118
 7179W        W23253   8.423   4.175  12.358  0.0841  0.1312  0.0804
 7180W        W23254  14.774   4.582   4.011 -0.1565  0.0399  0.2393
 7181W        W23255   9.046  17.590   2.207  0.1106 -0.0714 -0.0327
 7182W        W23256   6.363  15.339   0.074  0.0394 -0.0970 -0.1056
 7183W        W23257   7.329  13.067  12.967 -0.0596 -0.0782  0.1894
 7184W        W23258   2.910   6.891   4.945 -0.0547 -0.1597  0.0592
 7185W        W23259   8.364   3.200   0.913  0.0934 -0.3556  0.2550
 7186W        W23260   4.737   9.629   0.955 -0.0829  0.2456 -0.3139
 7187W        W23261  15.538   9.010  15.286 -0.1841 -0.0314 -0.0166
 7188W        W23262   2.546  14.075   4.457 -0.2158  0.0094  0.0674
 7189W        W23263   6.707  10.230   2.469 -0.0860 -0.1671 -0.0099
 7190W        W23264   6.237   9.798   2.609 -0.0441 -0.1785 -0.4299
 7191W        W23265   5.879  13.306   3.883  0.0830 -0.3123 -0.1707
 7192W        W23266  11.227  16.556  13.794 -0.0619 -0.1545 -0.3300
 7193W        W23267  17.263  10.656  15.068 -0.3019  0.1851 -0.2131
 7194W        W23268   5.980   7.676  12.738 -0.0270 -0.0223 -0.0930
 7195W        W23269   3.049   2.077  14.817  0.3987 -0.0728 -0.3094
 7196W        W23270  17.800  15.500   5.637  0.1966  0.5165 -0.1491
 7197W        W23271   0.748   5.670  15.124  0.2390 -0.1722  0.2678
 7198W        W23272   3.394   6.452  13.629 -0.3558  0.1215 -0.1559
 7199W        W23273  14.337   8.140   2.399  0.1454  0.0291 -0.3004
 7200W        W23274   4.990  17.323   6.130 -0.0970  0.0127 -0.1047
 7201W        W23275   7.905   3.061  12.572  0.1507  0.0607  0.1116
 7202W        W23276   8.600   8.872  16.204  0.0987  0.0652  0.6541
 7203W        W23277  12.870  14.246   0.489  0.0130  0.0820 -0.0513
 7204W        W23278   5.759  11.525   2.062 -0.2857 -0.2650  0.2630
 7205W        W23279  12.801   7.977   3.266 -0.1248 -0.0266 -0.0039
 7206W        W23280  15.695   4.092  13.786 -0.4036 -0.1441 -0.2022
 7207W        W23281  17.948   6.408  15.333 -0.0471  0.2593 -0.1143
 7208W        W23282   7.250   4.893  13.396 -0.1245  0.1790  0.0583
 7209W        W23283  14.259  14.975   1.058  0.2859 -0.0473  0.0216
 7210W        W23284   6.320   5.008  11.008  0.0263 -0.1495 -0.0322
 7211W        W23285   8.352   0.613   2.128  0.0315  0.0116  0.0367
 7212W        W23286  15.548  15.184  16.054 -0.2376 -0.0515 -0.2157
 7213W        W23287  11.416   8.243  14.201  0.0545 -0.1982 -0.1377
 7214W        W23288  17.027  14.262   4.806 -0.1013  0.2146 -0.1017
 7215W        W23289  10.375   1.224   0.599 -0.4500  0.1200 -0.2126
 7216W        W23290  17.482  15.835  11.685  0.0371 -0.1501  0.1037
 7217W        W23291  14.242   3.106  16.128  0.1309  0.0304 -0.2553
 7218W        W23292  10.057   1.916   3.518 -0.3457 -0.1345  0.0104
 7219W        W23293  16.716   1.077   1.918 -0.1081  0.0893 -0.0690
 7220W        W23294   3.415   9.649   3.432  0.3428  0.1400 -0.1568
 7221W        W23295   3.714   7.127  12.101 -0.0270 -0.1399  0.2682
 7222W        W23296  15.571   2.257  13.996  0.0704 -0.5191  0.0250
 7223W        W23297  12.184  14.628   6.291 -0.4459  0.2672 -0.0884
 7224W        W23298  12.386   2.023   4.858 -0.2909  0.0179  0.0586
 7225W        W23299   4.867  11.684   4.609  0.2024  0.0155  0.1744
 7226W        W23300  13.451  14.524   5.629  0.0375 -0.2180  0.3605
 7227W        W23301  17.454  17.597  14.964  0.1964  0.3942  0.0202
 7228W        W23302  10.589   5.644   2.973  0.1718  0.1842 -0.2392
 7229W        W23303  17.028  13.001   3.159 -0.1153 -0.1029  0.1056
 7230W        W23304  10.511  11.577  14.529  0.2227  0.1074 -0.1460
 7231W        W23305   5.319  13.348  13.234 -0.0965  0.0487  0.0538
 7232W        W23306  14.489   5.457   4.244 -0.1582  0.2089  0.0015
 7233W        W23307   8.209   0.812  14.870 -0.7945  0.0160 -0.0969
 7234W        W23308  15.111   8.070  15.690 -0.2802  0.2967  0.2300
 7235W        W23309   8.626  16.629   0.608 -0.1451 -0.1240  0.1911
 7236W        W23310  12.843  10.406  12.599 -0.5016  0.1114 -0.0177
 7237W        W23311   0.273   5.320   3.149  0.2503  0.2087  0.0405
 7238W        W23312   5.979   2.380  11.068  0.2418  0.2777  0.0517
 7239W        W23313   5.942   8.876  12.592  0.1449  0.2096  0.1202
 7240W        W23314   2.866   2.841   3.193  0.1005 -0.0968  0.1037
 7241W        W23315  10.071   6.829   5.003 -0.2074 -0.1071  0.1983
 7242W        W23316   3.641   1.618  14.531 -0.0745  0.1880  0.0861
 7243W        W23317   9.401   2.131  12.714 -0.0508  0.0496  0.3076
 7244W        W23318   1.759   4.253   6.186 -0.1321  0.0581 -0.0428
 7245W        W23319  15.556  13.519   0.635 -0.2570 -0.2416 -0.1935
 7246W        W23320  10.585  16.420  12.011  0.0107  0.3850  0.1537
 7247W        W23321  11.900   6.959   1.496 -0.3696 -0.0621 -0.1614
 7248W        W23322   2.346   6.649   4.990 -0.2307  0.2396 -0.0575
 7249W        W23323  10.436   4.624  12.924  0.0086 -0.1700 -0.0545
 7250W        W23324   1.822  13.687  15.538  0.0121 -0.2309  0.1063
 7251W        W23325  16.259  10.721  13.739  0.0726  0.1421 -0.1581
 7252W        W23326   5.460   8.365  13.219  0.4666  0.2031  0.0546
 7253W        W23327  16.797   4.269   3.628  0.0397 -0.0598 -0.1490
 7254W        W23328   5.495  15.491  13.738  0.2584  0.1000  0.0445
 7255W        W23329  13.146  14.252  15.168  0.1141 -0.3301  0.1620
 7256W        W23330   0.519  17.701   1.783  0.2296 -0.1131 -0.1455
 7257W        W23331  12.082   7.890   5.708  0.0798  0.2296  0.1209
 7258W        W23332   4.453  12.990   5.789  0.0897 -0.1180 -0.2237
 7259W        W23333  16.807  17.481   3.738  0.2253 -0.0430 -0.0789
 7260W        W23334   4.341   7.294  14.188  0.1264  0.1028 -0.0529
 7261W        W23335   2.982  11.019   1.521  0.0342 -0.0802 -0.0781
 7262W        W23336   4.572  14.126   4.498 -0.3561  0.1128 -0.3229
 7263W        W23337   3.026   3.904   3.189 -0.2280 -0.1142  0.2154
 7264W        W23338   4.960  11.111   6.063 -0.0888  0.1355  0.2115
 7265W        W23339   3.937  15.770  11.493  0.4633  0.1382  0.2115
 7266W        W23340   4.238  16.016   2.836 -0.0317 -0.1024 -0.1042
 7267W        W23341  10.385  15.030  16.128 -0.5250  0.1181 -0.0376
 7268W        W23342   0.984   2.795   2.705  0.0745 -0.1675  0.0307
 7269W        W23343   4.023  15.238   2.154 -0.2137  0.3264  0.0606
 7270W        W23344   5.681   1.080  13.561  0.0251 -0.1880 -0.1711
 7271W        W23345  11.214  16.278   3.540  0.0992  0.0116 -0.0088
 7272W        W23346  15.313  12.405   0.429 -0.3192 -0.2551  0.0645
 7273W        W23347  16.843   6.892  13.858  0.1918  0.1354 -0.1705
 7274W        W23348  10.820  16.013  14.457 -0.2674  0.1717 -0.0576
 7275W        W23349  11.905  18.235   5.401  0.0213  0.5316  0.3815
 7276W        W23350  15.144   0.165  13.931  0.2327 -0.0320 -0.2489
 7277W        W23351  14.971   5.257   0.617  0.1824  0.0395  0.0158
 7278W        W23352   5.623  15.830   3.675 -0.0709 -0.0580 -0.1323
 7279W        W23353   1.092  10.302  14.178  0.1670  0.0332 -0.3656
 7280W        W23354   5.895   6.553  14.905 -0.2456 -0.0143  0.0239
 7281W        W23355   4.536   8.211  14.100 -0.1990 -0.0619  0.2270
 7282W        W23356   6.322  12.767   0.978 -0.1786  0.1290 -0.2766
 7283W        W23357   3.523   5.376   2.010  0.0833 -0.0637  0.1919
 7284W        W23358  17.721   2.642  13.312  0.0477  0.0921  0.1756
 7285W        W23359   6.114  11.730  11.340  0.3350 -0.1541 -0.2491
 7286W        W23360  16.220  13.134   0.599 -0.0886  0.0751 -0.1260
 7287W        W23361  17.269   9.902   6.088 -0.2346  0.1390  0.1341
 7288W        W23362  12.674  13.498  14.282 -0.0190 -0.0277 -0.1757
 7289W        W23363  14.134   7.810   0.351 -0.0190 -0.0082  0.3389
 7290W        W23364  17.999  10.183  15.121  0.4256 -0.2089  0.1367
 7291W        W23365   9.184  11.503   2.773 -0.1654 -0.0091 -0.3517
 7292W        W23366   6.468   1.686   6.011 -0.0375  0.0384 -0.0058
 7293W        W23367   2.930  14.807  12.191 -0.0351  0.5757 -0.1224
 7294W        W23368  17.929  16.825   3.421  0.0376 -0.0526 -0.2581
 7295W        W23369   3.378   3.226  15.961 -0.1905  0.0275  0.1475
 7296W        W23370   1.164  15.526  12.813 -0.2248  0.1766  0.1326
 7297W        W23371   1.294   8.274  12.018 -0.3957 -0.0787 -0.3323
 7298W        W23372  15.167  14.659   2.414  0.0082 -0.1247  0.3356
 7299W        W23373   3.483   5.273   4.609  0.0427  0.2537  0.2089
 7300W        W23374  13.960  17.509   1.883 -0.2542  0.1567 -0.1888
 7301W        W23375  14.152   8.284  12.277  0.2702  0.0616  0.0763
 7302W        W23376  16.903  16.744   4.856 -0.2159  0.0043 -0.1830
 7303W        W23377   1.799  17.678   4.061  0.0331  0.2050 -0.0423
 7304W        W23378  14.169  17.728   0.406  0.0776  0.2874  0.2327
 7305W        W23379   9.389   6.404   3.669  0.2451 -0.1589  0.1410
 7306W        W23380  15.521  12.646  12.566  0.1019  0.2025  0.1810
 7307W        W23381  14.248  17.075  12.630 -0.2590 -0.0868  0.3238
 7308W        W23382   9.383  18.183   0.750  0.1496 -0.0007 -0.1699
 7309W        W23383   1.226   8.637  12.594 -0.0803  0.0263 -0.1023
 7310W        W23384  15.867   4.088  11.707 -0.3116 -0.0409  0.1336
 7311W        W23385  17.238   6.171  12.829 -0.0315  0.0858  0.0618
 7312W        W23386  16.065  13.307  13.014  0.1195  0.0952  0.0182
 7313W        W23387  13.479  11.608  13.154  0.1717  0.1564 -0.1425
 7314W        W23388   0.330   4.896   0.722 -0.0250  0.2286  0.1201
 7315W        W23389   4.138   4.381  15.412  0.0398  0.3948 -0.1835
 7316W        W23390  16.848  17.706   3.316 -0.1242  0.0307  0.0290
 7317W        W23391  12.700   2.087  14.443 -0.0262  0.0620  0.2356
 7318W        W23392   7.354   8.314  13.775 -0.0722  0.0284  0.3258
 7319W        W23393  11.171  11.732   4.124 -0.1552  0.0477 -0.0756
 7320W        W23394  10.885  17.996   1.924 -0.0120  0.3124 -0.0401
 7321W        W23395   8.130   7.499  13.325 -0.0347  0.5519  0.0094
 7322W        W23396   3.817   3.632   0.054 -0.0556 -0.2778  0.3042
 7323W        W23397  15.027  10.125   2.814 -0.1948  0.0624  0.0471
 7324W        W23398  15.017  11.292   0.384  0.1875  0.1809  0.2514
 7325W        W23399   1.812   5.941   3.648 -0.0427  0.0472  0.0537
 7326W        W23400  17.471  16.627   3.623  0.0282 -0.1426 -0.0666
 7327W        W23401   1.850   4.609   4.681 -0.2501  0.0858 -0.2152
 7328W        W23402  16.623  11.095   1.082 -0.1269  0.0010 -0.2345
 7329W        W23403  17.421   6.646  12.206  0.1626 -0.0893  0.2847
 7330W        W23404   0.411   5.936   0.522 -0.1016  0.5023  0.0485
 7331W        W23405  15.229   2.656  14.082  0.1915 -0.0870 -0.1162
 7332W        W23406   1.908  17.436   0.243  0.4225 -0.4083  0.0916
 7333W        W23407  15.802  12.939  14.690 -0.2069 -0.4696  0.1732
 7334W        W23408   7.809   1.350   5.323 -0.5282  0.0836  0.1026
 7335W        W23409   3.134   2.562  14.808 -0.4021 -0.0010 -0.0021
 7336W        W23410  14.515  17.829  12.991 -0.0232 -0.3027 -0.1186
 7337W        W23411   2.233   5.630   4.398 -0.0009 -0.0143  0.3790
 7338W        W23412   2.298  16.465  13.933  0.2625 -0.1641  0.1203
 7339W        W23413  11.992   6.407   2.622 -0.0569  0.2230 -0.0460
 7340W        W23414  15.116  13.126   5.525 -0.1940 -0.1698 -0.0287
 7341W        W23415  11.356   4.151   3.842  0.2661 -0.1227 -0.2228
 7342W        W23416   9.736   6.350   4.446  0.0768  0.0476  0.1113
 7343W        W23417  14.094   4.478   2.322  0.1414 -0.1440  0.1573
 7344W        W23418   9.669   2.578  14.181 -0.0447 -0.1617 -0.0966
 7345W        W23419   8.176   6.631  11.686 -0.1930  0.0290  0.0666
 7346W        W23420   5.154  17.927   2.498 -0.1712 -0.1084 -0.2540
 7347W        W23421  14.169  17.902   5.714 -0.0807 -0.0889 -0.0806
 7348W        W23422   2.200   4.519  13.035 -0.0952  0.2340  0.0720
 7349W        W23423   7.468   9.251   2.773 -0.0084 -0.0338  0.0116
 7350W        W23424  12.999  16.928  14.757 -0.0762 -0.1238  0.0938
 7351W        W23425   1.149  15.414   2.831 -0.0830  0.1822 -0.1945
 7352W        W23426   6.138  17.951   5.382 -0.1434 -0.0105  0.0057
 7353W        W23427   9.381   1.019   0.634 -0.0175  0.0767 -0.0647
 7354W        W23428   7.029   1.859   0.937 -0.0103 -0.0031  0.0264
 7355W        W23429  10.444   3.575  14.770  0.1879  0.3978  0.4147
 7356W        W23430   0.388   4.300  11.746  0.1999  0.1363  0.2334
 7357W        W23431  14.892  16.811   5.118 -0.0553 -0.1202 -0.1713
 7358W        W23432   7.752   4.186   0.671  0.2388 -0.2336 -0.2920
 7359W        W23433  12.062  15.839   5.196 -0.1236  0.1822  0.0516
 7360W        W23434  18.312   8.247  14.818 -0.0670 -0.1733 -0.0048
 7361W        W23435   7.876  13.568  11.758 -0.2937 -0.2554 -0.0866
 7362W        W23436   3.781  13.382   4.611 -0.1694 -0.0282 -0.0012
 7363W        W23437  14.264   0.787   3.704 -0.1577 -0.0307  0.3890
 7364W        W23438   2.972   9.096  13.819  0.1447  0.2455 -0.2366
 7365W        W23439   9.940  11.870  12.708  0.0478  0.0437  0.2594
 7366W        W23440   9.126   1.049   1.841 -0.1219  0.2473 -0.2376
 7367W        W23441   2.418  17.072   4.310 -0.3650  0.2203  0.0787
 7368W        W23442   4.436  15.369   1.366  0.2200  0.2368  0.0892
 7369W        W23443   6.888   1.595   3.382  0.0648 -0.1183 -0.0251
 7370W        W23444   4.499  16.274   1.088 -0.0609 -0.0281 -0.4026
 7371W        W23445   1.857  10.373   4.307  0.4487  0.2919 -0.0397
 7372W        W23446  15.296   1.602  14.396 -0.2024 -0.1600  0.0145
 7373W        W23447   5.072   9.471  14.219 -0.0720  0.2626  0.3814
 7374W        W23448  12.631   7.020  15.067 -0.3514  0.1280 -0.1451
 7375W        W23449  17.482   4.751   3.097 -0.0097  0.2391  0.2146
 7376W        W23450   9.096   0.181   0.168  0.1576  0.1517 -0.0465
 7377W        W23451  16.981   2.905   3.333 -0.0990  0.1298 -0.0203
 7378W        W23452  13.179   0.967   0.633 -0.4724  0.1284  0.1551
 7379W        W23453   0.331  17.782  12.769  0.1292 -0.0585  0.1332
 7380W        W23454   9.047  14.992  10.975  0.4119  0.1515  0.1012
 7381W        W23455   6.285   2.004  11.574 -0.1097  0.2466 -0.1916
 7382W        W23456  12.188   7.783   2.352  0.0933 -0.3260 -0.0650
 7383W        W23457  13.656  10.162   3.719 -0.1483 -0.0156 -0.2623
 7384W        W23458   5.211   9.030   4.647 -0.0794  0.1621  0.3676
 7385W        W23459   2.653   9.541   5.230 -0.3232 -0.1514 -0.0995
 7386W        W23460   1.402  15.192   1.494  0.0152  0.1485  0.2385
 7387W        W23461  14.412   6.048  14.988  0.0081 -0.0783 -0.1800
 7388W        W23462  15.355   3.693  11.178 -0.2721  0.0103 -0.2012
 7389W        W23463  12.300   0.437   2.754 -0.1626 -0.0259  0.2525
 7390W        W23464   3.446   1.324   2.926  0.2621  0.1067 -0.3910
 7391W        W23465  11.946   1.357  11.690  0.0085  0.1198 -0.1538
 7392W        W23466   5.875  15.361  16.332  0.1834 -0.0519  0.4797
 7393W        W23467  17.065   6.341   0.549  0.3693  0.1118  0.0558
 7394W        W23468  17.505  18.195   6.442  0.1086 -0.2427  0.6208
 7395W        W23469   1.583   0.069  15.180  0.3097 -0.0322 -0.1061
 7396W        W23470   7.363  11.245   2.973 -0.2666 -0.0035 -0.0196
 7397W        W23471   7.824   7.826   3.389  0.0058 -0.1387  0.0824
 7398W        W23472  12.821  17.376  12.978 -0.0623  0.0015 -0.3344
 7399W        W23473   2.335   7.205  14.017 -0.2408  0.1018 -0.1611
 7400W        W23474  16.748   0.128   4.003  0.1778  0.1141  0.1083
 7401W        W23475  17.936  14.878   1.415  0.0200 -0.1452 -0.2058
 7402W        W23476   2.231  11.850  15.086 -0.0850 -0.2400 -0.2255
 7403W        W23477   0.724  13.010  15.956  0.1378 -0.0691 -0.4124
 7404W        W23478   0.693  16.843   5.379  0.1003  0.1635 -0.1170
 7405W        W23479  16.061  14.372   0.708  0.2125 -0.3087 -0.1187
 7406W        W23480  14.435  13.595  14.357  0.1501  0.4266 -0.0616
 7407W        W23481   4.532  10.185  13.135  0.0615  0.2402 -0.0351
 7408W        W23482  14.326   8.185   1.045  0.0790 -0.2051  0.1036
 7409W        W23483  13.265   6.329  15.268 -0.0268 -0.0116  0.5121
 7410W        W23484   2.093  10.681  11.331  0.0154  0.0909  0.1875
 7411W        W23485  15.220   6.808  15.920  0.0525 -0.1575 -0.0712
 7412W        W23486   7.766  14.694   1.632 -0.3854  0.1328 -0.0403
 7413W        W23487   8.897  12.594  13.178  0.2450 -0.0820 -0.0724
 7414W        W23488  10.263   3.474   2.129  0.2832  0.0248 -0.0104
 7415W        W23489  16.790   0.684  14.347 -0.2011  0.1379 -0.0275
 7416W        W23490  13.349   9.591   2.977 -0.1347  0.3769  0.1026
 7417W        W23491   0.366  15.768   1.297 -0.0084 -0.0488  0.0973
 7418W        W23492   0.819   4.869   5.047 -0.3924 -0.1723  0.2247
 7419W        W23493   4.574   0.736  14.333 -0.2055 -0.1578 -0.0389
 7420W        W23494   3.147   2.643  15.841 -0.0518  0.0526  0.1209
 7421W        W23495   8.250  15.832  12.580 -0.1481 -0.2405  0.0766
 7422W        W23496   8.023   7.289   2.860 -0.0776 -0.1049 -0.3896
 7423W        W23497   8.989   3.243  12.955  0.2662 -0.0319 -0.0715
 7424W        W23498   1.515   1.977   2.812 -0.1465 -0.3384  0.0193
 7425W        W23499  13.646  17.478  13.206 -0.0739 -0.1619 -0.1134
 7426W        W23500   2.867  11.772   2.765  0.1967  0.0880 -0.2369
 7427W        W23501  12.053  10.114   2.248 -0.0371  0.2991 -0.0980
 7428W        W23502   2.325  14.013  12.269 -0.2817  0.1324  0.1079
 7429W        W23503  16.863  17.482  12.990 -0.0478 -0.1819  0.0090
 7430W        W23504  14.712   0.782   1.397  0.0888  0.1144 -0.0899
 7431W        W23505  12.802   3.548   2.414  0.3176 -0.1676  0.1867
 7432W        W23506   9.513  15.810   0.919 -0.2084 -0.1228 -0.0507
 7433W        W23507  17.499  12.155   2.379  0.0830 -0.0793 -0.3365
 7434W        W23508  18.223  16.437   4.545 -0.2854 -0.1497 -0.0250
 7435W        W23509   8.828   6.354   3.080  0.1674 -0.4267  0.0791
 7436W        W23510   7.929  15.641  13.368 -0.2481  0.0463 -0.1355
 7437W        W23511  10.565   7.205  15.883 -0.0311 -0.3697 -0.1676
 7438W        W23512   9.836   0.204   3.083  0.2834  0.1756  0.0893
 7439W        W23513   6.824   6.495   2.841 -0.2810 -0.0017  0.1361
 7440W        W23514  11.357   9.478   0.290  0.2248  0.1802  0.1364
 7441W        W23515   0.075   6.045   4.678  0.1532 -0.2539  0.0460
 7442W        W23516  12.451  16.966  15.529 -0.0604  0.0793 -0.0013
 7443W        W23517  16.097   6.970   1.462 -0.0122  0.0396 -0.2255
 7444W        W23518  14.459  13.520  16.382  0.1622  0.3140 -0.2534
 7445W        W23519  11.288   7.642  13.029 -0.1360 -0.1501  0.2954
 7446W        W23520   4.281  14.878   0.734 -0.3177 -0.1749  0.1453
 7447W        W23521  15.651   3.338  14.566 -0.1190 -0.0303  0.2795
 7448W        W23522   4.042   2.433   3.486  0.1893 -0.3638 -0.0750
 7449W        W23523  17.856   2.992   0.607  0.4347 -0.0336  0.0647
 7450W        W23524  13.673   3.867  16.153  0.1503  0.2713 -0.2449
 7451W        W23525  14.343  13.118  14.398 -0.3043  0.2414 -0.0206
 7452W        W23526   2.521  14.502   4.126  0.4776  0.3166  0.2738
 7453W        W23527   2.841   5.196   3.207 -0.1454 -0.1230  0.3673
 7454W        W23528   5.067   7.738  12.500 -0.0261  0.0822 -0.1908
 7455W        W23529  14.010   1.936  12.530  0.0519 -0.3340 -0.0716
 7456W        W23530   0.217   5.349   1.542 -0.0701 -0.0398  0.0003
 7457W        W23531   2.029  13.075  13.682  0.0711 -0.2952 -0.0321
 7458W        W23532  13.103   4.419  11.795  0.3193  0.1911  0.2093
 7459W        W23533   3.480  12.015   3.329 -0.3032  0.0832  0.2390
 7460W        W23534  14.897   9.836  15.869 -0.2949  0.4037 -0.0695
 7461W        W23535   9.140  14.478  12.282 -0.1358 -0.0910 -0.2879
 7462W        W23536  17.627  10.038   1.897  0.1914  0.0684 -0.0646
 7463W        W23537  11.174   1.350  11.043 -0.1489  0.0831 -0.1347
 7464W        W23538  11.686  11.306  15.287  0.2460  0.0903 -0.0288
 7465W        W23539   0.318   4.493  13.919  0.1181  0.0584 -0.0672
 7466W        W23540   8.386  12.574   3.566 -0.1802 -0.1379 -0.3959
 7467W        W23541   1.444  17.793  14.556  0.1809 -0.0268 -0.2105
 7468W        W23542  17.849   4.641  15.368  0.1251 -0.1219  0.2071
 7469W        W23543  14.215   9.332   1.841  0.0131 -0.1555  0.5048
 7470W        W23544  13.577   8.016  11.378  0.0269  0.0463 -0.0110
 7471W        W23545   1.503   3.186   0.669  0.1791  0.0052  0.1411
 7472W        W23546   1.545   7.965   3.014 -0.2370 -0.1714  0.3064
 7473W        W23547  17.949  10.056  11.790 -0.0222  0.0121 -0.5067
 7474W        W23548  16.715  10.725  15.647 -0.0502 -0.1009  0.2687
 7475W        W23549   0.618  16.015   5.162 -0.0241  0.0889  0.1074
 7476W        W23550  17.181   0.884  13.486 -0.0516 -0.2937 -0.1326
 7477W        W23551  11.606  16.670   5.325  0.2615  0.0544 -0.1165
 7478W        W23552   5.047   8.083  13.291  0.2031 -0.3970 -0.0391
 7479W        W23553   2.678   1.117   3.869  0.0261 -0.0831  0.2167
 7480W        W23554  14.114   0.560   0.245  0.0774 -0.1399 -0.2279
 7481W        W23555  14.235   9.281  14.279  0.1539  0.0242  0.1622
 7482W        W23556   5.404  14.684   0.741  0.1026 -0.3243  0.1439
 7483W        W23557   1.964  12.638  12.213 -0.0531 -0.1041  0.0501
 7484W        W23558   2.792  16.070   3.693 -0.0456  0.1242  0.1604
 7485W        W23559  15.369   1.933   4.625 -0.1950 -0.0039  0.0717
 7486W        W23560   2.058   9.383   5.423 -0.0181 -0.0926  0.1559
 7487W        W23561   0.532  16.921   2.371  0.0698  0.1169 -0.0044
 7488W        W23562   4.915   6.380   1.624 -0.0620  0.0083 -0.0724
 7489W        W23563   0.042   7.095  15.090 -0.3170 -0.3185 -0.1571
 7490W        W23564   0.966  14.168  11.308  0.2145 -0.0636  0.2182
 7491W        W23565  17.131  12.412   0.809 -0.3498 -0.1779  0.2265
 7492W        W23566  17.717   7.881   5.742  0.2332 -0.2356 -0.0059
 7493W        W23567   0.435   1.274  16.041 -0.1547 -0.0958  0.0240
 7494W        W23568   2.832   3.841  12.574 -0.1178 -0.1895 -0.2305
 7495W        W23569   1.363   8.700  13.292 -0.1942  0.1753  0.1471
 7496W        W23570   1.094   5.689  13.704 -0.0822  0.1928  0.0064
 7497W        W23571   9.802  11.558  11.234  0.0253 -0.2737  0.0513
 7498W        W23572  12.723   1.514  15.226  0.2809 -0.3280  0.0283
 7499W        W23573   4.466   9.424  15.907 -0.0519  0.1337  0.0153
 7500W        W23574  10.307  17.007  12.746 -0.2137  0.0661  0.0140
 7501W        W23575  11.691  13.446  12.159  0.2269  0.0422 -0.0823
 7502W        W23576  15.126  12.060  13.184  0.0889 -0.2915 -0.0181
 7503W        W23577  13.866  16.921  14.952  0.1614 -0.1339 -0.2034
 7504W        W23578   5.874   6.437  13.918 -0.2517 -0.2555 -0.0226
 7505W        W23579   4.162   6.933   5.376  0.1501 -0.0901 -0.0063
 7506W        W23580   0.342  12.328   2.219  0.0626 -0.0765 -0.4280
 7507W        W23581   7.075   5.190  12.808  0.0681 -0.0008 -0.2790
 7508W        W23582  11.133  13.134   5.476 -0.0033  0.0701 -0.0738
 7509W        W23583   2.067   2.603  15.550  0.0925 -0.1045  0.1543
 7510W        W23584  13.702  14.274  13.881 -0.1997  0.1892  0.0417
 7511W        W23585   7.247  13.760  15.410  0.0893  0.3289  0.0930
 7512W        W23586   6.211   7.342  14.209 -0.1101  0.3597 -0.1022
 7513W        W23587   9.782   6.649   3.443  0.6110  0.0198 -0.1293
 7514W        W23588   0.245  13.654   4.363  0.0553  0.0235  0.0802
 7515W        W23589  17.388   4.517   1.689  0.0185 -0.0875  0.0044
 7516W        W23590  14.187   5.200   4.650 -0.0811 -0.2732  0.0818
 7517W        W23591   7.105   1.962   4.905  0.2159  0.1268 -0.2025
 7518W        W23592  17.626   6.145  14.653  0.0707 -0.2118  0.0569
 7519W        W23593  18.120   3.878   4.208 -0.1387 -0.0185 -0.0738
 7520W        W23594   4.183  13.099  14.270 -0.1310 -0.3355 -0.0403
 7521W        W23595  10.286  16.078  12.259 -0.0587 -0.0011 -0.1606
 7522W        W23596   2.790  13.277  11.852  0.0591  0.1408  0.0939
 7523W        W23597  14.975   0.190  13.501 -0.0704 -0.4125 -0.1598
 7524W        W23598  13.304  17.426  16.096  0.2109  0.2541  0.1214
 7525W        W23599  17.437   1.317   4.339 -0.3408  0.0492  0.0851
 7526W        W23600   8.491  12.269  15.553  0.0995  0.0604  0.3432
 7527W        W23601  12.290   4.380   2.394 -0.1612 -0.3574 -0.0249
 7528W        W23602   1.660  15.731   3.747  0.1372  0.0729 -0.0176
 7529W        W23603  14.548   3.649   5.167  0.0551  0.1694 -0.2219
 7530W        W23604  18.151  12.257   2.191 -0.1243 -0.0911 -0.0704
 7531W        W23605   2.557   1.180   3.349  0.3495  0.0848 -0.0057
 7532W        W23606  11.982  18.261  13.111  0.1779  0.2005  0.1372
 7533W        W23607  11.849   2.954  12.899 -0.2556 -0.1682  0.0137
 7534W        W23608  12.087  15.768  16.032 -0.3232  0.0092  0.1417
 7535W        W23609  17.080  15.149   2.222 -0.2429 -0.2509 -0.3005
 7536W        W23610   2.796  16.612  12.642  0.3815 -0.2089 -0.2389
 7537W        W23611   3.537   5.505  14.124 -0.0312 -0.3720  0.1441
 7538W        W23612  17.586   6.438  15.857 -0.0016  0.1447 -0.4138
 7539W        W23613   3.832   7.825   2.881  0.0251 -0.1478 -0.0614
 7540W        W23614  17.602  12.840   2.646  0.2739 -0.0906 -0.1223
 7541W        W23615  16.035  10.617  14.682  0.3822  0.0673  0.0240
 7542W        W23616   3.283  13.910   5.620 -0.0488 -0.2735 -0.0816
 7543W        W23617   0.337  10.180   1.717  0.2358 -0.2278 -0.3300
 7544W        W23618   7.222  18.094   2.546 -0.0428 -0.0742  0.4729
 7545W        W23619  11.363  14.154  12.643 -0.0991 -0.0129 -0.3433
 7546W        W23620   7.271  14.972   3.778  0.4446 -0.0133 -0.1759
 7547W        W23621  16.775  12.255   1.259 -0.2199  0.4213  0.0247
 7548W        W23622  14.772   7.894  14.791  0.0176 -0.2092 -0.0801
 7549W        W23623  10.811  11.720  15.053  0.0799  0.1268  0.2453
 7550W        W23624   6.814   7.710   4.755  0.0515 -0.0324  0.0490
 7551W        W23625  13.111  17.247  15.168 -0.1305 -0.1157  0.0615
 7552W        W23626   4.849   8.640  11.200 -0.3389 -0.1017 -0.3466
 7553W        W23627   8.083   5.004   1.089 -0.3470  0.1271  0.1270
 7554W        W23628   8.140   6.599   5.045  0.0008  0.1323 -0.0041
 7555W        W23629  17.253  12.924  15.961 -0.1183 -0.1601 -0.0615
 7556W        W23630   3.519  14.534   0.454  0.2263  0.0632  0.0815
 7557W        W23631   3.202  17.369   0.230 -0.1545  0.0001  0.2669
 7558W        W23632   9.852  17.280   2.324  0.1048 -0.3891  0.2160
 7559W        W23633  17.982  17.389   3.401  0.1305  0.1068  0.1800
 7560W        W23634   4.224   1.911  12.229  0.1401  0.0029 -0.0710
 7561W        W23635   0.182   8.422   4.806  0.1499  0.0059 -0.0716
 7562W        W23636   0.847   3.529   1.553  0.1563 -0.1637  0.1544
 7563W        W23637  14.308   0.469   2.608 -0.1306  0.2022  0.1337
 7564W        W23638  14.912   1.968  12.737  0.1734  0.1354 -0.2766
 7565W        W23639   2.802   1.874  16.373 -0.0020 -0.2165 -0.0370
 7566W        W23640   9.240  12.265  13.304 -0.1209  0.1526 -0.2474
 7567W        W23641   4.795  15.268   3.839  0.1241 -0.0249 -0.0382
 7568W        W23642   1.158   2.279   3.035 -0.0765  0.2549  0.1236
 7569W        W23643  10.128   1.995   3.027 -0.2942 -0.0978 -0.1651
 7570W        W23644   1.282  13.361   5.053  0.0727  0.3740  0.0764
 7571W        W23645   6.981  16.906   2.571  0.1723  0.2348  0.1659
 7572W        W23646   2.692   4.074   2.130 -0.2135 -0.0636  0.2081
 7573W        W23647  15.608  16.766  15.085 -0.1650 -0.1130 -0.2422
 7574W        W23648  11.847   7.346  13.030 -0.0732 -0.3576 -0.0902
 7575W        W23649  13.807   5.846   5.272 -0.2411 -0.0932 -0.2867
 7576W        W23650   0.091   1.280   2.101 -0.0763  0.5609 -0.3902
 7577W        W23651  12.920   9.697  11.030 -0.2513  0.1529  0.0647
 7578W        W23652   7.570  11.792   0.114 -0.1791 -0.0099  0.0494
 7579W        W23653   9.026   4.239  15.983  0.2995 -0.1054 -0.2933
 7580W        W23654   7.310   5.215  10.967  0.1650 -0.3285 -0.0337
 7581W        W23655  12.083   3.118  12.457  0.0746 -0.3849  0.0896
 7582W        W23656   4.813  10.722   3.719 -0.1309 -0.0877  0.1483
 7583W        W23657   0.942  13.809   1.505 -0.0328  0.0036  0.1641
 7584W        W23658  10.989  10.960   0.518  0.4193 -0.0893  0.0818
 7585W        W23659   7.552   4.832  11.390 -0.0930  0.1494 -0.2530
 7586W        W23660  14.434   8.777   1.101 -0.0800 -0.1657  0.1169
 7587W        W23661   8.811   9.895  13.647 -0.0485 -0.0297 -0.3246
 7588W        W23662   3.032   3.118  11.426  0.2235  0.0972 -0.0694
 7589W        W23663   9.174  15.384  13.579  0.1614 -0.2451  0.0751
 7590W        W23664  15.658  15.777   5.576 -0.3277 -0.2760  0.0741
 7591W        W23665   8.552   5.045  13.897  0.2769  0.0551  0.3263
 7592W        W23666  17.881   5.905   4.734  0.0335  0.3481  0.1669
 7593W        W23667  10.042   2.183  15.986 -0.1586 -0.4034 -0.4762
 7594W        W23668   4.088   6.158  12.937  0.0163  0.0195 -0.0427
 7595W        W23669   5.571   7.759  13.471 -0.0821  0.0462 -0.1567
 7596W        W23670  12.636   1.863   2.825  0.0611 -0.1076  0.3837
 7597W        W23671  13.862   5.457  15.654  0.2901 -0.1550  0.2259
 7598W        W23672   2.101  17.624   2.696  0.0757  0.1189  0.1353
 7599W        W23673  11.394   1.707   2.656 -0.0013  0.2479 -0.0260
 7600W        W23674  17.582   4.105   1.945 -0.2282 -0.2375 -0.0496
 7601W        W23675   1.892  11.170  12.507 -0.0039  0.0325  0.2640
 7602W        W23676   0.930   6.055  12.789  0.0495 -0.1713 -0.1485
 7603W        W23677   7.311  11.780  11.808  0.0118 -0.1495  0.2810
 7604W        W23678  16.741  13.199   4.813 -0.2111  0.3112  0.3457
 7605W        W23679  15.905  12.224   0.004  0.1536  0.4268 -0.1385
 7606W        W23680  16.201  15.108   2.901 -0.1143 -0.1821 -0.1964
 7607W        W23681   0.664  17.299   2.012 -0.0035  0.1230 -0.1270
 7608W        W23682   5.987   0.702  13.753 -0.3537 -0.0241 -0.2021
 7609W        W23683   0.498  14.953  15.524 -0.1057  0.0474 -0.2144
 7610W        W23684   7.728  11.638  11.591  0.1267 -0.1568  0.0701
 7611W        W23685   4.136   8.325   1.752  0.1990 -0.0035 -0.0262
 7612W        W23686  14.259  13.651   0.775 -0.0827  0.0881 -0.2360
 7613W        W23687   0.914  15.534   4.349  0.2358 -0.1150 -0.2460
 7614W        W23688   0.444  11.211  13.589  0.0302  0.1834  0.0439
 7615W        W23689   6.541   1.725   0.766 -0.2400 -0.0629 -0.3009
 7616W        W23690  16.822  11.188   3.880  0.0713  0.4358 -0.0273
 7617W        W23691  15.979  12.486   3.599  0.0550  0.2771  0.1129
 7618W        W23692   6.014  15.293   4.874 -0.2603 -0.1516 -0.0871
 7619W        W23693  10.374  15.566   4.584 -0.1716 -0.2035 -0.0188
 7620W        W23694  17.198   9.788  11.488  0.0349 -0.0446  0.0173
 7621W        W23695   1.680  15.220   3.449  0.0462  0.0766  0.0194
 7622W        W23696   6.270   8.369   0.051  0.1244  0.0108 -0.2745
 7623W        W23697   1.381   2.485  14.838  0.2824  0.0116  0.0513
 7624W        W23698  10.345  16.647  15.214 -0.1767 -0.1559 -0.0760
 7625W        W23699  11.073  10.229   0.955  0.0675 -0.1242  0.1726
 7626W        W23700   3.078  15.861   4.036  0.0694 -0.0674  0.0761
 7627W        W23701   9.841   6.862   2.428  0.2577  0.0372  0.0099
 7628W        W23702  13.706   7.622   0.463 -0.1374  0.4463  0.0551
 7629W        W23703  11.324  15.322   4.917  0.2652 -0.0569  0.0651
 7630W        W23704  16.045   4.263   1.392  0.0196  0.2821 -0.0837
 7631W        W23705  13.701   0.076   2.936  0.0158 -0.0196  0.1062
 7632W        W23706  10.556   8.933   1.226 -0.0248  0.0821  0.0133
 7633W        W23707   3.284  14.444   2.805  0.4070 -0.1779  0.1731
 7634W        W23708  14.231  16.289   3.877  0.2210 -0.2963  0.2405
 7635W        W23709  12.984   2.839   5.173 -0.1068  0.1144 -0.1165
 7636W        W23710   7.732  15.691   1.083  0.0839 -0.0267  0.1953
 7637W        W23711   7.100  12.255   1.483  0.0463 -0.2472 -0.1846
 7638W        W23712   2.355   5.150  14.246  0.0409 -0.2525  0.1267
 7639W        W23713  15.294   2.355   2.866 -0.2526  0.0744 -0.1035
 7640W        W23714   2.488   9.306  11.565 -0.1051 -0.0687 -0.3848
 7641W        W23715   2.795  17.337  16.312  0.1415  0.0812  0.2182
 7642W        W23716   9.926   6.183   3.419 -0.1792  0.0202 -0.0493
 7643W        W23717  10.550  12.077   1.810 -0.0042 -0.1183 -0.0220
 7644W        W23718  11.836  18.127   1.560  0.1301  0.3910  0.1024
 7645W        W23719   0.867   7.254   4.006 -0.0420 -0.0680  0.1976
 7646W        W23720  16.502  11.597  13.189 -0.2606 -0.0068 -0.3803
 7647W        W23721  10.653   6.140   1.413 -0.0248 -0.0409  0.1621
 7648W        W23722   7.752  11.091  13.090 -0.0134 -0.0164  0.1479
 7649W        W23723   5.306   4.815  12.218 -0.0892 -0.1189 -0.1147
 7650W        W23724   9.564  13.900  15.783  0.1260  0.0905  0.1143
 7651W        W23725   6.893   4.127  12.824 -0.2038  0.3367 -0.1016
 7652W        W23726   8.786   2.441   3.574  0.3371  0.1274 -0.0382
 7653W        W23727   1.368  12.971  13.865  0.0131 -0.3978 -0.0618
 7654W        W23728  14.043  15.476   2.340 -0.0838  0.1042 -0.0256
 7655W        W23729  16.967  16.174   3.727  0.0764  0.1474 -0.1354
 7656W        W23730   6.096   9.102  10.990  0.1586 -0.2171  0.1036
 7657W        W23731   2.779   1.351  14.902 -0.0008 -0.1721  0.0059
 7658W        W23732  10.335   7.576  15.287 -0.1696 -0.2466  0.0917
 7659W        W23733  13.153   7.917  12.479 -0.0100  0.0441 -0.2038
 7660W        W23734   1.891  17.964  13.842  0.1606  0.3416  0.2798
 7661W        W23735  10.409   5.469   5.519 -0.2103 -0.1115  0.1167
 7662W        W23736  16.918  11.521  11.023 -0.0356 -0.1462 -0.2894
 7663W        W23737   7.903  11.905   4.990 -0.1147  0.3526 -0.1238
 7664W        W23738   8.078  10.356  14.521  0.1647  0.2549  0.1382
 7665W        W23739   5.046   9.542   2.016 -0.3108 -0.1094 -0.1436
 7666W        W23740  15.955  16.715  14.387  0.1717 -0.2125  0.0529
 7667W        W23741   1.906   6.129  12.499 -0.2458 -0.0534  0.1695
 7668W        W23742  14.451   3.275  12.061  0.0215 -0.0751  0.0032
 7669W        W23743  14.375  17.767   1.276 -0.0930 -0.2136 -0.1708
 7670W        W23744   9.616  14.474  15.986  0.2388  0.0129 -0.2877
 7671W        W23745  17.933   2.752  15.885  0.2864  0.2633  0.1971
 7672W        W23746  16.474  17.824  15.160  0.1323 -0.1390 -0.1354
 7673W        W23747   3.714  18.167  14.895  0.0681  0.0860  0.3373
 7674W        W23748   7.642   5.420  15.512 -0.0962  0.1929 -0.1939
 7675W        W23749  17.860   2.434   2.316 -0.2249  0.0682  0.0882
 7676W        W23750  17.709   9.048  11.300  0.1240 -0.1007 -0.2509
 7677W        W23751   8.555  17.103   0.363  0.0059  0.1089 -0.2469
 7678W        W23752  10.871   7.471  11.747  0.0246  0.2663  0.0199
 7679W        W23753  10.985   7.384  12.751  0.1554 -0.1191  0.2778
 7680W        W23754  10.327  14.574  13.554 -0.1479  0.1262  0.2767
 7681W        W23755  16.681   9.955   2.882  0.1727 -0.2411  0.1646
 7682W        W23756  15.565   5.798  12.922  0.0802  0.1217 -0.0275
 7683W        W23757  17.414  16.699   1.156  0.1835  0.3669  0.3145
 7684W        W23758   7.140   6.410  13.854  0.2522 -0.0664  0.0391
 7685W        W23759   7.160   1.036  11.295  0.3773 -0.1109  0.3607
 7686W        W23760   2.460  15.436   0.324  0.1097 -0.2775  0.2143
 7687W        W23761  12.475   3.537   9.831  0.0648  0.0342  0.3381
 7688W        W23762   2.354   6.588   2.981 -0.0111 -0.1200  0.0471
 7689W        W23763   3.862  13.715   0.512 -0.1246 -0.1183  0.0190
 7690W        W23764   4.386  13.076   1.102 -0.0879  0.0479 -0.1929
 7691W        W23765   6.470  10.318   0.721 -0.0222  0.1069 -0.2636
 7692W        W23766   4.581  17.428   1.900  0.2402 -0.0145 -0.0825
 7693W        W23767   8.021   1.640  12.892  0.0281 -0.0952 -0.0122
 7694W        W23768  15.842   5.993   1.836 -0.1225 -0.0022 -0.0419
 7695W        W23769  17.967   6.526   2.278 -0.0120 -0.3524 -0.0516
 7696W        W23770   5.806  11.506   2.571  0.2383 -0.0327  0.1412
 7697W        W23771  18.057   0.189   0.417 -0.1029  0.2405  0.0515
 7698W        W23772  12.538   3.396   1.585  0.1465 -0.0929 -0.2346
 7699W        W23773  13.806  11.388  15.081 -0.0818  0.1804  0.2774
 7700W        W23774  17.923   7.272   1.034 -0.1486  0.3074  0.0922
 7701W        W23775  16.498   0.462   5.573  0.0118  0.0042  0.2034
 7702W        W23776   4.381  14.389   0.734 -0.2958 -0.1423  0.4045
 7703W        W23777  11.580  10.436  12.411  0.0747  0.1314  0.1278
 7704W        W23778  12.274   0.122  10.023 -0.2581  0.2639  0.1302
 7705W        W23779  17.510   4.239  11.756  0.0514  0.0561 -0.1002
 7706W        W23780  10.179  15.403   4.125  0.3103  0.0360 -0.0930
 7707W        W23781  10.395   7.533   1.938  0.1155  0.0686 -0.3387
 7708W        W23782  17.695   6.737   1.312 -0.1772 -0.1874 -0.1090
 7709W        W23783   3.762  14.214   3.705  0.0133  0.2769 -0.1552
 7710W        W23784  13.100  15.200  15.527  0.5209 -0.3146 -0.0287
 7711W        W23785  13.429   0.931  14.731 -0.0935 -0.1362  0.2376
 7712W        W23786   6.731  15.483   3.332 -0.1596  0.2514  0.1249
 7713W        W23787   7.124   1.548   1.979 -0.0418 -0.0786  0.2864
 7714W        W23788   4.465   9.812  13.717 -0.0334 -0.0633  0.2002
 7715W        W23789   5.651  17.243   2.136  0.0609 -0.3526 -0.2462
 7716W        W23790  11.454   4.568  16.366 -0.0929 -0.1493 -0.0573
 7717W        W23791  11.705   4.297  11.922 -0.0124 -0.1946  0.1481
 7718W        W23792  12.909   2.800  14.489 -0.4393 -0.2116  0.0184
 7719W        W23793  14.184   7.102   5.393  0.3758  0.2957  0.2401
 7720W        W23794  15.654  10.382  14.961 -0.1612 -0.2737 -0.0924
 7721W        W23795  11.301  12.380   5.335 -0.1264 -0.0611  0.2131
 7722W        W23796   9.942   5.299   1.015 -0.1712 -0.0929  0.0583
 7723W        W23797   4.068   5.364   0.676 -0.0500  0.0623  0.2158
 7724W        W23798  13.890   1.813   5.743 -0.0696 -0.0578  0.0424
 7725W        W23799   9.967  10.129  14.918 -0.2092 -0.0921 -0.1962
 7726W        W23800   4.030   4.678   3.918 -0.1254 -0.0391 -0.0968
 7727W        W23801   7.058  14.072  13.307 -0.1588 -0.1554 -0.2449
 7728W        W23802  15.663  16.507  12.619 -0.1402  0.2445 -0.3791
 7729W        W23803   2.365   1.661   5.959 -0.2319  0.3794 -0.1631
 7730W        W23804  17.417  10.151  11.761  0.0624 -0.1629 -0.0683
 7731W        W23805  18.112   2.396   3.936  0.1956  0.1345  0.0177
 7732W        W23806   3.493  17.331  11.998 -0.0220  0.0920 -0.0628
 7733W        W23807  17.134  15.500  11.723  0.1900 -0.3688  0.1918
 7734W        W23808   7.581  13.179   1.771  0.0789  0.1567 -0.0254
 7735W        W23809  17.794   2.371   5.048  0.0048 -0.0546 -0.1458
 7736W        W23810   3.800   8.887  15.917 -0.1853 -0.1326 -0.2267
 7737W        W23811  13.128  15.146  16.030 -0.0820 -0.0588 -0.0441
 7738W        W23812  11.987   2.229  14.550 -0.1989  0.0189 -0.1701
 7739W        W23813   1.276   4.348  14.937  0.1772 -0.1643  0.0232
 7740W        W23814  15.495   8.594   4.719  0.0485  0.0432 -0.0569
 7741W        W23815   9.142   6.441   2.657 -0.1839 -0.1558  0.3513
 7742W        W23816   4.311  12.673   3.968  0.2588  0.3894 -0.1154
 7743W        W23817  13.067   1.670   3.075 -0.0984  0.0987  0.1434
 7744W        W23818   5.091   5.598   5.948  0.0833 -0.1085  0.5269
 7745W        W23819   6.572  13.185   3.202  0.1205  0.3181 -0.2407
 7746W        W23820   6.182  11.357   2.256  0.2046  0.2276  0.0330
 7747W        W23821  12.571  11.333  15.220 -0.0107  0.2144  0.1868
 7748W        W23822  15.554  10.016   3.502 -0.1188  0.0296 -0.1102
 7749W        W23823   4.763   2.867  16.214  0.4230 -0.3266 -0.2067
 7750W        W23824  14.812   2.217  14.732 -0.0336 -0.1457  0.0453
 7751W        W23825  16.154  13.708  16.354 -0.1966 -0.1900  0.1018
 7752W        W23826  15.865  13.930  14.537  0.0464 -0.0280  0.1679
 7753W        W23827  17.687   7.690  14.622 -0.1150  0.0973 -0.3885
 7754W        W23828   6.242  17.086  12.249  0.0790 -0.1047  0.5343
 7755W        W23829   7.649   1.262   0.817  0.2459 -0.0368  0.2518
 7756W        W23830  13.038  17.495   2.007  0.2053 -0.0589 -0.1215
 7757W        W23831   4.649   6.236   1.074 -0.0693  0.2757 -0.0468
 7758W        W23832  12.990  16.951  16.254 -0.0027  0.0979 -0.1668
 7759W        W23833  11.208   5.874  14.022  0.3090  0.3115  0.1942
 7760W        W23834  15.813  13.031   1.783 -0.2595  0.3174 -0.1454
 7761W        W23835   4.069  12.825  15.013 -0.3055  0.1105 -0.1055
 7762W        W23836   0.238   5.275   6.319 -0.0114  0.0544  0.0482
 7763W        W23837   1.868  14.076   0.021  0.3253  0.2147 -0.0105
 7764W        W23838  11.162   6.398  13.889  0.0131 -0.0835  0.1507
 7765W        W23839  13.806   8.783   1.601 -0.2643  0.1302  0.2746
 7766W        W23840  13.432  14.104  13.470 -0.2284 -0.1570  0.0566
 7767W        W23841   4.868  16.827  13.992  0.0148 -0.0633  0.0780
 7768W        W23842   0.082  18.105   2.851 -0.0640  0.1268  0.0058
 7769W        W23843   0.899   9.815  14.779 -0.0846 -0.1133 -0.0119
 7770W        W23844   9.840   0.747  10.974 -0.1290 -0.3238 -0.2189
 7771W        W23845  12.061  10.774  12.124  0.1511 -0.0544  0.2399
 7772W        W23846   2.221   5.673  13.445  0.1962  0.0443  0.0572
 7773W        W23847  16.486   7.686   5.032 -0.2342 -0.1280  0.1971
 7774W        W23848  15.651  11.382  12.281 -0.0850  0.0831 -0.1108
 7775W        W23849  11.300  16.047   2.731 -0.2430 -0.3603  0.2367
 7776W        W23850   9.716   3.504   2.235 -0.2946 -0.2493  0.3263
 7777W        W23851   5.338   2.240  15.897 -0.0231 -0.2464  0.2634
 7778W        W23852  11.766  12.876  12.118  0.0363  0.1230 -0.1176
 7779W        W23853  16.705   5.008  16.225  0.0053 -0.1337 -0.0092
 7780W        W23854   1.838  16.084  13.037 -0.0495 -0.3912 -0.2984
 7781W        W23855   2.851  12.359   1.940 -0.0586  0.2414  0.0139
 7782W        W23856   6.670  11.658   4.752 -0.1454  0.0004 -0.0624
 7783W        W23857  10.595   9.087  11.545 -0.0810  0.1376  0.0035
 7784W        W23858   8.061  13.607  14.991  0.0870  0.3872  0.1934
 7785W        W23859  15.258   3.577  14.236  0.0499 -0.0098 -0.3100
 7786W        W23860  16.637  13.419  14.041  0.0199  0.1891 -0.1931
 7787W        W23861  12.461  17.586  15.593 -0.1823  0.1814  0.0991
 7788W        W23862  15.278   9.460   4.231  0.2556  0.0474 -0.3189
 7789W        W23863  11.239   2.510   4.324  0.0049 -0.0580 -0.2106
 7790W        W23864  16.749  13.470  14.578 -0.1376 -0.0763  0.0461
 7791W        W23865  16.899   3.545  12.129  0.2808 -0.1130 -0.2936
 7792W        W23866   2.848  16.859   4.168  0.2002  0.1653  0.1310
 7793W        W23867   5.532   0.914   4.074  0.1871 -0.2122  0.0184
 7794W        W23868  15.526  10.529   0.030 -0.0566  0.0998  0.4182
 7795W        W23869   4.969   3.650   5.525  0.2146  0.1618  0.1507
 7796W        W23870   1.789   5.489   4.636 -0.2807  0.0600  0.1894
 7797W        W23871   8.022   2.819   0.663 -0.0466  0.0502  0.1391
 7798W        W23872  16.993  16.251   1.483 -0.0545 -0.0748  0.1437
 7799W        W23873  10.613  15.341   3.776 -0.1941  0.0864  0.0189
 7800W        W23874   7.865  12.801  13.334  0.2481 -0.0499  0.0168
 7801W        W23875   1.194   7.042  14.871 -0.0129  0.0667 -0.3469
 7802W        W23876  13.044  11.796  11.609  0.1608  0.0234  0.1612
 7803W        W23877   1.171   5.360  15.344  0.4370  0.3590 -0.2807
 7804W        W23878   9.644   5.005  13.797  0.2129 -0.0492  0.1832
 7805W        W23879   6.713  10.079  12.611  0.2445  0.2959  0.2250
 7806W        W23880  10.831   4.343  11.362  0.2318  0.0345 -0.0501
 7807W        W23881   8.087   3.744  16.209 -0.0876 -0.6054 -0.2392
 7808W        W23882  18.133  15.044   2.276 -0.0302  0.1190 -0.1354
 7809W        W23883  16.764   4.064   0.930  0.3830  0.1866 -0.1406
 7810W        W23884  17.269   0.294  15.360  0.2218 -0.1657 -0.3140
 7811W        W23885   9.458  15.520  12.567 -0.2421  0.0382  0.1209
 7812W        W23886  17.752   8.368   5.840  0.2597  0.0303  0.1241
 7813W        W23887  16.566  12.840   3.246  0.0066  0.0199  0.1745
 7814W        W23888   5.992  11.292   4.205 -0.2221 -0.0671 -0.1541
 7815W        W23889  16.943   5.417   2.989 -0.0648 -0.0927 -0.1233
 7816W        W23890   1.320  13.436  14.429  0.1544  0.0525 -0.0113
 7817W        W23891   7.797   2.094  14.884 -0.1839  0.2890  0.1289
 7818W        W23892   6.459   0.843   0.130  0.0892 -0.0681 -0.1215
 7819W        W23893  12.563  17.094  11.847 -0.0009 -0.2148  0.0867
 7820W        W23894   5.712   4.352  11.948  0.1300 -0.1030  0.0324
 7821W        W23895  10.916   4.861  13.308  0.0920 -0.0324 -0.0581
 7822W        W23896   7.796   3.528  12.419 -0.0955  0.1803  0.1034
 7823W        W23897  13.560   0.116   1.970 -0.1785  0.2351 -0.1588
 7824W        W23898   0.493  16.347  15.699 -0.0426  0.2632  0.2887
 7825W        W23899   7.900  16.707  14.216 -0.4097  0.1805  0.0131
 7826W        W23900  11.863  16.865  14.998 -0.2391  0.1877 -0.0954
 7827W        W23901  13.014  11.161   5.413  0.2839 -0.1998 -0.1666
 7828W        W23902   3.392  14.887  16.047  0.1731 -0.2101  0.2433
 7829W        W23903  16.330   8.429  14.334  0.1164  0.0008  0.2169
 7830W        W23904  16.568  15.902   0.105 -0.2282 -0.1316 -0.0002
 7831W        W23905   3.861   8.825   0.215  0.2028 -0.1521 -0.0302
 7832W        W23906   8.439   5.499  15.629 -0.2316 -0.1338  0.1164
 7833W        W23907   9.772  14.496  12.882  0.0852  0.1099 -0.2393
 7834W        W23908  11.561  18.164   0.094  0.1435  0.2059  0.0741
 7835W        W23909  13.928  11.343   5.353  0.1654 -0.2222  0.0716
 7836W        W23910   7.019   9.519   3.131  0.0062  0.1377 -0.1229
 7837W        W23911  13.450   0.588   2.862 -0.1398 -0.5572 -0.1827
 7838W        W23912  14.806  16.308   5.092 -0.1305 -0.1929 -0.0231
 7839W        W23913   0.949  11.152   4.885 -0.0292 -0.2886 -0.0055
 7840W        W23914   3.014   5.763   2.514 -0.0690  0.0029 -0.0330
 7841W        W23915  14.365  15.610   3.045  0.1118 -0.1185  0.0511
 7842W        W23916  14.624   1.555   5.327  0.1070  0.0222 -0.3777
 7843W        W23917   8.957   9.410  13.506 -0.0877 -0.1417 -0.0834
 7844W        W23918   8.433   6.472  13.700 -0.1025 -0.1395  0.1215
 7845W        W23919  16.119   5.099  14.992  0.1020  0.0128  0.0565
 7846W        W23920   2.374   4.273   4.494  0.1110 -0.0794  0.0931
 7847W        W23921  16.698  14.404  13.706 -0.0187  0.1311 -0.1142
 7848W        W23922   5.852   7.518   1.014  0.0959 -0.0312 -0.0469
 7849W        W23923  17.420  10.540   3.242  0.2740  0.1057 -0.2071
 7850W        W23924  11.173  16.288  14.569  0.0099  0.0598 -0.1121
 7851W        W23925   4.397   4.783  12.793 -0.0791 -0.3546 -0.2181
 7852W        W23926   4.561  13.111   3.999  0.1416  0.1025 -0.2581
 7853W        W23927  11.707   3.535   5.183  0.1216  0.0174  0.1713
 7854W        W23928   9.380  14.703  12.715  0.0415 -0.0356  0.3173
 7855W        W23929  11.166   9.299  11.689 -0.3334 -0.1771 -0.1225
 7856W        W23930   6.678   6.032  15.398  0.3400  0.0470 -0.0765
 7857W        W23931   2.801  10.375  12.764  0.1159 -0.2470 -0.2291
 7858W        W23932  15.092  12.239   4.308 -0.0249  0.2753 -0.0237
 7859W        W23933   8.232  13.402   0.038  0.0071 -0.0581 -0.0934
 7860W        W23934  12.321  14.535   4.447 -0.1715  0.0248  0.2505
 7861W        W23935   7.315   6.801   2.056  0.2148 -0.2054  0.1114
 7862W        W23936   1.136  11.981   0.490 -0.0518 -0.2367 -0.2580
 7863W        W23937  16.422   6.174   1.141 -0.2653 -0.3025  0.0166
 7864W        W23938   7.857   3.530  10.383 -0.3047  0.2848  0.1270
 7865W        W23939   2.597  15.470   2.670  0.0213  0.1961  0.1967
 7866W        W23940   0.820   7.832   1.281  0.2027  0.0724 -0.2201
 7867W        W23941  15.230  14.941  14.164  0.2215 -0.1062  0.2575
 7868W        W23942  17.668   1.238   3.350  0.1071 -0.1481  0.0742
 7869W        W23943  13.545   1.393   0.849  0.1568 -0.0907 -0.2380
 7870W        W23944  18.261   7.527   1.910 -0.2742 -0.1200  0.0704
 7871W        W23945  11.012  11.551  14.489 -0.2009  0.2959  0.1967
 7872W        W23946   2.436  13.554  15.218  0.4776  0.2459  0.1138
 7873W        W23947   1.529  17.121   2.514  0.2999  0.0656 -0.1832
 7874W        W23948  10.180   2.418   0.519  0.2740  0.3785  0.0696
 7875W        W23949  13.709   3.135   0.757  0.1955 -0.2942  0.1441
 7876W        W23950  17.849   1.963   0.562  0.0729  0.4684  0.3979
 7877W        W23951   7.257   3.436  14.948  0.2184 -0.3324  0.4077
 7878W        W23952  15.511  17.997  10.319 -0.1993  0.2433  0.0105
 7879W        W23953  10.408   2.232   1.887 -0.1359  0.1507  0.1806
 7880W        W23954   6.472  11.131  11.355 -0.0004  0.2142  0.1564
 7881W        W23955   6.403  16.748  13.956 -0.2639 -0.1585 -0.2547
 7882W        W23956  14.672  14.989   3.729  0.3087 -0.2917 -0.5346
 7883W        W23957   0.644   2.137   1.069 -0.0362 -0.0859 -0.4629
 7884W        W23958   7.608   6.556  12.174  0.3075 -0.0453  0.0626
 7885W        W23959   0.541  14.702  14.280  0.0511 -0.3564 -0.0610
 7886W        W23960   6.984  17.755   5.381  0.2234  0.0341  0.1995
 7887W        W23961  16.459  11.883   3.071  0.0530 -0.0281 -0.0227
 7888W        W23962   9.111   7.762  13.002 -0.3855  0.0022  0.2005
 7889W        W23963  12.150   7.732  15.075  0.0205  0.2279 -0.2034
 7890W        W23964  13.297  10.349   0.457  0.0029 -0.0623  0.0819
 7891W        W23965   4.006   0.059   1.681 -0.0910  0.0350  0.0064
 7892W        W23966  14.235   5.512  11.018 -0.1610 -0.1801  0.2633
 7893W        W23967   0.854   1.111  12.376 -0.1366  0.0508 -0.0764
 7894W        W23968  14.348  17.428  13.736  0.2038 -0.0228 -0.1594
 7895W        W23969   2.340   1.482   5.170  0.3157  0.3320  0.1675
 7896W        W23970  16.149   8.872  15.063  0.0576  0.1081 -0.0931
 7897W        W23971   0.756   0.248   1.678  0.0902 -0.0546 -0.0135
 7898W        W23972   6.681  17.262  13.717  0.2294  0.1095 -0.1483
 7899W        W23973   0.631   2.727   4.494  0.0541  0.2086 -0.1044
 7900W        W23974   6.678  13.823  11.905  0.2436 -0.1934 -0.0180
 7901W        W23975   2.863   7.878   1.197 -0.1567 -0.0305 -0.0428
 7902W        W23976   4.862  13.331   4.386  0.0987  0.0349  0.0186
 7903W        W23977   5.625  12.291  12.928  0.0305  0.0115 -0.0665
 7904W        W23978  14.076  15.808   3.804  0.4217 -0.0786 -0.0617
 7905W        W23979  10.544   2.639   2.247 -0.0266 -0.0629 -0.0554
 7906W        W23980  13.901   6.890  12.502 -0.0915 -0.1048  0.0585
 7907W        W23981   1.620   6.809  12.469  0.1490 -0.1561  0.1200
 7908W        W23982   2.979   4.487   2.530 -0.1295  0.0628  0.0311
 7909W        W23983  15.379   7.352  13.097  0.0196 -0.5376  0.0341
 7910W        W23984  13.569   5.175   2.322 -0.2089 -0.0705 -0.0004
 7911W        W23985  14.899   5.771   4.468  0.0010 -0.1308  0.2375
 7912W        W23986   6.670  16.887  12.429 -0.1930  0.0791  0.2563
 7913W        W23987  14.067  14.370  14.988 -0.0932 -0.2109  0.0217
 7914W        W23988   1.798  10.375   0.839 -0.0112 -0.4980  0.0463
 7915W        W23989   1.429   2.649   0.527  0.1180  0.0070  0.1975
 7916W        W23990   3.656  12.025   0.786 -0.0203 -0.1504 -0.0982
 7917W        W23991  13.352  15.027   1.410 -0.1646  0.0608 -0.2208
 7918W        W23992   6.862   3.929   4.526 -0.0200  0.3959  0.5211
 7919W        W23993   5.773   0.028  16.107 -0.1506  0.1421 -0.2668
 7920W        W23994  15.744  16.156  13.705  0.1378  0.1655  0.1468
 7921W        W23995  12.224   7.269  14.865 -0.1046  0.0762 -0.2920
 7922W        W23996  13.762   5.493   2.908  0.3363  0.0435  0.0025
 7923W        W23997   8.637   9.081  12.108 -0.1945 -0.1619 -0.0236
 7924W        W23998   3.387  15.084   4.103  0.0842 -0.0361  0.1485
 7925W        W23999   4.088   9.771  16.181 -0.2519 -0.1340  0.0265
 7926W        W24000   9.840  16.795  14.294 -0.2208  0.0641  0.3027
 7927W        W24001  16.394  15.151  15.988 -0.1434  0.0380 -0.1664
 7928W        W24002   8.100   2.158  12.984  0.4506 -0.0668 -0.0281
 7929W        W24003   6.154  14.914  15.985  0.0601  0.2109 -0.0988
 7930W        W24004   4.131  10.957   5.487  0.0989  0.1553  0.2021
 7931W        W24005   3.195  18.306   2.822  0.0160  0.3702  0.0718
 7932W        W24006  17.314   9.226   1.740 -0.0865  0.0606  0.3115
 7933W        W24007  15.298  11.127   4.247  0.0426  0.0493  0.0944
 7934W        W24008  15.989   8.023   2.643  0.0656  0.0247  0.1325
 7935W        W24009   7.782  13.302  13.238  0.0368 -0.3865 -0.2003
 7936W        W24010  15.596   8.001   5.922 -0.1466 -0.0166 -0.3069
 7937W        W24011   2.737  15.819   1.718  0.2812  0.3996 -0.1932
 7938W        W24012   0.483   1.009  14.682  0.2008 -0.0243 -0.1052
 7939W        W24013  16.483   5.509   2.743 -0.2252  0.0578  0.1461
 7940W        W24014   1.363  16.755   4.150 -0.1858  0.1123  0.2352
 7941W        W24015   4.889  10.058  13.515 -0.3003  0.0210  0.3025
 7942W        W24016  12.440  11.291  16.359 -0.0673 -0.0551 -0.2298
 7943W        W24017   8.523   6.502  14.718 -0.0324 -0.0298 -0.1071
 7944W        W24018   1.559  16.400   4.564  0.3008  0.0824  0.0923
 7945W        W24019  16.347   3.971  11.688  0.3494  0.1323  0.0520
 7946W        W24020  10.973   2.311  14.667 -0.2410 -0.1274 -0.0078
 7947W        W24021   7.873   6.284  11.856  0.1950  0.0188  0.0596
 7948W        W24022  12.633  17.680   4.043  0.0364 -0.0563 -0.1425
 7949W        W24023   4.890   5.946   5.616 -0.0990 -0.0931  0.0074
 7950W        W24024  15.063  17.994   2.008  0.0049  0.1902  0.0493
 7951W        W24025   7.358  14.687   0.618  0.0750 -0.0149 -0.0180
 7952W        W24026   9.491   5.200  15.968  0.4007 -0.1436  0.2445
 7953W        W24027   8.335   1.926  10.768 -0.0784  0.1241  0.1379
 7954W        W24028   7.038  10.699  12.826 -0.0230  0.0434  0.1572
 7955W        W24029  10.782   5.583  13.982  0.0395 -0.1673  0.0823
 7956W        W24030  10.047  18.287   2.148 -0.1927  0.0266  0.3786
 7957W        W24031   4.353   6.127   5.525 -0.0841 -0.0610 -0.0549
 7958W        W24032  13.611  17.520   2.742 -0.0744  0.2259  0.1080
 7959W        W24033  10.759  14.724  11.332  0.4011  0.1583 -0.0351
 7960W        W24034  17.544  14.338   0.285 -0.1652 -0.1519  0.1414
 7961W        W24035   8.848  10.954  15.986  0.1206  0.1900 -0.1846
 7962W        W24036  10.531   8.025   6.071 -0.2993  0.1949 -0.5478
 7963W        W24037  15.441  16.003  13.202  0.2829  0.1087 -0.0925
 7964W        W24038   9.923  15.828   1.706  0.1935 -0.0937  0.0905
 7965W        W24039   0.919  17.231  14.992 -0.1682 -0.0769  0.1881
 7966W        W24040  14.464   2.855   1.948 -0.1203 -0.1163 -0.2437
 7967W        W24041   6.579   5.903  12.806  0.0733 -0.2007  0.0038
 7968W        W24042  12.783   9.830   6.058 -0.0584 -0.1488  0.0931
 7969W        W24043   3.177   6.044   4.381  0.3473  0.2143 -0.5939
 7970W        W24044   7.448   3.500   1.224 -0.0391 -0.0550 -0.0770
 7971W        W24045  13.492   8.580   5.108 -0.0836  0.0462  0.1361
 7972W        W24046  11.284   3.113  12.589 -0.0499  0.0917 -0.0275
 7973W        W24047  18.099   9.801   4.496 -0.2455 -0.2865  0.3532
 7974W        W24048  17.861   8.571  16.135  0.3321  0.2774  0.2363
 7975W        W24049  15.078   4.172   4.614 -0.1365 -0.1791 -0.1410
 7976W        W24050   6.164   6.196  12.840 -0.0281 -0.2173 -0.1863
 7977W        W24051   2.278   9.642  13.190  0.1887  0.1882  0.4390
 7978W        W24052   8.717   5.211  12.501 -0.4572  0.0914 -0.1136
 7979W        W24053   1.115   3.168   4.275 -0.0775  0.2497  0.1246
 7980W        W24054  14.736   9.272   3.984 -0.0944  0.1033 -0.0140
 7981W        W24055  16.976  17.957  15.314 -0.2264 -0.3726 -0.1809
 7982W        W24056  17.330   5.904  13.308  0.0069 -0.2200 -0.0554
 7983W        W24057   1.458   9.872   2.469 -0.2967  0.1132  0.0231
 7984W        W24058   2.643   9.974   1.521  0.4323  0.2242  0.0583
 7985W        W24059  14.256   7.672   3.400 -0.1118 -0.1467 -0.1335
 7986W        W24060   2.454   2.800   2.888 -0.0495  0.1212 -0.1642
 7987W        W24061   0.731  16.005  14.060  0.0822 -0.2824  0.1641
 7988W        W24062  13.180  10.637  14.686  0.1824 -0.1013 -0.1363
 7989W        W24063  11.578   1.600  11.401  0.1921 -0.1345 -0.0526
 7990W        W24064   3.046  16.042   1.450  0.0058  0.1519  0.3829
 7991W        W24065   8.255   6.482   2.166 -0.1212  0.0101  0.1826
 7992W        W24066   7.465   2.427   0.930 -0.1237 -0.2855  0.1117
 7993W        W24067  14.955   8.053   0.587  0.1404 -0.2279 -0.2510
 7994W        W24068  16.835   0.985   3.742  0.1559 -0.0889  0.1236
 7995W        W24069  15.951  11.034   0.306  0.0468  0.1188 -0.1892
 7996W        W24070  17.266   3.043  16.169 -0.0565  0.0588  0.0977
 7997W        W24071   7.720   8.345   2.932  0.1430 -0.3735  0.0703
 7998W        W24072  12.870  13.006   1.307 -0.3488  0.1131  0.1826
 7999W        W24073  12.602  15.947  13.950  0.1052  0.1216  0.3476
 8000W        W24074   7.265  18.091   4.109  0.0496 -0.1529  0.1718
 8001W        W24075   8.569  18.064  11.356  0.0658  0.2081  0.3086
 8002W        W24076  11.455  10.525  15.933 -0.0610 -0.2130  0.1276
 8003W        W24077   2.033  15.626  12.649  0.2031 -0.0582  0.1950
 8004W        W24078   4.670   1.585  14.866  0.1506 -0.1347 -0.1279
 8005W        W24079   5.855   8.924  11.383 -0.2638  0.1782 -0.1826
 8006W        W24080   6.801  12.311  12.762  0.3794  0.0333 -0.3280
 8007W        W24081  15.410  16.729  14.186 -0.3624 -0.1572 -0.0538
 8008W        W24082   4.790  14.385   0.124 -0.0062  0.1584  0.3515
 8009W        W24083  17.792   8.781  15.596 -0.1740 -0.0947  0.1536
 8010W        W24084   4.274  10.410   1.435 -0.0681  0.1112  0.3856
 8011W        W24085   7.148   0.365  15.829  0.2338  0.1013  0.0249
 8012W        W24086   3.045   8.189  15.701  0.1683  0.3208  0.1061
 8013W        W24087  13.807   3.922  15.185  0.3695 -0.0700  0.0524
 8014W        W24088   5.934  17.077   5.507  0.0914  0.4685 -0.0645
 8015W        W24089   2.521   3.501  12.947  0.1291 -0.0287  0.1870
 8016W        W24090  15.711  18.229   0.986 -0.0671 -0.1399 -0.0695
 8017W        W24091   8.012   7.524   1.038 -0.2749  0.2697 -0.1346
 8018W        W24092   4.098  13.315   4.952 -0.0621 -0.1396 -0.2249
 8019W        W24093   9.058   2.211  13.648 -0.0204 -0.1806 -0.0785
 8020W        W24094   6.922  17.259   4.721  0.0973 -0.0298 -0.3734
 8021W        W24095   2.173  14.408   0.239  0.1017  0.3753  0.1336
 8022W        W24096   5.491  11.686  12.247 -0.3368  0.0914  0.2889
 8023W        W24097  17.778  16.703   0.054  0.0707  0.1894 -0.2155
 8024W        W24098   7.665  17.463  13.354  0.0240  0.1356  0.2028
 8025W        W24099   4.672   9.280   1.826 -0.0697  0.3870 -0.0794
 8026W        W24100   5.230   6.417   1.210 -0.1850  0.0155  0.4702
 8027W        W24101   1.953   0.356  15.420 -0.1581  0.0229  0.1968
 8028W        W24102   6.616   3.881   2.768  0.1519 -0.2547 -0.0483
 8029W        W24103   9.444  16.134  15.475  0.0592 -0.2098  0.0269
 8030W        W24104  15.514  12.783  13.252 -0.0376 -0.1194  0.0926
 8031W        W24105  10.591   2.075  10.063 -0.0777 -0.2865 -0.2203
 8032W        W24106  15.071  15.444  13.017 -0.3773  0.1892  0.3381
 8033W        W24107   8.806   7.930   5.383  0.1216 -0.0092  0.0526
 8034W        W24108   8.503   4.350  14.906  0.2219  0.0221  0.0703
 8035W        W24109   2.324   8.870  11.999  0.1723 -0.0353 -0.0649
 8036W        W24110  16.678  13.685   2.047  0.0486  0.0981 -0.3742
 8037W        W24111   8.046  16.908  12.156  0.2142 -0.0871  0.3212
 8038W        W24112   6.027   4.277   2.601  0.1308  0.0252 -0.2265
 8039W        W24113   1.069   1.389   5.050 -0.0497 -0.2568  0.0903
 8040W        W24114  14.475   0.352   5.040 -0.0135  0.2288  0.1896
 8041W        W24115  11.858   6.393   5.799  0.2159  0.2259 -0.0095
 8042W        W24116   8.100   0.108   4.954 -0.0966 -0.2492  0.1682
 8043W        W24117   3.518  10.346   2.656  0.1510  0.3097 -0.1717
 8044W        W24118  17.416  14.339   3.660  0.1059 -0.1239  0.0064
 8045W        W24119   4.034  11.437   5.546 -0.0786  0.0905  0.0464
 8046W        W24120   5.668  16.227   5.830  0.1061  0.0871 -0.1387
 8047W        W24121   6.602  13.331  15.259  0.0457 -0.1686 -0.0615
 8048W        W24122   1.731  13.154  12.129 -0.2647  0.3380  0.0798
 8049W        W24123   6.554   5.403  12.845  0.2030  0.3645  0.1672
 8050W        W24124   2.315  13.881  12.810  0.0149 -0.1203  0.0725
 8051W        W24125   7.784   4.317   4.515 -0.3556 -0.0354  0.1537
 8052W        W24126   6.458  13.273   0.532  0.1934  0.1922  0.0755
 8053W        W24127  10.442   5.582   3.450 -0.1356 -0.3072  0.1476
 8054W        W24128  17.171  10.889   2.798 -0.1976 -0.0266  0.1618
 8055W        W24129  13.733  15.030   1.081 -0.1756  0.1895  0.4583
 8056W        W24130   1.151  12.817  12.708 -0.1096 -0.3760 -0.1540
 8057W        W24131  11.031  16.801  14.700  0.1125  0.1551  0.2562
 8058W        W24132  13.931   7.522   5.599 -0.0548  0.0685 -0.1775
 8059W        W24133   4.397   0.548   2.963  0.0803 -0.1573  0.0762
 8060W        W24134  16.371  18.327   5.429  0.1777  0.0109  0.0478
 8061W        W24135  14.102  11.549  13.302  0.0539  0.2564  0.0393
 8062W        W24136  10.550   6.683  11.928  0.0413  0.1153 -0.1237
 8063W        W24137  12.992  15.532  12.526 -0.1403 -0.1093 -0.2907
 8064W        W24138  14.274  14.168  12.592  0.1249 -0.1886  0.0923
 8065W        W24139  15.831  13.143  13.529 -0.1900 -0.0871  0.0569
 8066W        W24140  17.828   3.754   0.132  0.0385 -0.0718 -0.0414
 8067W        W24141   0.535  17.130   4.045  0.2212  0.1859 -0.0712
 8068W        W24142   1.011   8.782   4.903  0.0185  0.2618 -0.0444
 8069W        W24143  10.974  12.370   1.069  0.0210 -0.0518  0.0148
 8070W        W24144  13.073  11.419  12.926  0.1383 -0.3909  0.2648
 8071W        W24145  17.237   8.276   4.130  0.0475 -0.1028  0.1238
 8072W        W24146   7.423  10.320  11.961  0.3820  0.0649 -0.0341
 8073W        W24147  14.522   6.759  14.027 -0.1502  0.1957  0.1451
 8074W        W24148   0.911   9.904   0.886  0.1248  0.0282 -0.0051
 8075W        W24149   0.572   6.791  12.741  0.0533  0.2136  0.0231
 8076W        W24150   9.900   2.558   0.026  0.0508 -0.4287  0.0804
 8077W        W24151   7.143   4.812  15.551  0.3027  0.2176 -0.2812
 8078W        W24152   5.721  17.211  11.182 -0.1120 -0.4063  0.0962
 8079W        W24153  12.759   6.199   1.916  0.0334 -0.0831 -0.1745
 8080W        W24154  14.686  15.828  12.068  0.2830  0.3226  0.2242
 8081W        W24155  15.876  12.788  12.235  0.1248 -0.1692 -0.5732
 8082W        W24156   4.786   4.658  14.488  0.0629  0.2625 -0.0068
 8083W        W24157   4.092   6.864  11.841 -0.2079  0.0905  0.0238
 8084W        W24158  18.171  11.210   3.378  0.2010 -0.3139  0.0492
 8085W        W24159   1.215   8.259  16.172  0.0981 -0.2774 -0.0193
 8086W        W24160   3.389  15.192   1.491  0.1074  0.0754  0.0848
 8087W        W24161   8.034   1.011  14.376  0.2125 -0.2526 -0.0927
 8088W        W24162  17.865   3.011  10.809 -0.2851 -0.2244 -0.0621
 8089W        W24163   2.698   6.519  12.316  0.2508 -0.3573  0.0870
 8090W        W24164  15.541   7.079   2.271  0.3673 -0.0617 -0.0682
 8091W        W24165   8.790  11.101  11.511  0.0741 -0.0168  0.2347
 8092W        W24166   6.281  10.710  13.347  0.2913  0.1784 -0.0571
 8093W        W24167   8.818   3.477   0.072  0.2141 -0.0482 -0.1115
 8094W        W24168   5.054  12.210  12.035  0.3005  0.1015 -0.2561
 8095W        W24169   5.028  17.707  16.262  0.1574  0.0842  0.3272
 8096W        W24170   4.632   7.164   5.746  0.2097 -0.2513  0.0174
 8097W        W24171   0.513   9.235   0.249 -0.0437  0.1247 -0.1113
 8098W        W24172   8.624   7.836  13.092  0.3192  0.0325  0.0954
 8099W        W24173   2.776  17.569   2.796  0.1522  0.1541 -0.0508
 8100W        W24174  17.364  17.762   3.056 -0.0103 -0.2114 -0.1894
 8101W        W24175  11.510   3.239  11.844 -0.0129 -0.2608 -0.1415
 8102W        W24176   0.242   1.594   2.476 -0.4387  0.2770 -0.3051
 8103W        W24177  16.206  12.134  12.218  0.1135 -0.1352 -0.1888
 8104W        W24178   0.274  14.679   5.602 -0.1200 -0.1202  0.0362
 8105W        W24179   7.770  11.406   3.778  0.1828 -0.0395 -0.2298
 8106W        W24180   7.870  16.492  13.395  0.0905 -0.1933 -0.0221
 8107W        W24181   2.829   1.499   6.073 -0.0321 -0.0444 -0.1205
 8108W        W24182  11.837   3.545  15.351  0.0149  0.1408  0.0138
 8109W        W24183  15.194  14.594   0.420 -0.0214 -0.1453  0.2222
 8110W        W24184  11.059   5.044   3.721 -0.0800  0.0915 -0.0651
 8111W        W24185  11.798  12.927   1.177  0.0740  0.0789 -0.0222
 8112W        W24186  17.566   5.413   2.392 -0.0529 -0.2877  0.1190
 8113W        W24187   9.041  10.735  11.663 -0.0678 -0.1501  0.0059
 8114W        W24188   9.112  17.788   6.101 -0.0903 -0.0799  0.1003
 8115W        W24189   7.923  13.630   0.409 -0.4753  0.1350  0.0293
 8116W        W24190  14.501  12.694  12.116 -0.1838  0.0370 -0.2217
 8117W        W24191  11.347   7.244  12.276 -0.1082 -0.0030 -0.0530
 8118W        W24192  13.581   7.670  13.741 -0.1956  0.1215  0.0495
 8119W        W24193   3.450   8.728   3.340 -0.0476  0.1565 -0.2072
 8120W        W24194  12.664   0.609   4.564 -0.0029 -0.1225 -0.5836
 8121W        W24195   3.663   3.690  15.279 -0.1310  0.0909  0.0399
 8122W        W24196  10.179   6.525   6.011 -0.1420  0.2975  0.3739
 8123W        W24197   7.474   0.574  12.728  0.0764  0.0319 -0.0583
 8124W        W24198  12.054   0.958  14.760 -0.0361  0.0158  0.2955
 8125W        W24199   9.290  14.088   6.319 -0.1429  0.0620  0.2506
 8126W        W24200   0.661  18.263   3.064  0.3891 -0.1629 -0.0730
 8127W        W24201  11.109  10.745  14.256  0.0777 -0.0438  0.2753
 8128W        W24202   6.412   1.331  16.357 -0.0675 -0.0850  0.0697
 8129W        W24203  12.236   0.316  13.282 -0.4108  0.1385  0.0935
 8130W        W24204  15.210   7.101  14.855 -0.1343 -0.0475  0.0470
 8131W        W24205   7.385   7.108  11.352 -0.0212  0.0029  0.1798
 8132W        W24206   7.959  16.071   6.147 -0.0225 -0.0507  0.0533
 8133W        W24207  10.695   0.870  12.933  0.0518  0.1875 -0.1522
 8134W        W24208   0.998   6.716   4.522  0.5557  0.0214  0.0534
 8135W        W24209  14.062   7.487  12.352 -0.0024 -0.1861 -0.3315
 8136W        W24210   0.786  16.247   3.868  0.1226  0.1228  0.1320
 8137W        W24211  13.061   4.227   3.294 -0.0131 -0.2119  0.1618
 8138W        W24212   6.400  12.304  13.558  0.1258  0.0387  0.2473
 8139W        W24213   3.614  15.127  15.637 -0.1298 -0.0792 -0.0909
 8140W        W24214   4.945  16.932   3.736 -0.0194  0.0964  0.0921
 8141W        W24215  16.560  17.230  13.411  0.0280  0.1074  0.1405
 8142W        W24216   2.835  16.994   4.629 -0.0002  0.0376  0.1466
 8143W        W24217  11.190   5.020  16.387  0.0868 -0.1755 -0.0237
 8144W        W24218   3.247   6.654   5.643 -0.0593  0.0152  0.2011
 8145W        W24219   5.948  16.878   0.882  0.0548 -0.0984  0.0461
 8146W        W24220   3.040   7.799  14.607 -0.2127  0.4411 -0.1522
 8147W        W24221   0.492  12.943  14.317 -0.1760 -0.1845  0.1644
 8148W        W24222  17.768   1.275  13.550 -0.0399 -0.0442 -0.1048
 8149W        W24223   8.033  14.532   3.437 -0.1909  0.0489 -0.0174
 8150W        W24224   4.232   1.091  14.990 -0.0374  0.2400  0.0692
 8151W        W24225  17.676   7.893  12.229  0.0266 -0.0108  0.2648
 8152W        W24226  14.065  13.464   2.243 -0.1431  0.0284  0.1357
 8153W        W24227   0.180   0.410  13.722 -0.1003 -0.0552  0.1966
 8154W        W24228   4.814   0.778  15.191  0.3574 -0.0465  0.0055
 8155W        W24229  11.730  10.907  12.478  0.3059 -0.0907 -0.1747
 8156W        W24230  13.396   1.308  14.382  0.1087  0.3796  0.5032
 8157W        W24231   8.117  18.227   0.586 -0.0131  0.1213  0.2767
 8158W        W24232  10.854  11.339   5.269 -0.0539 -0.0519 -0.1587
 8159W        W24233  17.825  14.320  14.362 -0.0398 -0.0124 -0.2871
 8160W        W24234   5.434  17.147  13.174  0.1754 -0.2725 -0.2594
 8161W        W24235   7.136   9.569   6.019  0.0821 -0.0491  0.1164
 8162W        W24236   3.889  14.420  16.138  0.1186  0.0866  0.0274
 8163W        W24237  13.682  14.628  13.551 -0.0930 -0.1736  0.3107
 8164W        W24238   2.817  12.299  12.765  0.0947 -0.4649 -0.0395
 8165W        W24239  14.770   1.520   2.176 -0.0327 -0.0146 -0.2182
 8166W        W24240  12.721  14.239  11.860 -0.0509 -0.2461 -0.2768
 8167W        W24241   9.490  17.314   3.204 -0.3757 -0.1709 -0.1253
 8168W        W24242   9.838   2.348   9.422 -0.1193  0.0758  0.0248
 8169W        W24243   5.915   2.017   2.925  0.2579  0.1695  0.1427
 8170W        W24244   4.575  16.692  14.942  0.0844  0.1246  0.1148
 8171W        W24245  11.604  11.063   1.478  0.1505 -0.1737 -0.0137
 8172W        W24246   1.502  14.117  10.879  0.3855 -0.1729 -0.3482
 8173W        W24247  17.728   8.950   1.764 -0.0032  0.0992 -0.0243
 8174W        W24248   2.366  14.220  10.826 -0.3824  0.1122  0.2570
 8175W        W24249   0.635   4.650  14.571 -0.1625  0.1524 -0.1515
 8176W        W24250   2.971   9.123  11.422  0.1453 -0.1178 -0.2481
 8177W        W24251   6.239  10.926  12.847  0.5031  0.1760  0.0933
 8178W        W24252  15.565  11.536   0.241  0.2409  0.3262  0.0670
 8179W        W24253  15.323  12.877   0.319  0.2913  0.0227  0.0379
 8180W        W24254   2.145  17.472  13.945  0.1177  0.1836 -0.0975
 8181W        W24255   9.551  14.685   6.164 -0.0127 -0.0927 -0.0230
 8182W        W24256  15.899   7.173  11.905  0.3700 -0.1295  0.0913
 8183W        W24257   6.626  17.406   3.782 -0.0214 -0.0816  0.0832
 8184W        W24258  13.994   6.254   0.696  0.1838  0.2958 -0.2569
 8185W        W24259   2.854  10.194  15.404 -0.3591  0.0608 -0.0474
 8186W        W24260  13.659  18.258  15.824 -0.1951  0.4560  0.0117
 8187W        W24261   7.064   5.274  11.459  0.2236  0.0644  0.0828
 8188W        W24262  14.712   0.149  14.839  0.2535 -0.0463  0.1150
 8189W        W24263  16.064  10.693  11.716 -0.1203 -0.0383 -0.3568
 8190W        W24264  11.873   8.219  11.889 -0.0232 -0.1137  0.1160
 8191W        W24265   6.895  17.317   5.623  0.2977 -0.0174 -0.1404
 8192W        W24266   7.471   5.834   2.493  0.0851 -0.0873  0.1341
 8193W        W24267   4.588   6.022   1.534 -0.0229  0.2232  0.1051
 8194W        W24268   9.953   6.208  13.052  0.1859 -0.2351  0.3701
 8195W        W24269  13.083   1.596  15.659 -0.3024  0.0224  0.1995
 8196W        W24270   7.281   5.500   4.493  0.1534  0.3158  0.0933
 8197W        W24271   5.460   0.795   0.290 -0.0996  0.1702  0.2550
 8198W        W24272   6.611   2.486   2.471  0.2596  0.0614  0.4077
 8199W        W24273   4.150   7.779   0.485 -0.0929 -0.1308  0.1375
 8200W        W24274  16.175  11.773   4.133  0.1869  0.0478  0.0962
 8201W        W24275  14.252   2.355   2.075  0.3787  0.1369 -0.0972
 8202W        W24276   9.434   1.394   1.526 -0.1053 -0.3582 -0.0365
 8203W        W24277  17.016  15.325  12.971  0.1159  0.2729  0.2961
 8204W        W24278  17.681  16.159  11.998 -0.1403 -0.1190  0.0516
 8205W        W24279  14.266   3.212   5.154 -0.2423  0.1686 -0.2049
 8206W        W24280  12.505   9.755   0.165 -0.1857  0.0815  0.1034
 8207W        W24281  15.294   3.581  13.673 -0.1528  0.0458  0.1886
 8208W        W24282   5.285  13.686  13.605 -0.1468  0.0142  0.2596
 8209W        W24283   9.206   6.183   1.972  0.1437 -0.2969  0.1386
 8210W        W24284  14.671  15.573  14.375 -0.3511 -0.0203  0.0869
 8211W        W24285   0.736   3.125   1.131 -0.0247  0.0364  0.1832
 8212W        W24286   5.785   1.989  15.858  0.2776  0.0500 -0.0301
 8213W        W24287  13.257   7.525  12.752  0.2145  0.4066 -0.0757
 8214W        W24288   6.343   7.945   4.987  0.0983  0.0398  0.0936
 8215W        W24289   9.951  16.901  11.973  0.3407  0.1189  0.1412
 8216W        W24290   3.499  17.898  14.524  0.0610 -0.0676  0.0348
 8217W        W24291   8.991   2.101  15.656  0.0068 -0.2951 -0.2467
 8218W        W24292  10.471  12.605   1.908  0.1309  0.0279  0.0837
 8219W        W24293   2.113   1.160   3.121 -0.1508 -0.1414 -0.0482
 8220W        W24294  18.111   9.113  11.632  0.1229 -0.3303  0.2792
 8221W        W24295  10.723   2.378   4.848 -0.1171 -0.3107  0.4350
 8222W        W24296   4.185   7.634   3.797 -0.0850 -0.1293 -0.0397
 8223W        W24297  12.990  14.621  12.128 -0.0361  0.0395  0.0658
 8224W        W24298  11.973  17.343   5.809  0.5191  0.2373 -0.1564
 8225W        W24299  15.989   7.080  11.373 -0.5516 -0.0425 -0.1471
 8226W        W24300   0.647   7.027   5.051 -0.0030 -0.0300 -0.1655
 8227W        W24301   7.544  15.560  14.830 -0.4453 -0.0746 -0.3362
 8228W        W24302  12.109  10.719   3.487 -0.0084  0.0673  0.2399
 8229W        W24303   9.862  10.462  11.979 -0.0019  0.0328 -0.0241
 8230W        W24304   3.770  17.168   3.341  0.0656 -0.1847 -0.1014
 8231W        W24305  15.998   2.034   1.134  0.0322  0.1838  0.2611
 8232W        W24306  13.707   2.850  16.053 -0.0246  0.1022  0.0378
 8233W        W24307  15.398   6.272  11.272  0.1754 -0.2252  0.0651
 8234W        W24308   9.554   1.996   4.903 -0.0924 -0.0683  0.2152
 8235W        W24309  15.308   6.639   2.073  0.0355 -0.0417 -0.1258
 8236W        W24310  12.934   3.117  15.547 -0.3572  0.3221 -0.0225
 8237W        W24311  13.361  18.201  15.375  0.0190 -0.3100  0.0050
 8238W        W24312   0.958  18.138   1.837  0.1705  0.2490  0.3240
 8239W        W24313   7.071  17.813   3.119 -0.1382 -0.1342  0.2608
 8240W        W24314  12.345   0.611  14.979 -0.0522 -0.0028  0.3325
 8241W        W24315   1.053   6.717  11.356  0.1789  0.2552 -0.2210
 8242W        W24316  13.058  16.817  11.822 -0.2055 -0.1131 -0.1323
 8243W        W24317   1.464  11.936   3.482 -0.0941  0.2684  0.2211
 8244W        W24318   2.079   0.590  14.113 -0.0043 -0.0009  0.0816
 8245W        W24319  10.287   7.104  15.000 -0.1660  0.0376  0.2140
 8246W        W24320   6.629   1.580  13.142 -0.1386 -0.1490 -0.2084
 8247W        W24321   1.018   0.864  15.568  0.0355  0.0126 -0.1805
 8248W        W24322   2.620   9.523   2.642 -0.0783 -0.1303  0.0138
 8249W        W24323   1.432  15.846   2.341 -0.1108  0.1938 -0.0454
 8250W        W24324   8.714   4.146  12.737 -0.0729 -0.1840 -0.0548
 8251W        W24325  17.274   9.716   3.847  0.0113 -0.2643 -0.2193
 8252W        W24326  11.000   6.131  14.896 -0.1894 -0.2647 -0.3325
 8253W        W24327   3.128   0.315  13.989 -0.0138  0.1715 -0.1956
 8254W        W24328  12.322   6.471   2.085 -0.2363  0.1275 -0.2531
 8255W        W24329  12.466  12.982   4.116 -0.4434  0.0904 -0.1075
 8256W        W24330  14.596  10.286   3.886 -0.3490  0.1112 -0.0349
 8257W        W24331  17.049   0.080   2.483 -0.2227 -0.0727  0.0737
 8258W        W24332   2.077  16.372  14.587 -0.2749 -0.3824  0.2438
 8259W        W24333  13.342   3.761  13.158  0.1258 -0.5379 -0.4516
 8260W        W24334  11.098   5.659   2.905 -0.0069 -0.0464  0.3031
 8261W        W24335  13.968  13.301   1.562 -0.0563  0.1135  0.1351
 8262W        W24336   4.661  11.256  12.486 -0.0128 -0.0679 -0.2845
 8263W        W24337  13.716   4.112   0.950  0.1518  0.2306  0.0117
 8264W        W24338   5.556   9.066   3.456  0.1013 -0.2005 -0.2080
 8265W        W24339   8.914   7.158  14.414 -0.1619  0.2146  0.0994
 8266W        W24340  15.422  15.270  15.474  0.2371  0.1424  0.1179
 8267W        W24341  16.005  13.509   5.565  0.4160 -0.1803 -0.0591
 8268W        W24342   5.023  15.001   2.036  0.0084  0.0080  0.0272
 8269W        W24343  14.342   1.509   1.949 -0.0727  0.1245 -0.2453
 8270W        W24344  16.504   6.979   2.714 -0.1572  0.2411 -0.4570
 8271W        W24345   6.547  16.139   2.762 -0.2647 -0.1077  0.1978
 8272W        W24346   2.228   1.055  14.148 -0.0550 -0.0743  0.0045
 8273W        W24347  14.318  11.110   4.753 -0.0521  0.3143  0.0679
 8274W        W24348  13.411  14.347  12.137  0.1226  0.3637 -0.1361
 8275W        W24349   1.537  10.599  15.029  0.2610  0.3537 -0.2488
 8276W        W24350  10.041   2.425   2.274 -0.1817  0.0617  0.1322
 8277W        W24351  11.267   3.339   3.212  0.0570  0.1320  0.0287
 8278W        W24352   6.729  11.201   5.810 -0.0482 -0.0015  0.0009
 8279W        W24353   6.055   3.539   1.563 -0.0367 -0.1116 -0.1750
 8280W        W24354   2.171   6.595   5.563 -0.3669 -0.0782  0.2534
 8281W        W24355   7.885  11.568  13.331  0.1715  0.1998  0.2862
 8282W        W24356   1.106   7.759  14.407  0.0216  0.0535 -0.0681
 8283W        W24357  13.779  15.776   4.866  0.1262 -0.1139  0.1605
 8284W        W24358  10.828  12.166   2.562 -0.2715  0.1250 -0.0396
 8285W        W24359   1.878  17.641   1.583 -0.1954 -0.4372 -0.2626
 8286W        W24360  16.859   1.599  14.615  0.0516 -0.1007 -0.0202
 8287W        W24361   3.465   7.321   2.105  0.0142 -0.0791  0.1479
 8288W        W24362   1.739   0.960  14.139  0.2618 -0.1817  0.0895
 8289W        W24363  15.713   0.354  11.698  0.2106  0.0068 -0.0117
 8290W        W24364   6.622  17.724   5.777 -0.2723 -0.0594  0.0470
 8291W        W24365   4.193  13.721  14.335  0.1341  0.2895 -0.0824
 8292W        W24366  12.860  14.512   2.411  0.0893  0.1874 -0.2043
 8293W        W24367   5.368   0.452  11.372  0.2200 -0.1664  0.2792
 8294W        W24368   8.966  12.935  15.932  0.1491  0.2162 -0.0533
 8295W        W24369  10.909   2.568   5.343 -0.0921  0.0427  0.1372
 8296W        W24370   7.408  17.851   0.927 -0.0123  0.0342  0.2963
 8297W        W24371  16.902   7.419   3.656 -0.0039 -0.1901  0.2222
 8298W        W24372   0.534  18.084   4.713 -0.0258  0.3668 -0.2327
 8299W        W24373  10.018  17.831  12.088  0.0852 -0.4089 -0.0517
 8300W        W24374  14.684   2.038   2.229  0.2847  0.3512  0.1201
 8301W        W24375   7.526   2.426   1.397  0.2215  0.0537  0.0828
 8302W        W24376   7.586   5.334  12.728 -0.3000 -0.2381 -0.2027
 8303W        W24377   5.323  12.184  11.569  0.0843  0.2884 -0.0996
 8304W        W24378   3.287   4.919  11.935  0.0009  0.0585 -0.1367
 8305W        W24379   1.992   2.190  11.706 -0.1559 -0.0308  0.1787
 8306W        W24380  11.738   9.846   3.250 -0.2779 -0.1212  0.0454
 8307W        W24381  16.528   0.183   5.994 -0.0357 -0.2873 -0.0121
 8308W        W24382   7.448   3.173   4.767  0.0252 -0.2181 -0.3888
 8309W        W24383  16.384   1.687  11.480 -0.1378 -0.1166 -0.0082
 8310W        W24384   4.306   6.562   1.450  0.0292  0.1321  0.0386
 8311W        W24385  17.816   3.708   4.609 -0.3011 -0.0681 -0.1418
 8312W        W24386   6.696   0.761  11.975  0.2679  0.3828  0.0625
 8313W        W24387   7.352   1.465  14.783  0.0294  0.0867  0.2502
 8314W        W24388   0.068   2.922   5.521 -0.1802 -0.2981  0.0884
 8315W        W24389   3.620   2.774  13.336 -0.0404 -0.1718  0.1339
 8316W        W24390  13.065  13.415   1.778 -0.4893 -0.1627 -0.1669
 8317W        W24391   5.554   4.186   5.246 -0.1601  0.0371  0.0236
 8318W        W24392   0.723   6.286  14.579  0.1855  0.0974  0.4429
 8319W        W24393   3.322  12.729  12.782 -0.0429 -0.1100 -0.1630
 8320W        W24394   9.540   0.413  14.400 -0.3639 -0.3471  0.2862
 8321W        W24395   6.212   1.517  11.266  0.2053 -0.0778 -0.1437
 8322W        W24396  10.258   7.536   1.504  0.0372  0.2783 -0.0536
 8323W        W24397  15.074   4.152  15.978 -0.0052 -0.3606  0.1852
 8324W        W24398  12.581  15.849   1.962  0.3267  0.2304 -0.0417
 8325W        W24399  15.504   3.157   2.603 -0.1605 -0.1627  0.0360
 8326W        W24400   2.279   1.443  14.766  0.0890  0.0389  0.0876
 8327W        W24401   7.287  14.023  14.265 -0.1993  0.0061 -0.0222
 8328W        W24402   4.486  14.454  11.585  0.1038  0.1852  0.1368
 8329W        W24403  14.052   9.372   0.166  0.2666  0.3268 -0.0742
 8330W        W24404  14.356  10.503  11.804  0.0161  0.0801  0.1889
 8331W        W24405   9.280  10.233   2.499  0.1459 -0.1540  0.0187
 8332W        W24406   2.043  14.238  12.990 -0.2083 -0.0143 -0.0161
 8333W        W24407  13.725  11.190  11.306 -0.1627  0.4313  0.0729
 8334W        W24408   0.323  11.526   2.040 -0.2758  0.1136  0.0475
 8335W        W24409  11.921  13.167   3.610  0.0097 -0.0742  0.1196
 8336W        W24410   4.438  13.794  12.522  0.1995  0.1206 -0.2208
 8337W        W24411   3.036   8.714  11.865  0.1735  0.1522 -0.1160
 8338W        W24412   6.558  12.155  16.000 -0.4623 -0.0184  0.0313
 8339W        W24413   8.012   0.076  15.528 -0.1334  0.0276  0.0500
 8340W        W24414   6.388  14.031   5.280  0.1068  0.3170 -0.1102
 8341W        W24415   9.699  13.323  12.378  0.4142 -0.2332 -0.0998
 8342W        W24416   5.054   7.021   4.930  0.3133 -0.0143 -0.1818
 8343W        W24417   3.640   0.808  14.105  0.1310  0.2822 -0.3236
 8344W        W24418   2.240  15.458  11.245 -0.1113 -0.0289  0.1007
 8345W        W24419   2.759   8.916   4.396  0.1187 -0.1828  0.2840
 8346W        W24420   8.589   8.636   3.070 -0.0859 -0.1054  0.2456
 8347W        W24421   1.700  14.953   0.504 -0.1247  0.1331 -0.1376
 8348W        W24422  15.918   5.365   1.898  0.1015  0.0029  0.0209
 8349W        W24423   3.209  17.742   2.975 -0.1333 -0.1304 -0.1488
 8350W        W24424   7.675  16.488   2.348 -0.4042 -0.2389  0.0039
 8351W        W24425  15.053   9.742  13.849  0.0045 -0.0436  0.0136
 8352W        W24426   7.687  15.993  15.037  0.0978  0.4015 -0.0466
 8353W        W24427  16.752  14.446   0.416  0.1422 -0.1794 -0.2087
 8354W        W24428  10.561  11.098   1.207  0.4269 -0.0102  0.1545
 8355W        W24429   8.900  13.461  15.863 -0.0856 -0.0899  0.3492
 8356W        W24430   7.425  14.875  13.072 -0.4313 -0.2772 -0.0187
 8357W        W24431   4.954   1.204  11.770  0.3852  0.1165 -0.1131
 8358W        W24432   9.986   4.662  13.713 -0.2753  0.1725  0.1817
 8359W        W24433  16.975  17.492   2.904 -0.3264  0.0388 -0.0193
 8360W        W24434   2.185  14.927   0.283 -0.1564  0.0522 -0.2247
 8361W        W24435  15.594   7.184   3.781 -0.0446 -0.1379 -0.0903
 8362W        W24436   9.285   0.036  13.710 -0.2167 -0.0283  0.0671
 8363W        W24437  13.495   1.921  16.098  0.2795 -0.0101 -0.1485
 8364W        W24438  17.003   2.514  14.673  0.0945  0.0079  0.0122
 8365W        W24439   0.336  15.408   1.704  0.2537  0.0413  0.2091
 8366W        W24440   2.760   2.818   4.674  0.0104 -0.3488  0.4453
 8367W        W24441  15.598  16.714  11.728  0.0690 -0.0305 -0.0936
 8368W        W24442  12.118  10.505  11.673 -0.2188 -0.1073  0.2555
 8369W        W24443  14.592  15.432  13.424 -0.0446 -0.4244  0.2361
 8370W        W24444  13.821   7.063   5.855  0.0149 -0.2669  0.3350
 8371W        W24445   3.403   4.757   0.222  0.0449 -0.0076  0.1730
 8372W        W24446   0.993   8.906  13.825 -0.0715  0.0102  0.0196
 8373W        W24447  12.748   1.591   2.290 -0.1463 -0.1733  0.1190
 8374W        W24448  10.988  17.738  14.919  0.0402 -0.1887  0.0105
 8375W        W24449  10.897  16.405  13.036  0.2175 -0.0323  0.2044
 8376W        W24450  16.639  11.995   5.862  0.2441  0.2498 -0.2187
 8377W        W24451  10.129   5.678  15.488  0.0017  0.2441  0.2550
 8378W        W24452  12.293  17.116  10.531 -0.1117  0.1445 -0.1115
 8379W        W24453  17.924   7.299   5.171 -0.2201  0.1885 -0.1095
 8380W        W24454   8.387  14.977   2.320  0.2364 -0.1255 -0.0059
 8381W        W24455   4.187  13.503   1.808  0.1148 -0.2780  0.0747
 8382W        W24456  10.529  12.204  15.030 -0.0209  0.2572 -0.3184
 8383W        W24457   4.477   0.330   0.259 -0.4025  0.0459  0.0795
 8384W        W24458   7.482   7.375   1.265 -0.0313  0.1927  0.2658
 8385W        W24459  11.720  10.550  13.584 -0.0560 -0.3118  0.1076
 8386W        W24460   3.966  12.440   5.029 -0.2823 -0.0967 -0.0602
 8387W        W24461   4.480  11.944   0.977 -0.2010 -0.2742 -0.2636
 8388W        W24462   4.371  13.450   2.754  0.0335  0.2841 -0.0796
 8389W        W24463   4.966   4.731  13.478 -0.0817 -0.2840 -0.2501
 8390W        W24464   8.584  15.794  15.390  0.2834 -0.1220 -0.3835
 8391W        W24465   8.034   7.658  13.814  0.0418  0.1246 -0.1804
 8392W        W24466  16.359  14.282  15.471 -0.0658 -0.0199 -0.1567
 8393W        W24467  14.728   3.661  14.394 -0.0716 -0.1776  0.1790
 8394W        W24468  13.029  17.731   1.000  0.1190 -0.0471 -0.0344
 8395W        W24469   4.761   6.484  13.570 -0.0128  0.2226 -0.1611
 8396W        W24470   9.314  13.262   2.939 -0.0236  0.0992 -0.1730
 8397W        W24471  11.075   4.949  14.607 -0.1616  0.2552 -0.0694
 8398W        W24472   8.376  14.999  12.068  0.0312  0.3212 -0.1107
 8399W        W24473   4.381  11.078  11.274 -0.0791 -0.4026  0.1587
 8400W        W24474  17.094   3.553  15.299  0.0774 -0.1145 -0.0515
 8401W        W24475  16.704   1.673  13.811 -0.3503  0.0008  0.0185
 8402W        W24476   9.214  16.428  13.384 -0.0714  0.1036  0.3264
 8403W        W24477   3.268  13.224  10.974 -0.0963 -0.0139 -0.3432
 8404W        W24478  10.892   4.470  12.980  0.2203  0.0174 -0.0547
 8405W        W24479   4.076   6.783  15.732  0.0105 -0.1372  0.3404
 8406W        W24480  12.078  11.632   2.179 -0.1501 -0.0124  0.0706
 8407W        W24481   9.393  16.556  14.155 -0.0520  0.0809  0.1956
 8408W        W24482   6.992  17.228  15.580 -0.2919  0.0532  0.0529
 8409W        W24483  16.548  15.810  12.274  0.0905 -0.0441  0.0439
 8410W        W24484   8.540  10.178  14.022 -0.3857 -0.1825  0.1655
 8411W        W24485   7.182   6.318  14.539 -0.2073 -0.1062  0.0505
 8412W        W24486  15.315  14.919  12.143  0.0569  0.1337 -0.3093
 8413W        W24487   6.406   1.466  12.353  0.1119  0.3296 -0.0184
 8414W        W24488   1.091  10.116   4.571 -0.0686 -0.0309 -0.0703
 8415W        W24489   1.889  11.208   0.897 -0.0310 -0.2836 -0.1005
 8416W        W24490   5.499   5.197  13.013 -0.0330 -0.2431 -0.0836
 8417W        W24491   5.648  15.609   1.470 -0.1089 -0.1883  0.0400
 8418W        W24492   1.870  10.901   4.558 -0.2498 -0.0607 -0.2002
 8419W        W24493   3.299  10.464  15.167 -0.0605  0.0177  0.0914
 8420W        W24494   1.378  10.080  10.861  0.1458 -0.1988 -0.1384
 8421W        W24495  13.788   0.122   0.048 -0.1493  0.1092 -0.0549
 8422W        W24496  13.681  16.902  13.039 -0.0077  0.2109  0.1211
 8423W        W24497  15.335  15.197   1.336  0.0433  0.0252  0.1843
 8424W        W24498  18.135  12.273  12.075 -0.2889  0.0813 -0.1290
 8425W        W24499  15.649   7.745   3.252  0.0681 -0.0400  0.0668
 8426W        W24500  17.817  17.511   3.979 -0.2224 -0.0152 -0.2360
 8427W        W24501   3.857  11.960   2.890 -0.1284 -0.3169 -0.1584
 8428W        W24502  10.690  16.136  16.330  0.1792  0.2460  0.1534
 8429W        W24503  11.788  16.524   1.678 -0.2276  0.0120 -0.0204
 8430W        W24504  10.337  12.864  13.408  0.0309  0.1682 -0.0484
 8431W        W24505  18.287   5.848  11.764 -0.0250 -0.1845  0.0421
 8432W        W24506  15.427   3.573   3.957 -0.2175 -0.3099 -0.0748
 8433W        W24507  14.163   3.944   2.602  0.1097  0.0222  0.0358
 8434W        W24508   3.574  12.012   5.867 -0.0313 -0.0152 -0.1947
 8435W        W24509  12.127   8.019  13.566  0.0134  0.0136  0.2610
 8436W        W24510   5.729   5.319   4.023 -0.1047  0.0029  0.0931
 8437W        W24511  17.428   6.065   2.569  0.1482 -0.0962  0.0246
 8438W        W24512   8.648   3.668  13.600  0.0279  0.2419 -0.3410
 8439W        W24513  10.208   2.725  10.838  0.0374 -0.1881 -0.2421
 8440W        W24514   5.904   5.757   0.306 -0.2932 -0.0038  0.1484
 8441W        W24515   1.052  11.153   2.199  0.3167  0.2158 -0.0586
 8442W        W24516   1.420  15.104  13.060  0.1783 -0.4677  0.0848
 8443W        W24517  16.812  14.333   5.655 -0.0217  0.2144  0.1503
 8444W        W24518  10.913   5.737   0.013  0.0067 -0.1767  0.1509
 8445W        W24519   1.600  12.040  13.328 -0.0255 -0.2381 -0.1475
 8446W        W24520   6.484   4.490   2.818 -0.0863  0.1848  0.3103
 8447W        W24521   3.513  11.654   4.699  0.3355  0.0229  0.3606
 8448W        W24522   7.500  17.338   0.705 -0.0692 -0.1299 -0.0221
 8449W        W24523  12.929   5.737   3.227 -0.1748  0.5285 -0.1777
 8450W        W24524  11.213  11.742   0.264  0.1248  0.0068  0.1149
 8451W        W24525   4.805   9.717  13.127  0.0537  0.1627  0.3781
 8452W        W24526   8.309   0.496  13.122  0.4241  0.3821 -0.0975
 8453W        W24527   9.445   7.805   0.239 -0.0198  0.1041  0.2043
 8454W        W24528  17.506   5.644  12.918 -0.3196  0.1150  0.0471
 8455W        W24529   0.747  17.814  16.127  0.1529 -0.3571  0.2856
 8456W        W24530  12.027   9.562  15.400 -0.1709  0.2769  0.2608
 8457W        W24531  16.068  12.530   1.773  0.0282  0.1689 -0.0625
 8458W        W24532   4.284   6.098   4.234  0.1796  0.1070 -0.1349
 8459W        W24533   1.630   2.304  13.403 -0.0863 -0.2168  0.0955
 8460W        W24534   0.720   3.100   4.917  0.1644 -0.0667 -0.2289
 8461W        W24535  17.661   8.696   0.942 -0.0922 -0.0950  0.0973
 8462W        W24536   0.416   2.957   3.029  0.0654  0.0141 -0.1045
 8463W        W24537   4.719  11.214  15.032  0.5600 -0.0356 -0.1068
 8464W        W24538  10.991  12.421  16.082 -0.0650 -0.2171 -0.1915
 8465W        W24539   9.917  13.799   4.126 -0.2019  0.2703  0.2563
 8466W        W24540  10.740   4.091   9.746  0.1678 -0.1172  0.1957
 8467W        W24541  15.846   3.795   2.502  0.0097 -0.0430 -0.2721
 8468W        W24542   6.055  13.548   4.829 -0.0758 -0.1880  0.1069
 8469W        W24543   2.393   0.999  16.002  0.0738 -0.3872 -0.0513
 8470W        W24544   6.748   9.894   3.295  0.0436 -0.3413 -0.2411
 8471W        W24545   3.437   7.091  16.100  0.1116  0.1737  0.2921
 8472W        W24546  15.462   3.344   3.217  0.0368  0.0255  0.3994
 8473W        W24547   0.156   5.062  12.259 -0.0430 -0.2808 -0.1251
 8474W        W24548  12.241   4.087   6.227 -0.1021 -0.2256 -0.1113
 8475W        W24549   0.891  16.505   3.414 -0.1047  0.1777 -0.0388
 8476W        W24550   1.631   8.498   0.097  0.1178  0.0911  0.4111
 8477W        W24551   5.243   5.213  10.428 -0.0707  0.0805  0.3161
 8478W        W24552   7.968   6.311  12.915  0.0763  0.0303  0.0380
 8479W        W24553   1.249  11.039  11.783 -0.2314 -0.0603  0.0805
 8480W        W24554  13.635  17.899  10.713  0.2623 -0.1672  0.1035
 8481W        W24555  15.522   7.776   1.398  0.0002 -0.1864  0.0329
 8482W        W24556   8.389  13.480   0.671 -0.0943  0.1004 -0.0148
 8483W        W24557   3.994   9.339  13.369 -0.2287  0.0685 -0.2250
 8484W        W24558   2.390  10.661  11.854  0.0471 -0.3299 -0.3625
 8485W        W24559   1.310   1.939   2.314 -0.1649 -0.2176  0.2216
 8486W        W24560   1.852   9.821  11.810  0.0144 -0.1209 -0.0634
 8487W        W24561   8.856   6.546   2.189 -0.0016  0.1270  0.2402
 8488W        W24562   4.905   8.297  15.024  0.0852 -0.0368  0.0565
 8489W        W24563  10.157   9.268  12.964  0.1060  0.2143 -0.0799
 8490W        W24564   7.147  11.624  14.486 -0.0039 -0.0759  0.0587
 8491W        W24565  11.798   0.354   2.822 -0.0521 -0.0056 -0.0573
 8492W        W24566  13.004   7.814   4.504 -0.0691  0.0233  0.2765
 8493W        W24567   8.104   7.581  11.641 -0.2108  0.0807 -0.1268
 8494W        W24568  14.200  10.405  13.922 -0.1199 -0.1673 -0.2881
 8495W        W24569   5.157   8.188  12.781  0.2260  0.1498 -0.0771
 8496W        W24570  13.901  15.111   0.645  0.3290 -0.1175  0.0799
 8497W        W24571   5.589  12.427   1.243  0.1677  0.1636  0.1229
 8498W        W24572   6.325  15.566  15.325  0.1033  0.0478 -0.2145
 8499W        W24573   1.497   1.432  16.332  0.2524  0.3601  0.1030
 8500W        W24574   6.996  14.979  12.748 -0.0941 -0.0188  0.2976
 8501W        W24575  16.618   7.385  15.647  0.0071  0.2211  0.5330
 8502W        W24576  12.422   2.898   2.949 -0.1415 -0.0475 -0.2924
 8503W        W24577   7.658   0.348   5.263 -0.1721  0.1311  0.0941
 8504W        W24578  16.737   6.865   5.311 -0.3039  0.2419 -0.2866
 8505W        W24579   9.561  13.221  15.252  0.5221  0.1188 -0.0396
 8506W        W24580   7.396  16.401   0.402 -0.2364 -0.1744  0.0604
 8507W        W24581  13.381  13.038  11.536  0.4754 -0.1276  0.2360
 8508W        W24582  10.034  12.822  15.374  0.1313 -0.0129 -0.0105
 8509W        W24583   6.558   0.976   3.570  0.3180  0.0763 -0.2246
 8510W        W24584   4.606   1.816  15.958 -0.0113 -0.0839  0.2009
 8511W        W24585   2.515  17.718   3.557  0.2043 -0.1679 -0.0872
 8512W        W24586  15.662   2.467  12.443 -0.2145 -0.2126 -0.0770
 8513W        W24587   9.359   0.155  11.751  0.0727  0.3348  0.3037
 8514W        W24588  18.096   0.305  12.781 -0.0854  0.2009  0.1629
 8515W        W24589  10.900  14.407   5.570  0.0115 -0.1841  0.1767
 8516W        W24590   0.734  16.850   0.449  0.0284 -0.0366 -0.0764
 8517W        W24591   9.433  14.444   2.909  0.2958  0.3467  0.0622
 8518W        W24592  11.757  17.120  12.858 -0.0181 -0.1964  0.1141
 8519W        W24593   0.343   6.635   3.410  0.1703  0.0610  0.1669
 8520W        W24594   1.880  12.993   4.105  0.2067  0.0549 -0.1205
 8521W        W24595   1.710  11.724   5.764  0.0892 -0.0395 -0.1633
 8522W        W24596   4.401  16.609   1.506 -0.0974  0.1397  0.3675
 8523W        W24597   0.215   4.450  14.641  0.2771  0.0236 -0.0505
 8524W        W24598   7.959  11.084  15.729  0.0515  0.2473 -0.1292
 8525W        W24599  18.256   7.630  15.987  0.2348 -0.4855  0.2701
 8526W        W24600  10.489   5.681  12.736  0.0471  0.0975  0.0089
 8527W        W24601  12.933   2.386   0.776  0.1662 -0.2284  0.3286
 8528W        W24602  10.636   5.296  11.566  0.1791  0.1097  0.0221
 8529W        W24603   9.441   7.897  11.998  0.0448  0.1618 -0.0455
 8530W        W24604   5.995   0.937   3.790  0.2563 -0.1458  0.1517
 8531W        W24605   4.565  15.358  14.422 -0.3036 -0.0390  0.1665
 8532W        W24606   0.040  16.933   4.658 -0.0166  0.0953 -0.2776
 8533W        W24607  10.407   7.246  11.949 -0.1925 -0.2268 -0.1865
 8534W        W24608   7.158   4.779  14.674  0.2025  0.3015 -0.0291
 8535W        W24609   7.423   8.075   5.861 -0.2208 -0.1688 -0.0389
 8536W        W24610   7.019  11.336  15.027 -0.1182 -0.3443 -0.2349
 8537W        W24611  13.903   3.193   4.773  0.1163  0.1600  0.0576
 8538W        W24612  14.621  13.782   5.842 -0.0109  0.0288 -0.2977
 8539W        W24613  13.875   8.234   4.003  0.0384  0.0817 -0.2437
 8540W        W24614  11.607   2.786  12.358 -0.1367 -0.1242  0.5895
 8541W        W24615   3.581   8.661   1.924 -0.0308 -0.0948 -0.0213
 8542W        W24616   5.283  12.746   6.156 -0.1271  0.0542 -0.1132
 8543W        W24617   2.641   5.324   4.545 -0.2119  0.1331  0.3711
 8544W        W24618  14.669   6.416   3.236 -0.1747  0.1437  0.1046
 8545W        W24619  10.072   9.503  15.490 -0.0813  0.1368  0.0529
 8546W        W24620  17.122  13.412   2.139 -0.3700  0.3135  0.0413
 8547W        W24621   3.282   0.137  15.185 -0.0024 -0.0825  0.1809
 8548W        W24622   8.267   4.160  13.009 -0.0846 -0.0078  0.2146
 8549W        W24623   0.811  11.019   1.336 -0.1125  0.0414  0.0526
 8550W        W24624   0.365   7.345  15.548  0.0546  0.1446 -0.3266
 8551W        W24625   9.488   9.716  13.273  0.2188  0.2500  0.2842
 8552W        W24626  16.883   1.329  12.471 -0.0248 -0.2244 -0.0209
 8553W        W24627  15.667   1.558  15.358 -0.2223 -0.2330  0.0531
 8554W        W24628   8.900   5.808  10.929 -0.1443 -0.1786  0.2467
 8555W        W24629  18.255   1.084   1.665 -0.1752 -0.3636  0.3409
 8556W        W24630  15.116  16.531   1.721 -0.0185 -0.0256  0.1572
 8557W        W24631  17.086   2.146   5.301 -0.1050  0.1905  0.1006
 8558W        W24632   9.283   7.594   4.554 -0.2749  0.0601 -0.2520
 8559W        W24633   9.411   3.666   0.904  0.3056 -0.0378 -0.0721
 8560W        W24634  11.767  13.099   2.304 -0.4791 -0.1322 -0.0663
 8561W        W24635  15.589  14.595   3.196  0.1624  0.2911  0.0679
 8562W        W24636  12.961  13.074  15.105  0.0999  0.0460 -0.1554
 8563W        W24637   6.256  17.714  11.822  0.1814  0.1860  0.1185
 8564W        W24638  15.915  10.382   4.076  0.1365 -0.1826  0.1699
 8565W        W24639   0.866   4.018   0.549  0.0694 -0.1047 -0.0853
 8566W        W24640  16.180   9.101  13.779  0.2465  0.1711  0.0453
 8567W        W24641  11.282  14.481   1.069  0.1506  0.1665  0.3792
 8568W        W24642  10.948   0.152   1.051 -0.2246 -0.1489  0.1611
 8569W        W24643  12.719   2.241  11.547  0.0836 -0.1837  0.0965
 8570W        W24644   7.308  13.016  13.547 -0.0975  0.5158 -0.1657
 8571W        W24645   7.509   8.052   2.469 -0.1013 -0.3350 -0.0028
 8572W        W24646   3.820  12.012  15.532 -0.3225 -0.0469 -0.0825
 8573W        W24647   9.225   2.963  14.119 -0.2857  0.0585  0.2861
 8574W        W24648   4.522   3.647   1.583 -0.1505  0.2225  0.0155
 8575W        W24649  15.503   2.993   4.079 -0.1048 -0.0579 -0.2080
 8576W        W24650   8.942  15.566   2.991 -0.0604  0.1144 -0.6128
 8577W        W24651   4.872  16.353   0.090 -0.1222  0.0874 -0.0502
 8578W        W24652  15.780  10.083   4.561  0.0360 -0.5955 -0.0337
 8579W        W24653  10.936  12.457  12.170 -0.0802 -0.0284 -0.0286
 8580W        W24654  14.704  14.653  16.032  0.2993  0.0969  0.0421
 8581W        W24655   2.377   0.223   0.853  0.1187  0.2240 -0.1377
 8582W        W24656  13.719   1.374  15.338  0.3306 -0.0020 -0.1312
 8583W        W24657  16.214  11.654  15.853 -0.1724  0.1683 -0.0352
 8584W        W24658   3.132  10.190  16.254  0.2987 -0.3264 -0.0267
 8585W        W24659  18.100   6.876  15.445  0.0844  0.1629  0.0935
 8586W        W24660   3.210  12.992   0.660  0.1343 -0.2835 -0.2922
 8587W        W24661  12.211   1.566   0.112 -0.2201 -0.1233  0.2336
 8588W        W24662   7.796   2.645   3.394  0.1039 -0.1182 -0.0885
 8589W        W24663  16.368   1.612   3.058 -0.3705  0.0272 -0.2855
 8590W        W24664  17.039   4.437   0.692  0.1338  0.0798 -0.1349
 8591W        W24665  16.007  13.630  12.639 -0.4135 -0.0564 -0.0456
 8592W        W24666   4.971   4.624  15.352  0.1966  0.0649  0.0167
 8593W        W24667  11.051   1.998  15.768  0.0592  0.1535 -0.1804
 8594W        W24668  17.664  11.232   1.871 -0.1354 -0.3719 -0.1566
 8595W        W24669   5.037   2.424   6.229 -0.0731 -0.2126  0.1034
 8596W        W24670  13.976   0.976  12.539  0.2258  0.1301 -0.1087
 8597W        W24671  13.913   8.226   0.716  0.0275  0.1919  0.0060
 8598W        W24672   5.322   9.177  13.403  0.1738  0.1592  0.0836
 8599W        W24673  13.788  11.980   4.722  0.1816 -0.0012 -0.0781
 8600W        W24674  11.651   8.512  13.235  0.0793 -0.2027  0.1581
 8601W        W24675   5.069  14.435  15.659  0.0791 -0.1082 -0.1616
 8602W        W24676  13.013   8.749   4.959 -0.0218 -0.1872  0.4412
 8603W        W24677  13.846  13.678  14.350 -0.0510  0.2088  0.0583
 8604W        W24678   7.659   3.966   2.354  0.1901 -0.0312  0.1051
 8605W        W24679  12.274   7.428  14.366  0.0306 -0.1653 -0.0383
 8606W        W24680   1.274  15.232  15.361  0.1751  0.2840  0.0620
 8607W        W24681  17.103  13.511  11.879 -0.1834  0.0487  0.0388
 8608W        W24682   1.212   6.934   4.929 -0.2022 -0.2518  0.1147
 8609W        W24683   7.677  10.028   2.387  0.1104 -0.3803 -0.2452
 8610W        W24684   9.693   5.316   3.452 -0.0521 -0.0678 -0.1788
 8611W        W24685  10.721   5.879   4.208 -0.1383  0.3714 -0.0622
 8612W        W24686  13.667   0.521   4.824 -0.1817  0.3023 -0.0250
 8613W        W24687   8.803  17.309  15.302  0.0467  0.5049  0.2005
 8614W        W24688   0.745   4.727  14.079  0.3414  0.1182  0.0114
 8615W        W24689  14.663   9.610  12.288 -0.0874  0.1167 -0.6138
 8616W        W24690  11.649  14.591  12.648 -0.0694  0.2105  0.1091
 8617W        W24691  10.974  14.877   4.890  0.5607  0.5462  0.2358
 8618W        W24692   1.767   0.936   4.033  0.2122 -0.2926 -0.1078
 8619W        W24693  13.780  17.153  15.996 -0.2440 -0.3241  0.1865
 8620W        W24694  11.354   4.201   0.349 -0.0791 -0.3414 -0.0489
 8621W        W24695   2.369   2.430  14.251  0.2068  0.3390  0.1059
 8622W        W24696   1.416   7.830  13.134 -0.5266  0.0786  0.1715
 8623W        W24697  17.145  13.982  11.698  0.2688 -0.2301  0.1005
 8624W        W24698   6.944  15.467  12.474  0.1707 -0.1213  0.0570
 8625W        W24699   4.721   8.495   4.230  0.0248 -0.0647 -0.0148
 8626W        W24700  15.094  11.910  14.049  0.0555 -0.1459 -0.2342
 8627W        W24701  16.947   0.511   5.102 -0.0604  0.0156 -0.0150
 8628W        W24702  10.716  12.381  14.157  0.0785  0.0711  0.1735
 8629W        W24703   8.890   4.662  16.345  0.1874  0.0375  0.1254
 8630W        W24704  14.250   3.387   3.805  0.1261 -0.2248  0.0938
 8631W        W24705  15.203  10.783  15.463 -0.0724  0.1013  0.1600
 8632W        W24706   6.254   6.082   4.185  0.0100  0.3626 -0.3172
 8633W        W24707  14.960  16.429   0.870 -0.0550 -0.1724 -0.0139
 8634W        W24708   8.257   3.539   4.266 -0.1743  0.1974  0.0666
 8635W        W24709  14.214  10.646  11.026  0.0522  0.0311  0.3719
 8636W        W24710   7.996   5.455   1.245 -0.1950 -0.3811  0.1413
 8637W        W24711  16.732   5.441  14.416 -0.2323 -0.0994  0.1893
 8638W        W24712   3.783  17.077  16.047 -0.5258 -0.0565  0.0089
 8639W        W24713  11.736   8.777   5.397  0.0982 -0.1159  0.0467
 8640W        W24714   6.476   4.183  11.175 -0.0594 -0.1331  0.3329
 8641W        W24715   4.337  11.016  14.650  0.0142  0.3110  0.1203
 8642W        W24716   5.324   6.813  13.263  0.2910  0.2841  0.5859
 8643W        W24717   2.793   8.447  13.139  0.3054  0.1701 -0.0420
 8644W        W24718   2.805  17.576   4.897 -0.0214  0.3163 -0.1267
 8645W        W24719   6.173  12.100   5.916 -0.1514 -0.3985 -0.1551
 8646W        W24720  11.192  18.303  16.163  0.1641 -0.1180  0.0805
 8647W        W24721  13.817  13.200   0.424  0.0396 -0.1689  0.0276
 8648W        W24722   0.841   4.117  14.601  0.0446  0.0534 -0.1986
 8649W        W24723   4.178  11.847  11.311  0.2356  0.0681 -0.0512
 8650W        W24724  11.344   4.667  11.989  0.0408  0.1051  0.4768
 8651W        W24725  13.644  10.485   1.310 -0.3025  0.0791 -0.2204
 8652W        W24726   6.664   9.863   1.623 -0.3043 -0.0909 -0.2276
 8653W        W24727   7.021   6.958  16.032 -0.1231 -0.0036  0.3343
 8654W        W24728  15.653   3.864  12.458 -0.1877  0.2429  0.0079
 8655W        W24729  16.505   1.925  15.339 -0.1131  0.1628  0.0382
 8656W        W24730   7.571  16.656   3.717  0.3915  0.1138  0.1265
 8657W        W24731   1.808  10.574   3.757  0.2165  0.0255 -0.1080
 8658W        W24732  16.209   3.910   4.321  0.2753  0.1297 -0.1862
 8659W        W24733   9.937   6.331   0.708 -0.2761 -0.0798  0.1589
 8660W        W24734   4.832  11.732   5.271  0.1905 -0.0074 -0.0124
 8661W        W24735  11.384  16.757   3.526 -0.2407 -0.1271 -0.2619
 8662W        W24736  11.826  12.303  12.208  0.4137 -0.0706  0.3190
 8663W        W24737   9.111  14.452  16.109  0.3660 -0.2111  0.0072
 8664W        W24738  16.747   9.680   4.081  0.1070 -0.2486 -0.1050
 8665W        W24739   0.486  14.022  15.061 -0.6052 -0.0948 -0.2004
 8666W        W24740  18.282  16.319   4.018 -0.3923  0.0873 -0.0901
 8667W        W24741   6.363  12.493   3.092  0.0471  0.1769 -0.2185
 8668W        W24742   8.343  14.352   0.811  0.0788 -0.0335 -0.2342
 8669W        W24743  13.961  13.724   1.304  0.0875 -0.1585 -0.0812
 8670W        W24744  11.792   5.800   0.989  0.2729  0.0663  0.1931
 8671W        W24745  14.882   6.425  15.970 -0.1063  0.3871  0.3075
 8672W        W24746  14.067   0.650  13.165 -0.0553  0.0200  0.1126
 8673W        W24747  17.290  10.642   4.059 -0.1923  0.1212 -0.7089
 8674W        W24748  17.680  12.327  15.021  0.0270  0.0358  0.0235
 8675W        W24749   7.674  10.608  14.730  0.0351 -0.0391 -0.2132
 8676W        W24750   4.816   2.150  14.074 -0.1968  0.2930 -0.0123
 8677W        W24751  10.347  10.925   2.087  0.0505  0.0003  0.1104
 8678W        W24752   6.248  12.592  11.716  0.0500  0.0010  0.0985
 8679W        W24753  12.326   5.304  11.307  0.1879  0.0339 -0.0219
 8680W        W24754  13.725   4.334   0.059  0.0571  0.1092 -0.3755
 8681W        W24755   6.243   8.347  15.937 -0.1935 -0.0249 -0.1272
 8682W        W24756   6.724  15.976  10.353  0.1217 -0.0023 -0.1792
 8683W        W24757   0.638   2.838   0.192 -0.0093  0.1120  0.0556
 8684W        W24758   9.670   1.843  14.922 -0.0313 -0.2263  0.1653
 8685W        W24759   0.601   9.393   1.109 -0.0993  0.1489 -0.0004
 8686W        W24760  10.690   2.465   1.190  0.1558 -0.2242 -0.2037
 8687W        W24761   2.257  14.970   5.851 -0.0545 -0.0867 -0.3734
 8688W        W24762  12.480  15.833  12.511  0.0333  0.0131  0.2041
 8689W        W24763   1.787   0.836  15.575  0.1175 -0.1731 -0.1577
 8690W        W24764   5.675   1.799   5.675 -0.0572  0.1528  0.1509
 8691W        W24765   6.866  14.248  12.342  0.2127  0.1953 -0.1160
 8692W        W24766  18.136   5.332   5.317  0.0320 -0.1167  0.0954
 8693W        W24767   0.537  11.908  13.232  0.1738 -0.0794  0.3569
 8694W        W24768  11.204   1.257  14.001 -0.2296 -0.2688 -0.1913
 8695W        W24769  11.063  16.799  12.058 -0.0845  0.0669 -0.3694
 8696W        W24770   2.621   5.249   2.686 -0.0522  0.3461  0.2627
 8697W        W24771  13.558   5.798   5.731 -0.1136  0.2875  0.1438
 8698W        W24772   8.366   3.264   3.237  0.2254  0.1032  0.0391
 8699W        W24773   5.847   7.690   3.601 -0.2618 -0.2297  0.0776
 8700W        W24774   7.188   4.629  16.026  0.0538 -0.1088  0.0457
 8701W        W24775  10.201   0.549  11.893 -0.1402 -0.0047  0.1394
 8702W        W24776  12.650  12.469  13.881  0.2071  0.3521  0.1620
 8703W        W24777   9.270   6.731  12.968 -0.0417 -0.3058  0.4177
 8704W        W24778  16.979   9.642  12.588  0.0893 -0.1920  0.0744
 8705W        W24779   1.578   9.577  13.859 -0.0588 -0.2143 -0.0755
 8706W        W24780   1.500   8.957  15.740 -0.0132 -0.1154  0.2133
 8707W        W24781  11.531   4.094   0.794  0.0721 -0.0664  0.1448
 8708W        W24782   9.131  12.621  14.644 -0.1056  0.3361 -0.1212
 8709W        W24783   7.929   9.178   0.576  0.0078  0.2287  0.6002
 8710W        W24784   0.880  17.407   0.550 -0.0570  0.2540  0.2785
 8711W        W24785  12.749   2.627   1.485  0.1058  0.1323 -0.1515
 8712W        W24786   7.104  12.886  11.662  0.1453  0.4189 -0.0977
 8713W        W24787   3.479  15.827   1.276  0.0907  0.0074 -0.2319
 8714W        W24788   2.643  16.898  11.723  0.3000  0.0284  0.0152
 8715W        W24789  18.052  16.263   0.024 -0.3506  0.2707  0.1683
 8716W        W24790   3.328  17.347  13.248  0.1385  0.4010  0.1285
 8717W        W24791   3.996   5.608  13.864 -0.0124  0.1289 -0.0385
 8718W        W24792  16.271   0.816   1.709  0.1150 -0.0546 -0.0213
 8719W        W24793   4.163   0.741  14.593 -0.1187 -0.1402 -0.0930
 8720W        W24794   9.488   0.838   4.946  0.1496  0.2871 -0.1763
 8721W        W24795  13.983   3.926  13.904 -0.2037 -0.2970 -0.0991
 8722W        W24796   2.265   7.474  12.724 -0.2011  0.1538  0.2768
 8723W        W24797   4.352  13.946   1.653 -0.0608  0.0564 -0.2373
 8724W        W24798   9.476  16.653   1.870  0.0863  0.0903 -0.0162
 8725W        W24799  10.973  10.314  15.839  0.1108  0.4884  0.0957
 8726W        W24800  12.632  12.282  12.797  0.1520  0.1255 -0.0199
 8727W        W24801  15.745  14.106  12.327  0.0680  0.1061 -0.0723
 8728W        W24802   6.366  16.216   1.691  0.0345  0.0406  0.0823
 8729W        W24803  12.840  15.417  14.568  0.2181  0.0394 -0.0879
 8730W        W24804  16.203   8.238   0.767 -0.1914 -0.0019 -0.1183
 8731W        W24805   5.305   6.028  12.822  0.3501 -0.2970  0.3802
 8732W        W24806   4.238  13.637  16.358  0.2378  0.1128 -0.2303
 8733W        W24807  16.840   3.872   1.395  0.1578 -0.1513 -0.0314
 8734W        W24808   5.807  13.019   6.011 -0.0726 -0.1771 -0.0656
 8735W        W24809  15.909   8.031  11.457 -0.2382 -0.2583 -0.2339
 8736W        W24810  11.185  12.021  12.385  0.4078  0.2528 -0.1843
 8737W        W24811  13.403  17.158   0.145  0.2476  0.2457  0.1491
 8738W        W24812   5.532   0.882   3.570 -0.0026  0.0197  0.3794
 8739W        W24813  17.969   0.679  11.880 -0.2167 -0.3938  0.0012
 8740W        W24814   7.800   0.962   2.765 -0.0460 -0.4106  0.0572
 8741W        W24815   0.973   5.695   4.586  0.1797 -0.0372 -0.0286
 8742W        W24816   9.609   8.452   5.524  0.2430  0.2038  0.0949
 8743W        W24817   2.801  13.308   1.732 -0.1872  0.0289 -0.1092
 8744W        W24818   1.298   6.096  12.349 -0.0810 -0.2537  0.1821
 8745W        W24819   0.962   3.640  13.120 -0.0079  0.0750  0.0479
 8746W        W24820  10.555   7.141   0.949 -0.1514 -0.3089 -0.2420
 8747W        W24821   1.686   7.191   0.074 -0.0002  0.2072 -0.3391
 8748W        W24822   3.209   5.509  13.285 -0.1854 -0.3119 -0.0063
 8749W        W24823   3.136   8.663   4.647  0.0173  0.1293  0.0385
 8750W        W24824  10.659   4.189  10.622  0.1302 -0.2033 -0.0420
 8751W        W24825  10.627  16.693  13.783 -0.0001  0.1868  0.1600
 8752W        W24826   2.004   4.632   5.815 -0.1163  0.1321  0.2548
 8753W        W24827  14.034   3.464   6.114  0.0100 -0.1889 -0.0554
 8754W        W24828   3.876   5.052  14.748 -0.3397 -0.2040 -0.0014
 8755W        W24829   2.238   7.613  16.263 -0.1424  0.0441  0.0147
 8756W        W24830   1.761  10.768   0.126 -0.0103  0.2265  0.1419
 8757W        W24831  15.866   5.550  13.872 -0.3572 -0.1440  0.0960
 8758W        W24832  12.510  16.774   2.462 -0.0317  0.2654  0.0037
 8759W        W24833   6.767  12.427  11.668 -0.2617 -0.2911  0.1612
 8760W        W24834  15.330  18.270  12.407 -0.1663 -0.2612 -0.0566
 8761W        W24835   6.192  15.533   1.707 -0.5215 -0.0941 -0.0994
 8762W        W24836  17.243  17.956   3.525  0.1963 -0.0511  0.0348
 8763W        W24837   1.917   1.104  14.604 -0.2104  0.0378  0.3413
 8764W        W24838   2.716   3.146  13.259  0.0638 -0.2233  0.0256
 8765W        W24839   9.605  10.437  14.699  0.1950 -0.0693 -0.2223
 8766W        W24840   2.519  13.002  13.239  0.0333 -0.3572 -0.0440
 8767W        W24841  14.652   5.721   5.449 -0.1502 -0.0027  0.0933
 8768W        W24842  13.720  16.806   2.243  0.0459 -0.0382  0.4680
 8769W        W24843   8.175  15.679   5.021 -0.2192 -0.0196 -0.1058
 8770W        W24844  10.304  13.235  15.668 -0.1775  0.0614  0.2580
 8771W        W24845  11.493   6.212   6.148 -0.2464 -0.0275 -0.0571
 8772W        W24846  17.359   9.702  13.820  0.1457  0.0425 -0.2962
 8773W        W24847   3.162  15.875  15.706 -0.0740  0.0911  0.1348
 8774W        W24848  13.883  17.308   2.365  0.3148 -0.1871 -0.1509
 8775W        W24849  11.521   0.308  16.318 -0.3339 -0.0395 -0.0450
 8776W        W24850   8.452  13.062  13.923 -0.0238 -0.0418 -0.0701
 8777W        W24851  18.035   2.491   3.482  0.1803 -0.3686  0.0600
 8778W        W24852   1.587  18.161   3.426  0.1408 -0.0968 -0.2123
 8779W        W24853   0.400  17.370  13.537  0.0380 -0.0741  0.0824
 8780W        W24854   0.302   9.199   1.637 -0.0783  0.0546  0.0798
 8781W        W24855   5.911   5.072   5.833 -0.0867 -0.0654  0.0355
 8782W        W24856  10.367   0.173  12.219 -0.2702 -0.0209  0.3828
 8783W        W24857   6.326  17.184   0.954 -0.1820  0.1175 -0.3203
 8784W        W24858   3.231   0.296   4.155 -0.1486  0.0645 -0.0344
 8785W        W24859  11.784   8.871   1.040 -0.2617 -0.0359 -0.1212
 8786W        W24860  15.513  11.055  15.755 -0.1767  0.0195 -0.0710
 8787W        W24861   0.538   6.409   1.497 -0.0475 -0.0659 -0.3739
 8788W        W24862   6.874  16.015   0.288  0.0878  0.1676 -0.2543
 8789W        W24863   8.842   6.823   4.834  0.2158  0.2055  0.2356
 8790W        W24864   7.989   0.699   4.669  0.0028  0.2890  0.0705
 8791W        W24865  14.812   7.073  15.135  0.4595  0.0168  0.3677
 8792W        W24866   5.479   2.281  12.216 -0.3254  0.0081 -0.1316
 8793W        W24867   7.744   2.563   3.905 -0.3926  0.2023 -0.0540
 8794W        W24868   1.547  10.457   0.454  0.1783 -0.3073 -0.1241
 8795W        W24869   7.863  17.130   0.992 -0.1590 -0.2138  0.2430
 8796W        W24870   5.994   1.107   5.309  0.0942  0.2663 -0.0246
 8797W        W24871   1.411   3.671   5.663  0.0216 -0.0563 -0.5238
 8798W        W24872  13.364   2.370   3.383 -0.3271 -0.0272 -0.0388
 8799W        W24873  12.758   9.126   2.052 -0.0935 -0.0336  0.3116
 8800W        W24874   0.004   3.027   4.117  0.0633 -0.1541  0.0509
 8801W        W24875   2.515  11.992  12.960 -0.1760  0.0643  0.1446
 8802W        W24876   1.885   9.894   2.102  0.1932  0.3207  0.0707
 8803W        W24877  17.897   6.190   1.308 -0.1249 -0.1954  0.0456
 8804W        W24878   8.014   8.817   3.834 -0.2136 -0.0885  0.1425
 8805W        W24879   7.116  16.704   2.106 -0.1187 -0.3293 -0.1145
 8806W        W24880  16.443  11.009  11.809  0.3457  0.2722  0.2050
 8807W        W24881  18.179   7.790  11.470  0.2525 -0.0821 -0.1039
 8808W        W24882   8.342   3.880   1.597  0.2196 -0.3196 -0.0539
 8809W        W24883  12.427   6.931  16.073 -0.2306 -0.2097  0.3064
 8810W        W24884   8.710   9.975   0.846 -0.1358 -0.2530 -0.0740
 8811W        W24885  14.681   0.691   5.357 -0.1277 -0.0908 -0.1999
 8812W        W24886  15.333  16.456  13.038  0.4227 -0.2203  0.1044
 8813W        W24887  15.438  12.101  12.734 -0.0075 -0.1576  0.3636
 8814W        W24888   9.563   6.450   0.094  0.0416 -0.2595  0.1737
 8815W        W24889   6.604   8.066   2.056 -0.0174 -0.6056 -0.1786
 8816W        W24890   1.668  15.593  14.405  0.1522 -0.2296  0.2204
 8817W        W24891   9.357  16.898   4.197 -0.0869 -0.2144 -0.1009
 8818W        W24892  17.995   1.884  15.348  0.0018  0.0029 -0.2791
 8819W        W24893   5.558  12.597  12.545  0.0076 -0.4135 -0.0646
 8820W        W24894   6.184   3.816  10.270  0.0187  0.1116  0.4428
 8821W        W24895  15.928   9.685  16.112  0.1176 -0.2068  0.0967
 8822W        W24896  14.960  11.560  16.008 -0.0857 -0.1481 -0.2051
 8823W        W24897   4.806   6.791  12.421  0.1530 -0.0763 -0.1864
 8824W        W24898   7.874   7.042  11.453  0.2175  0.1945  0.0516
 8825W        W24899  10.203   1.657  16.233 -0.1561 -0.1358 -0.0283
 8826W        W24900  16.395  12.320  10.990  0.0171  0.1999  0.0963
 8827W        W24901   9.085   9.949  14.246  0.0308  0.0423 -0.2422
 8828W        W24902   7.085  17.710  15.663  0.1966  0.2216  0.1824
 8829W        W24903   6.648  17.559  14.361 -0.2679  0.0832 -0.1561
 8830W        W24904  12.275  13.955  15.152 -0.3310  0.2204 -0.0603
 8831W        W24905   0.512  13.687  13.966 -0.1358  0.1836  0.0758
 8832W        W24906   3.890  12.886   4.799  0.0278 -0.3816  0.5279
 8833W        W24907  14.434  12.828   4.911 -0.1262 -0.4045 -0.0083
 8834W        W24908  16.415  13.612   0.729 -0.5867 -0.1317  0.1451
 8835W        W24909  17.591  10.288  12.652  0.2003 -0.4627  0.0764
 8836W        W24910   7.380  10.503  13.231 -0.0176 -0.1600 -0.1211
 8837W        W24911  15.404   8.931   0.881 -0.0580  0.0410  0.1147
 8838W        W24912   4.509  10.039   3.042  0.1274 -0.2009 -0.0453
 8839W        W24913  15.466  13.946  15.652 -0.1106  0.0595 -0.1848
 8840W        W24914  16.403  15.139  15.261  0.0846  0.1372 -0.1493
 8841W        W24915  11.577  15.840  13.192 -0.2110  0.3712  0.0935
 8842W        W24916  13.561   6.344  15.698 -0.1261 -0.1447 -0.0917
 8843W        W24917  14.310  15.969  11.703 -0.2809  0.0023  0.0351
 8844W        W24918   8.911  13.173  14.575  0.1647 -0.0259  0.1598
 8845W        W24919  10.556  13.101   3.435  0.1391  0.0633  0.2814
 8846W        W24920   8.485  12.542  10.588  0.0839 -0.0081  0.2606
 8847W        W24921   4.193  12.033  11.856  0.2682  0.1717 -0.0070
 8848W        W24922  12.563   2.804  13.782  0.0595 -0.0007 -0.0159
 8849W        W24923   2.023   2.644  13.383 -0.1073  0.0355  0.1066
 8850W        W24924   9.580  12.233  11.891  0.1635 -0.2842  0.2350
 8851W        W24925   4.471   3.826   2.435  0.2173 -0.2388 -0.0416
 8852W        W24926   6.362   1.798  16.063  0.0777  0.2958 -0.2671
 8853W        W24927   9.276  13.926   4.689  0.2376 -0.1555  0.2346
 8854W        W24928   4.618  13.102   2.979  0.1082 -0.1355  0.1192
 8855W        W24929   7.204  15.242  13.440  0.3113 -0.2674 -0.2060
 8856W        W24930  16.009  12.564   5.365 -0.0220 -0.0823  0.1660
 8857W        W24931   0.780  11.042  13.234  0.0963 -0.2198  0.0392
 8858W        W24932  13.111  11.860  15.514 -0.1496  0.0183 -0.2840
 8859W        W24933   7.799   9.798  12.906  0.4555  0.0704 -0.1744
 8860W        W24934   0.622   1.472  14.326  0.4273 -0.3390  0.1732
 8861W        W24935  16.035   2.499   0.114  0.0625 -0.2232 -0.1607
 8862W        W24936  11.392   3.481   6.235 -0.0011 -0.1616  0.0675
 8863W        W24937   0.622   3.773   0.167  0.0631 -0.0245 -0.1460
 8864W        W24938   4.728  15.888   3.240 -0.1047  0.1634 -0.1033
 8865W        W24939  10.439   3.967   1.369 -0.3520 -0.3410  0.1845
 8866W        W24940  12.897  12.955  14.207  0.1593 -0.0896 -0.0225
 8867W        W24941  12.065   1.585  13.870  0.1870 -0.3006 -0.1742
 8868W        W24942   6.585  17.498   5.276  0.0962 -0.0552 -0.0993
 8869W        W24943  13.475   2.060   3.019  0.4134 -0.0429 -0.3954
 8870W        W24944  15.441  10.636   2.468  0.0831  0.1178 -0.2439
 8871W        W24945   7.829   4.769   0.681 -0.2203 -0.2823  0.1880
 8872W        W24946  15.602   6.645  15.496 -0.0128 -0.2121 -0.2209
 8873W        W24947  14.624  17.298   1.321  0.1413 -0.1138 -0.0684
 8874W        W24948   6.024   5.726  12.652 -0.3282 -0.0578 -0.1600
 8875W        W24949  17.635  17.110   1.178  0.0487 -0.0304 -0.2974
 8876W        W24950  12.294   7.454  16.188 -0.2881  0.1882  0.3084
 8877W        W24951   6.796   2.275  15.327  0.0624  0.0311  0.1450
 8878W        W24952  13.302   8.316  16.000  0.2545 -0.1657 -0.0773
 8879W        W24953  17.716  13.868  14.711  0.2073  0.1034  0.1062
 8880W        W24954  18.223   9.649  14.391 -0.1636  0.1052  0.0480
 8881W        W24955   0.879   7.633  11.233 -0.1035  0.1563 -0.1317
 8882W        W24956  10.518  17.656  12.240 -0.0234  0.1620 -0.2133
 8883W        W24957  12.443   8.173   1.647  0.0530 -0.1020  0.1238
 8884W        W24958  13.070   9.268   1.722 -0.2143  0.0736  0.2011
 8885W        W24959  12.520  17.593   2.344  0.2314  0.0795 -0.0410
 8886W        W24960   6.791   8.132  12.822 -0.1273  0.0088 -0.0997
 8887W        W24961   3.112   1.012   5.421 -0.0301 -0.0022  0.1927
 8888W        W24962   1.291   4.047  14.539 -0.2161 -0.1013 -0.3514
 8889W        W24963   9.781   2.881   9.544 -0.1316  0.3087  0.0247
 8890W        W24964  11.783  16.590   0.882 -0.0194  0.0482 -0.4628
 8891W        W24965   3.750  14.817   0.013 -0.0417 -0.1107  0.2437
 8892W        W24966  15.645  17.366   1.297  0.1155  0.0789  0.1713
 8893W        W24967  11.590   5.982   4.419 -0.1429 -0.2393  0.0919
 8894W        W24968  10.332  12.135   4.953  0.0111 -0.3996  0.2386
 8895W        W24969   9.634  15.430  11.575  0.1862 -0.1896 -0.1070
 8896W        W24970  13.812  18.106  11.781 -0.1721  0.1462  0.1209
 8897W        W24971  14.372  10.380  12.831 -0.0472  0.0527  0.0493
 8898W        W24972   2.011   2.679  16.195 -0.1784 -0.2322  0.2433
 8899W        W24973  15.140  12.260   2.698 -0.1134  0.1382  0.0347
 8900W        W24974   8.998   1.320   3.077  0.0227  0.1698  0.1403
 8901W        W24975   7.357  11.665  12.293  0.0362  0.0879 -0.1082
 8902W        W24976   9.035  14.006  15.253  0.0555  0.2849  0.2936
 8903W        W24977   1.198   3.256   2.612  0.1726  0.0347  0.2468
 8904W        W24978   1.536  17.876   5.527  0.1456 -0.4084  0.0158
 8905W        W24979   2.820   5.282   3.683  0.1405 -0.0133 -0.0299
 8906W        W24980  12.874  17.914  12.813 -0.3717 -0.0373  0.0521
 8907W        W24981  16.500   1.977  15.873  0.0035 -0.2847 -0.0099
 8908W        W24982   3.166   4.885  16.136  0.0661  0.1350 -0.2883
 8909W        W24983   0.660  10.885   4.364 -0.0558 -0.2190  0.1851
 8910W        W24984   5.285   8.424   3.978  0.0047  0.2032 -0.0016
 8911W        W24985   6.922  13.394  11.828 -0.1095 -0.0813  0.3513
 8912W        W24986   2.105   8.572  11.601  0.1572  0.0721  0.0933
 8913W        W24987   4.626  16.836   0.173 -0.1431  0.1450 -0.1107
 8914W        W24988  13.540   8.129   5.577  0.0163  0.1967 -0.1485
 8915W        W24989  16.356  17.345   0.543  0.1214 -0.3274 -0.0218
 8916W        W24990   6.941  10.747  16.212 -0.1610 -0.0672 -0.2321
 8917W        W24991  13.505   3.560   3.108 -0.2276 -0.3009  0.3002
 8918W        W24992  16.886   3.542   5.453  0.0225  0.1369  0.0971
 8919W        W24993  15.125   8.231  11.611 -0.1693 -0.2447  0.0759
 8920W        W24994   8.591   1.585   4.843  0.0082  0.0362  0.0929
 8921W        W24995  14.868  16.464  11.310  0.0629 -0.3813 -0.0248
 8922W        W24996  17.025  16.578   0.441 -0.0048 -0.1350  0.3615
 8923W        W24997   7.309   2.805  13.792 -0.0882  0.3592 -0.0464
 8924W        W24998  11.840   3.568  16.223 -0.0060  0.1864 -0.2581
 8925W        W24999   7.707  15.044   4.435 -0.3745 -0.0087 -0.1415
 8926W        W25000  13.334  17.588   1.558  0.1922 -0.2570 -0.1576
 8927W        W25001   2.532   4.808  13.271 -0.2049  0.2090 -0.4270
 8928W        W25002  17.173  16.431   4.480 -0.1573 -0.0522 -0.1397
 8929W        W25003  11.632   0.814   2.924 -0.3357 -0.0452  0.0734
 8930W        W25004   8.097   7.027  12.697  0.0371 -0.2596  0.1487
 8931W        W25005  15.268   8.242   3.124  0.0822 -0.3142  0.2468
 8932W        W25006  16.478   4.121   2.592  0.1486 -0.0489  0.0703
 8933W        W25007  18.221   5.532  12.335  0.0906  0.0474 -0.2704
 8934W        W25008   2.337   9.683   4.491  0.2927 -0.0500 -0.2040
 8935W        W25009  16.901   8.536  14.388  0.3233 -0.0982 -0.2210
 8936W        W25010   3.534   5.801   4.740  0.0646  0.1695 -0.1362
 8937W        W25011   8.440  12.134   5.410 -0.0085  0.0561  0.1619
 8938W        W25012   9.004  13.721   4.077  0.4253  0.0884 -0.1566
 8939W        W25013  11.571   0.574  15.478  0.2656  0.0281  0.1987
 8940W        W25014   9.697   6.515   2.918  0.5143 -0.3372  0.0324
 8941W        W25015  15.842   7.156  12.978 -0.2882 -0.1915  0.0555
 8942W        W25016  12.026  15.153   4.166  0.1561 -0.1765 -0.0333
 8943W        W25017  15.670   5.071   1.417  0.3086 -0.1163  0.0331
 8944W        W25018  17.710   9.244  13.762  0.2525 -0.1414  0.1646
 8945W        W25019   0.217  11.090  15.241  0.1939  0.3202  0.2428
 8946W        W25020  14.710   2.740  12.252 -0.0880 -0.1575 -0.2453
 8947W        W25021   5.581  11.760   5.745 -0.0304  0.0350 -0.0508
 8948W        W25022   3.219  17.077   1.374  0.0765  0.2880 -0.1669
 8949W        W25023  16.651   7.268   1.709 -0.2558  0.0150 -0.0946
 8950W        W25024   2.961   3.699  13.069  0.0444 -0.0907  0.0944
 8951W        W25025   7.067  13.500  14.165  0.1096  0.0273  0.2532
 8952W        W25026   5.276   9.263   0.467 -0.1783  0.0818  0.0988
 8953W        W25027  10.726   0.143  13.117  0.1257 -0.2351  0.2490
 8954W        W25028   4.257  11.728  14.321  0.0808  0.2211 -0.1115
 8955W        W25029   6.948  10.090   0.480  0.2409 -0.0526 -0.0623
 8956W        W25030   1.969   6.973  13.622  0.0257 -0.2641  0.0115
 8957W        W25031   3.037   9.993   0.776 -0.3608  0.0602 -0.1305
 8958W        W25032   8.694  11.096   3.956  0.1820 -0.1789 -0.1241
 8959W        W25033   2.311  13.130  14.878  0.0250  0.0220  0.0669
 8960W        W25034  12.871  17.244   4.837 -0.2396  0.2377  0.0153
 8961W        W25035   2.917  13.483  12.580 -0.0086  0.0526 -0.1087
 8962W        W25036   5.117  11.032   0.138 -0.2526  0.1505  0.1400
 8963W        W25037  11.974   4.161  13.173  0.0880 -0.0353  0.4704
 8964W        W25038  12.663  15.695   4.108 -0.2305  0.1733  0.1536
 8965W        W25039  16.787  11.004   4.371  0.0026 -0.2965  0.0253
 8966W        W25040   4.091   1.507  14.717  0.1480 -0.3654 -0.1023
 8967W        W25041   1.868  15.799  14.882 -0.0045 -0.1681  0.0345
 8968W        W25042  13.423   5.293   1.331  0.0620 -0.1555  0.0117
 8969W        W25043  15.474   6.319   3.004  0.3049 -0.2638 -0.3883
 8970W        W25044   0.575  13.034  12.481  0.0497 -0.0147 -0.0606
 8971W        W25045  10.489   5.602  13.564  0.0090  0.2062 -0.0222
 8972W        W25046  13.208  10.769   1.449  0.0701 -0.1782 -0.1040
 8973W        W25047  12.125   2.047  15.621 -0.1925  0.2463 -0.0223
 8974W        W25048   3.021  15.592   1.284 -0.1093  0.0866  0.0258
 8975W        W25049   7.718  11.426   4.895 -0.1339  0.0547  0.0331
 8976W        W25050   4.794  14.580   0.686  0.1846 -0.2703 -0.0572
 8977W        W25051   2.156   6.135   0.107  0.0545 -0.1623 -0.1513
 8978W        W25052   5.673  12.334  16.166 -0.0300  0.4304  0.2656
 8979W        W25053   3.481  18.187  16.134 -0.2082  0.2766  0.2700
 8980W        W25054   5.033  11.714  12.540 -0.0530  0.0531 -0.3313
 8981W        W25055   1.301   0.257   4.307 -0.1492 -0.1240  0.1703
 8982W        W25056   9.369   5.340  13.352  0.0335  0.0599  0.0396
 8983W        W25057  17.052   7.656  15.250 -0.2698  0.3667  0.3428
 8984W        W25058   9.533   8.413   4.143 -0.0231  0.0742  0.1817
 8985W        W25059  10.339  15.349  14.670 -0.1253 -0.0549  0.2895
 8986W        W25060  11.682   6.724   4.552 -0.5414  0.1945 -0.2354
 8987W        W25061   4.550   7.028  12.008 -0.0426  0.0618 -0.1133
 8988W        W25062   5.072   3.751   4.610 -0.3431 -0.2873 -0.0383
 8989W        W25063  14.573   8.145   4.709 -0.2562 -0.0074  0.3758
 8990W        W25064   0.729  16.141   0.566 -0.1099 -0.0713  0.2627
 8991W        W25065  13.625   2.302   4.250 -0.1695  0.1234  0.1979
 8992W        W25066   3.398   9.750   1.096 -0.2307 -0.0789 -0.2407
 8993W        W25067  14.562  17.108  16.311 -0.3619  0.1655 -0.1545
 8994W        W25068  12.699   2.352   2.624 -0.1661  0.1590  0.1658
 8995W        W25069  14.385   3.938  11.606 -0.3907  0.0909 -0.1768
 8996W        W25070  13.295   3.532   1.524  0.1151  0.2408 -0.0340
 8997W        W25071   8.130   9.148   0.100 -0.2304  0.0611 -0.1236
 8998W        W25072   3.487   0.220  15.734  0.0292  0.0004 -0.0461
 8999W        W25073   0.009  16.222   1.321  0.1989  0.0438  0.1099
 9000W        W25074  12.082  16.694   2.093 -0.0181 -0.1143  0.0333
 9001W        W25075   0.275  10.655   0.059 -0.0338  0.0390 -0.4051
 9002W        W25076   6.404  17.680   2.885 -0.0537 -0.4260 -0.0503
 9003W        W25077  10.345   9.533   1.332 -0.0290 -0.0006 -0.2317
 9004W        W25078  11.174   0.419   3.788  0.2703  0.1463 -0.0599
 9005W        W25079  15.830   0.749  13.230  0.0875 -0.1207 -0.0749
 9006W        W25080   0.195   6.158   3.396  0.1104  0.0647 -0.1921
 9007W        W25081  11.501   6.106  14.971  0.2783  0.0102 -0.0796
 9008W        W25082   4.407   5.660   5.254  0.1595 -0.0233  0.1962
 9009W        W25083   0.706   5.187   5.491 -0.1217  0.0841 -0.0076
 9010W        W25084   6.129   3.181   3.165 -0.0663 -0.0771  0.0090
 9011W        W25085  11.563  16.337   5.691  0.0364  0.3339 -0.0615
 9012W        W25086  10.175  14.545   4.327 -0.0426  0.2103  0.3486
 9013W        W25087   2.565   9.155  12.931  0.1893 -0.4826 -0.1742
 9014W        W25088   8.519  14.585   1.201  0.1504 -0.0168 -0.5737
 9015W        W25089  15.389  17.713   4.240 -0.2091  0.3927  0.0161
 9016W        W25090   1.500  16.951   2.026  0.2115 -0.1135 -0.1727
 9017W        W25091   9.216   4.291  12.595  0.0940 -0.0363 -0.0200
 9018W        W25092  14.875  14.104   1.234 -0.2051 -0.2627  0.0801
 9019W        W25093  12.625   3.543  12.066  0.0781  0.0109 -0.0203
 9020W        W25094  13.494   9.714   5.077 -0.0471 -0.2187  0.2039
 9021W        W25095   4.243   9.614  14.312 -0.0182 -0.2043 -0.2548
 9022W        W25096   8.734  16.708   2.686  0.0104  0.1719 -0.0716
 9023W        W25097  11.637  18.219   0.785 -0.0827  0.1072  0.2376
 9024W        W25098  10.934   9.686  14.515 -0.0048  0.0148  0.4142
 9025W        W25099   4.605  17.358   0.195  0.0818 -0.1409 -0.0160
 9026W        W25100   1.042  10.699  13.577  0.2112  0.3757 -0.2455
 9027W        W25101  14.192  15.775  13.155 -0.1662  0.0172  0.1791
 9028W        W25102   5.376   6.381   0.665 -0.0251 -0.0720  0.1186
 9029W        W25103   9.628  12.904   4.103 -0.3612 -0.0240  0.3131
 9030W        W25104   2.644  11.930  14.253  0.0618 -0.0675 -0.1460
 9031W        W25105   4.472   0.590   4.362  0.3052  0.1679 -0.1979
 9032W        W25106   2.714  14.418   5.203 -0.2253 -0.0420  0.1112
 9033W        W25107   0.102  14.825   1.329  0.0916 -0.0878 -0.3008
 9034W        W25108  14.086  17.416  12.310  0.4840 -0.0481  0.0588
 9035W        W25109   0.152  15.947  15.635 -0.1922 -0.0049  0.1416
 9036W        W25110  18.145  17.546   5.556  0.0867 -0.1834  0.0349
 9037W        W25111  10.711  11.584   6.216 -0.2417 -0.1724  0.0594
 9038W        W25112   8.789   3.144  13.784  0.0977 -0.2002 -0.0254
 9039W        W25113  15.640   8.884  11.536  0.1106  0.2422  0.2061
 9040W        W25114   0.703  11.790   0.610 -0.1149  0.1490 -0.1427
 9041W        W25115   7.348   0.052   1.299 -0.1009 -0.1798  0.0646
 9042W        W25116   0.138   7.699  11.896 -0.3347  0.2975 -0.1716
 9043W        W25117   6.590  17.421   4.295 -0.1085  0.1353  0.0291
 9044W        W25118  10.657  10.037  11.926  0.1457 -0.1060  0.2306
 9045W        W25119   1.294  12.261   3.090 -0.1045  0.2599  0.0210
 9046W        W25120   5.345   5.518   2.131  0.2387 -0.1388 -0.1373
 9047W        W25121   7.691   8.073  13.519  0.3018 -0.1418  0.4262
 9048W        W25122  14.602  10.293   4.542  0.0098 -0.2971  0.0924
 9049W        W25123   5.925   6.206  15.352  0.0310 -0.0931 -0.0380
 9050W        W25124   2.534   7.089  14.477 -0.0168 -0.1678 -0.2107
 9051W        W25125   9.895   6.784   0.432 -0.0137  0.0089  0.0966
 9052W        W25126   9.636  18.219  15.669  0.1342  0.0192  0.2117
 9053W        W25127  11.598   7.424   3.114 -0.0763 -0.0818 -0.0318
 9054W        W25128   6.018   6.982  11.935 -0.2178 -0.1448  0.1298
 9055W        W25129   6.493  17.246   2.566  0.1239 -0.0196  0.0024
 9056W        W25130   3.216  16.969  14.076  0.0322  0.1265 -0.3591
 9057W        W25131   9.893  17.102   1.455  0.0053 -0.2489 -0.0638
 9058W        W25132   1.791  15.329   3.997 -0.3153 -0.1152 -0.1457
 9059W        W25133   7.202  14.987  11.209  0.2268  0.0827 -0.1243
 9060W        W25134  14.369  16.418  11.955 -0.1055 -0.2448 -0.2677
 9061W        W25135   2.457   3.637   2.032  0.5441 -0.1357 -0.0113
 9062W        W25136  17.690   7.836  15.593  0.0379  0.0474  0.2333
 9063W        W25137  15.384   9.621  13.539  0.4585  0.2008  0.0026
 9064W        W25138   6.346  15.165   5.318  0.1403 -0.3157 -0.1425
 9065W        W25139   1.875   3.298  16.200 -0.2690 -0.0600  0.3794
 9066W        W25140   4.158   1.448  16.224  0.0675  0.0974  0.0750
 9067W        W25141   8.620  18.137   5.146  0.1823 -0.0247 -0.2967
 9068W        W25142  14.024   4.172  16.028 -0.0107 -0.0238  0.0060
 9069W        W25143  17.637   1.695  12.030 -0.1714  0.1173 -0.2084
 9070W        W25144   9.974  17.875   3.939  0.2310  0.1304  0.1059
 9071W        W25145  12.076   8.774   3.877 -0.3426 -0.1782  0.1359
 9072W        W25146   9.875  10.803   4.727 -0.0181  0.0630 -0.0405
 9073W        W25147   1.471   1.576   3.501 -0.0866  0.0620 -0.0274
 9074W        W25148   1.773   3.838  15.617  0.0381 -0.0991 -0.0940
 9075W        W25149   0.183  13.987   1.234  0.0435 -0.2760 -0.0379
 9076W        W25150   5.097   2.327  14.470 -0.2900 -0.0583  0.2628
 9077W        W25151   5.158  15.492   2.705 -0.1050  0.1794  0.2032
 9078W        W25152   3.798   2.246   0.715  0.0842  0.1241 -0.4603
 9079W        W25153  13.551   1.852  15.171  0.1091 -0.3338 -0.3066
 9080W        W25154   0.816  16.313  11.553  0.0033 -0.5049  0.1684
 9081W        W25155   3.952  11.871  12.387  0.2934 -0.1859  0.1317
 9082W        W25156   6.388   5.751   0.369  0.2349 -0.4249 -0.1308
 9083W        W25157   1.710   1.450   3.043  0.0282 -0.0839  0.1432
 9084W        W25158  15.491   3.370  12.624 -0.0704  0.2358 -0.0091
 9085W        W25159   0.339  12.311   3.212  0.3613  0.2838  0.0226
 9086W        W25160  16.258  12.485   3.158  0.5604  0.1979 -0.1071
 9087W        W25161   8.481   4.884   4.976 -0.0835  0.1550 -0.1392
 9088W        W25162   1.698  10.763   1.069 -0.1143 -0.1594  0.0596
 9089W        W25163  17.388  14.257  14.785 -0.1225  0.2174  0.1168
 9090W        W25164  17.017   5.661  12.972  0.0872  0.1067 -0.0572
 9091W        W25165  10.075   9.924   3.712 -0.0147  0.1610 -0.2258
 9092W        W25166  14.617   8.465  11.562  0.2587  0.0814  0.0487
 9093W        W25167  11.779   1.037  11.365 -0.0748  0.0484 -0.3114
 9094W        W25168  17.659   2.476   0.484 -0.0938 -0.2003 -0.0771
 9095W        W25169   3.592  13.005   3.396 -0.0888  0.0260  0.4410
 9096W        W25170   9.898   1.271  15.402 -0.0992  0.1876  0.0310
 9097W        W25171   8.146  11.006  13.512  0.0996 -0.0052 -0.1488
 9098W        W25172   8.802   3.404   1.095  0.0595  0.0148  0.3593
 9099W        W25173  15.609  15.856   2.143  0.2013 -0.0875 -0.1349
 9100W        W25174   2.568   0.481   5.075 -0.3309  0.2038  0.1786
 9101W        W25175  13.577   3.376  16.163  0.1229  0.0052 -0.1292
 9102W        W25176   1.285   0.045  15.792  0.1869  0.0469 -0.1862
 9103W        W25177   7.746   9.551   2.532  0.1150 -0.2458  0.1849
 9104W        W25178   5.307   5.198   0.043  0.1604 -0.0311  0.1090
 9105W        W25179   4.809   4.903  12.537 -0.0475 -0.3204 -0.0768
 9106W        W25180   3.018  17.067  12.313 -0.3047  0.0146 -0.0480
 9107W        W25181  13.545  11.248  14.441 -0.3066 -0.2231 -0.1299
 9108W        W25182   5.488   8.489   0.997  0.2936 -0.5435  0.1207
 9109W        W25183   4.794   7.234  15.517 -0.1740  0.3544  0.0507
 9110W        W25184   2.183  16.704  14.949 -0.2771 -0.1882 -0.0230
 9111W        W25185  10.828   7.067   0.303 -0.1658 -0.5900 -0.1268
 9112W        W25186  12.350  13.620  12.141  0.1315  0.0333 -0.0135
 9113W        W25187  13.426   5.570  12.169  0.2042 -0.1084 -0.0061
 9114W        W25188   1.057  11.213  13.669 -0.2008  0.5749 -0.0313
 9115W        W25189   9.362  10.741   2.295  0.1384  0.0161  0.3399
 9116W        W25190   9.160   2.307  12.088 -0.0308  0.2013  0.1543
 9117W        W25191   5.944  14.446   4.005  0.0761  0.1960 -0.1174
 9118W        W25192  11.307  12.248   3.341  0.1123 -0.1575 -0.0154
 9119W        W25193  16.307  12.849   2.710  0.3246  0.4431  0.1835
 9120W        W25194  13.360   6.440  14.220 -0.0686 -0.3449  0.2996
 9121W        W25195   4.528   4.848   4.705  0.0722 -0.0458  0.0975
 9122W        W25196   2.000   9.172   2.073 -0.0002  0.0223 -0.0661
 9123W        W25197   3.399  11.146   4.624  0.1411 -0.2852  0.0067
 9124W        W25198   7.395   6.251   2.116 -0.0167  0.2239  0.0172
 9125W        W25199  13.554   7.916   0.824  0.2176  0.0206  0.2518
 9126W        W25200   6.507   6.098   4.630  0.2067  0.2881 -0.0931
 9127W        W25201  12.571  12.613   0.576 -0.1540  0.0223 -0.2465
 9128W        W25202   4.490   4.044   5.301  0.1416  0.1041  0.1079
 9129W        W25203  17.787  15.375  14.153  0.1328  0.1622  0.0752
 9130W        W25204   7.412  10.393   4.701  0.2176 -0.2009  0.2850
 9131W        W25205  16.074   1.808  12.431  0.1797 -0.0103  0.0661
 9132W        W25206  15.864   4.021  14.779 -0.0781 -0.4306 -0.1806
 9133W        W25207  14.829  17.030   3.273 -0.0147 -0.1650  0.1134
 9134W        W25208   1.875  11.229   5.570 -0.0523  0.1639  0.0681
 9135W        W25209   5.552  13.264  11.850  0.1453  0.0733 -0.0981
 9136W        W25210   5.527   3.911  15.913 -0.0394 -0.0127 -0.0318
 9137W        W25211  10.082   8.960   2.113 -0.0882  0.2548 -0.0396
 9138W        W25212   5.159   0.156   3.829 -0.2841  0.0545  0.2211
 9139W        W25213  13.352  11.957   0.283  0.2356 -0.1300 -0.0275
 9140W        W25214  17.570   1.251   2.453 -0.1169  0.0649  0.0744
 9141W        W25215   9.684   8.425   5.039 -0.0682 -0.1173  0.2057
 9142W        W25216   5.865  15.226  13.993 -0.0380 -0.0826  0.1845
 9143W        W25217   0.080  17.922   6.159  0.0656 -0.2308  0.2852
 9144W        W25218   4.802   8.055   3.119  0.0974 -0.1808 -0.2196
 9145W        W25219  11.137   6.149   0.067 -0.0452 -0.2380 -0.0684
 9146W        W25220   6.253   0.118   5.234 -0.1640 -0.1020 -0.2199
 9147W        W25221   5.229   4.831  16.136 -0.0637 -0.1571 -0.1460
 9148W        W25222  11.613  18.140  13.448  0.0371 -0.1814  0.2058
 9149W        W25223  15.603   6.463   1.644 -0.0851  0.4460 -0.0054
 9150W        W25224   3.385   3.690   2.060  0.2188 -0.2077  0.3803
 9151W        W25225   1.796   2.929   0.233  0.0440  0.2957  0.1090
 9152W        W25226   8.805  17.698   4.706  0.1763  0.3020 -0.1600
 9153W        W25227   3.708   1.541   0.081  0.0241  0.1439 -0.0821
 9154W        W25228   7.058  12.660  13.122 -0.0566  0.5374  0.0952
 9155W        W25229  16.824  13.658   4.316 -0.1261  0.2843 -0.3999
 9156W        W25230  12.435   2.009   5.737 -0.0140 -0.0453 -0.0556
 9157W        W25231  10.698  12.359  12.633 -0.1498 -0.1389  0.1496
 9158W        W25232   0.736  15.878  11.324 -0.0543 -0.3223  0.0425
 9159W        W25233   1.683   2.427  12.925 -0.0686 -0.1384 -0.0511
 9160W        W25234   7.678  12.340  15.188  0.2374  0.1576 -0.4091
 9161W        W25235  14.084   3.923  13.225  0.0075  0.1201  0.2252
 9162W        W25236   2.820  12.635  11.927 -0.1716  0.2027 -0.0623
 9163W        W25237  10.515  18.205   1.505  0.0649  0.2720 -0.2487
 9164W        W25238  14.337  16.622  15.934  0.1396  0.1363  0.4453
 9165W        W25239   9.930   2.221  10.818 -0.2008  0.0564  0.0925
 9166W        W25240   0.592  11.329  15.625 -0.1981 -0.0187 -0.0756
 9167W        W25241   3.571   9.235   5.113  0.0278 -0.0313  0.2329
 9168W        W25242  16.913   2.460   2.292 -0.0136  0.3308  0.3611
 9169W        W25243  10.210   5.879  15.994 -0.0078 -0.2733 -0.1361
 9170W        W25244   4.266  11.427  12.163 -0.5319  0.0953  0.1065
 9171W        W25245  14.387  11.969   3.914  0.2565  0.2836  0.0087
 9172W        W25246   6.558  16.161   0.664 -0.1184 -0.0947  0.1087
 9173W        W25247  10.326   1.063   4.577 -0.1588 -0.0303 -0.0844
 9174W        W25248  11.125  12.325   2.893  0.1530  0.0418  0.1034
 9175W        W25249  17.071   9.794  15.193 -0.0766  0.0116  0.1823
 9176W        W25250   5.481   4.961   1.705  0.0781 -0.0178 -0.0650
 9177W        W25251  14.246   8.708  12.516  0.0225 -0.0141  0.0695
 9178W        W25252   9.051  10.262   5.103  0.1135 -0.2541  0.1279
 9179W        W25253   4.813  17.919  15.783  0.0455 -0.1248 -0.1181
 9180W        W25254  10.970  14.302   1.713 -0.0748 -0.1853  0.0853
 9181W        W25255  10.338  10.566   0.286  0.1437 -0.0969 -0.0592
 9182W        W25256   6.137   5.431   6.122  0.0338 -0.3404 -0.0888
 9183W        W25257  17.578  15.940   0.413 -0.0781  0.2373 -0.2337
 9184W        W25258  13.065   3.211  13.375  0.1186 -0.0335 -0.0124
 9185W        W25259   2.387   0.083  15.507  0.0825  0.0410 -0.0546
 9186W        W25260  13.567   1.600   2.914  0.0980 -0.0363  0.0942
 9187W        W25261  10.569   0.463  15.019  0.1679 -0.0171  0.2613
 9188W        W25262   3.493   3.477  14.432 -0.1451 -0.2273  0.3109
 9189W        W25263  15.851   6.881   0.691 -0.2870  0.0631  0.5663
 9190W        W25264   9.654   9.546  10.740 -0.0542 -0.0688  0.1681
 9191W        W25265  17.562  13.065  12.992 -0.1735  0.0202  0.1575
 9192W        W25266   8.051  16.240   2.096  0.3373 -0.2370  0.1456
 9193W        W25267  16.894   3.469  14.885  0.1638 -0.1538  0.2350
 9194W        W25268  16.528  17.158  15.313  0.0288  0.2608  0.0133
 9195W        W25269   9.245  15.976   0.458 -0.2384 -0.2669  0.1277
 9196W        W25270  12.199   1.325  14.437  0.0957  0.1239  0.2193
 9197W        W25271   3.481   3.156   2.928  0.4696 -0.0494 -0.1499
 9198W        W25272  14.516  12.377   0.409  0.2691  0.0686 -0.0511
 9199W        W25273   9.612  11.320   1.512  0.0999 -0.0159  0.0801
 9200W        W25274   3.686   8.058   0.830 -0.3859  0.0632  0.0732
 9201W        W25275  16.377   7.102   3.229  0.0456  0.1916  0.5392
 9202W        W25276  14.990  12.939  11.455  0.1039 -0.2239 -0.3074
 9203W        W25277  15.772  16.725  15.584  0.0938 -0.2475  0.1137
 9204W        W25278   9.182  12.082   3.233 -0.3732 -0.2004  0.0900
 9205W        W25279   6.614   1.529  13.719 -0.1435 -0.2937 -0.0959
 9206W        W25280  14.735  11.431   2.557 -0.0235 -0.3131 -0.1026
 9207W        W25281  12.289  12.229   1.413  0.0937  0.1114 -0.1869
 9208W        W25282   3.541  14.631  14.869 -0.0209 -0.1314  0.0019
 9209W        W25283  17.578  16.211  16.272 -0.0146 -0.1397 -0.3247
 9210W        W25284  14.171  14.773  13.350  0.0725  0.2746  0.1291
 9211W        W25285  17.078   7.289   5.561  0.0098 -0.0293 -0.0490
 9212W        W25286   6.409   7.329   2.459  0.1414  0.1354  0.0006
 9213W        W25287  18.199   5.479   3.988 -0.1471 -0.1075 -0.0318
 9214W        W25288   7.526  12.593  12.848 -0.0574  0.0086 -0.1336
 9215W        W25289   8.188  18.054   1.563  0.2193  0.0938 -0.3689
 9216W        W25290  11.442   7.409   5.450 -0.1638  0.0787 -0.0895
 9217W        W25291  14.974   6.199   4.629 -0.1262 -0.3811 -0.0540
 9218W        W25292  11.832  13.248   1.691  0.0182  0.2447  0.0620
 9219W        W25293   2.025   2.980  15.021  0.2024 -0.4699  0.0720
 9220W        W25294   8.936   7.353  13.798 -0.1291  0.0332  0.2138
 9221W        W25295  11.491   8.542  12.574 -0.0613  0.2206  0.1327
 9222W        W25296   0.262   9.130   4.205  0.2042  0.2219  0.0469
 9223W        W25297  11.133  14.872  13.376 -0.1267  0.0366  0.1689
 9224W        W25298   6.584   5.932   3.054 -0.2117  0.0849 -0.0592
 9225W        W25299   1.180  13.807   4.616  0.1544  0.2532 -0.1007
 9226W        W25300   3.288  11.017  12.852 -0.1097 -0.1482  0.2525
 9227W        W25301  13.241  15.245  14.240 -0.1753  0.2658 -0.3372
 9228W        W25302   9.396   6.652  13.438  0.1356  0.3213  0.1928
 9229W        W25303   2.109  18.315  15.067 -0.1456 -0.4796 -0.0223
 9230W        W25304   0.399  14.198  13.743 -0.0188 -0.2857  0.1133
 9231W        W25305  14.897   3.263   5.149  0.2195 -0.2825  0.1727
 9232W        W25306   8.129  13.963   3.501 -0.0717 -0.1740 -0.0783
 9233W        W25307   2.010  11.728   1.776 -0.2148 -0.1430 -0.1225
 9234W        W25308  15.578  14.014   3.687 -0.2494  0.1368  0.1755
 9235W        W25309   9.451   1.063  13.616 -0.0628 -0.0043  0.0545
 9236W        W25310   4.333   6.533  11.612  0.2138 -0.2446  0.3534
 9237W        W25311   9.057  14.004   0.056 -0.1075  0.0988 -0.3206
 9238W        W25312  12.767  14.893  14.697 -0.1325 -0.0152  0.1125
 9239W        W25313   0.266   5.510  13.993 -0.3070 -0.0172 -0.0280
 9240W        W25314   0.302   9.653  15.250 -0.1445 -0.0350 -0.0434
 9241W        W25315  17.102  16.281   1.957  0.0365 -0.0896 -0.1469
 9242W        W25316   3.316   1.477   1.347  0.2055 -0.2292  0.3043
 9243W        W25317  18.119   6.523  12.785 -0.1482 -0.1445 -0.2404
 9244W        W25318   5.177   8.811  13.110 -0.1674  0.0548  0.0799
 9245W        W25319   4.469   3.179  13.238 -0.3799  0.0579  0.2486
 9246W        W25320  16.719  13.789  16.095 -0.1152 -0.0191 -0.0946
 9247W        W25321  17.945   1.495   1.875 -0.2267  0.0264  0.0022
 9248W        W25322  17.840  17.185   0.651  0.5044 -0.2135  0.0015
 9249W        W25323   2.066   9.516  11.441 -0.1607  0.0132 -0.1165
 9250W        W25324  16.363   8.113   4.472  0.2121  0.1923  0.0570
 9251W        W25325   6.931  13.436  16.107  0.2885  0.0978  0.1278
 9252W        W25326  15.874  14.886   0.492 -0.0042  0.3702 -0.1432
 9253W        W25327   3.695   9.633  14.234 -0.3796 -0.1447 -0.1513
 9254W        W25328  10.381  15.283   0.431 -0.3558  0.1846  0.1612
 9255W        W25329   7.572  16.495   5.028  0.0528  0.1030 -0.0146
 9256W        W25330  12.656   4.606  14.273  0.1113 -0.1786 -0.2009
 9257W        W25331   4.309   9.915   2.459 -0.1056  0.0260  0.0833
 9258W        W25332   0.156   5.537  16.318  0.0563 -0.0315 -0.1587
 9259W        W25333  12.430  13.549  14.763 -0.2582 -0.1682  0.1892
 9260W        W25334   0.633   1.609   5.255 -0.2072 -0.0552  0.1842
 9261W        W25335  10.179  16.136   5.451  0.1457  0.1759  0.0969
 9262W        W25336   2.126  15.026  12.619 -0.0545  0.2552 -0.2719
 9263W        W25337   8.984   7.539  12.400 -0.2909  0.1969 -0.1676
 9264W        W25338   9.051   1.690   1.772 -0.1298 -0.0068 -0.3441
 9265W        W25339  15.426  10.449   4.281 -0.1761 -0.0290  0.0856
 9266W        W25340  10.698   0.249  11.833  0.2385  0.0689 -0.0888
 9267W        W25341   8.442  11.684   1.063 -0.1423  0.0941  0.2230
 9268W        W25342  18.049  11.538  13.231 -0.0660  0.0025  0.0805
 9269W        W25343   9.351  13.154  11.657 -0.0805 -0.0255 -0.1918
 9270W        W25344  13.707  16.155   0.406 -0.2248  0.1020  0.0248
 9271W        W25345  11.731  15.117   5.630 -0.1985 -0.2928  0.1191
 9272W        W25346   8.187   6.365  12.241 -0.1951  0.1969 -0.2201
 9273W        W25347   0.176   3.242  15.320  0.0855 -0.0563  0.1131
 9274W        W25348  12.827   7.463  14.406 -0.1176  0.0779 -0.0444
 9275W        W25349  15.097  10.592   1.659  0.3608 -0.1186  0.0125
 9276W        W25350   7.258  13.683   5.354  0.0091  0.0047 -0.0001
 9277W        W25351  17.157   4.402   5.438  0.1939 -0.0229  0.2167
 9278W        W25352   3.145  11.436  16.122  0.0044  0.2271 -0.0138
 9279W        W25353   4.734   0.102  13.806  0.1412  0.1783  0.4033
 9280W        W25354  10.246   5.885   1.140  0.2830 -0.1158 -0.0473
 9281W        W25355  16.176   5.908  10.260  0.1808  0.0011  0.0966
 9282W        W25356   4.801   1.643   1.749 -0.2606 -0.1958  0.1389
 9283W        W25357  12.333  14.812  12.534  0.0860 -0.1389 -0.2029
 9284W        W25358   2.000  16.990   2.062  0.0372  0.3553  0.4048
 9285W        W25359   4.111  12.255   0.768  0.0654 -0.1530  0.0622
 9286W        W25360   4.552  10.604   1.057 -0.0259  0.1824 -0.0964
 9287W        W25361   2.611  12.332  15.077 -0.0969 -0.3237 -0.1256
 9288W        W25362  17.910  10.938  11.917  0.2173  0.0081 -0.1119
 9289W        W25363  13.948  14.752  16.072 -0.2377 -0.3577  0.2791
 9290W        W25364  15.057  15.611   6.325 -0.0176  0.0940  0.1559
 9291W        W25365   5.834   3.500   0.025  0.0797 -0.2500  0.1289
 9292W        W25366  15.456   0.879  14.917 -0.3701 -0.0294 -0.1408
 9293W        W25367  10.310   3.273   0.656 -0.2526  0.3022 -0.3608
 9294W        W25368  11.819  11.831  12.762  0.0982 -0.3950  0.1078
 9295W        W25369   5.298  10.692  14.443 -0.0350 -0.2144 -0.0031
 9296W        W25370  10.299  13.707  15.843  0.1454  0.1504 -0.0047
 9297W        W25371   2.490   1.018  11.836 -0.1793  0.0619  0.2338
 9298W        W25372   8.859  16.880   5.769  0.0494 -0.1339  0.1865
 9299W        W25373  17.837   7.995   0.592  0.2408 -0.7236  0.3340
 9300W        W25374   3.159   3.261  11.916  0.0977  0.0578 -0.2949
 9301W        W25375   5.507  15.892   1.877  0.1221 -0.5811  0.1362
 9302W        W25376   3.858   0.199  16.037 -0.3544 -0.0707  0.0841
 9303W        W25377  16.492   8.725  15.575 -0.1104 -0.1926 -0.2146
 9304W        W25378  11.657   3.210   3.557  0.0324  0.0001 -0.1381
 9305W        W25379   8.717  11.151  13.499 -0.1438 -0.1236  0.3160
 9306W        W25380  10.772   5.836  15.289  0.1403  0.0039 -0.1046
 9307W        W25381   3.561  17.933  11.890 -0.0164 -0.2360  0.0315
 9308W        W25382   4.206  11.794   3.795  0.0665  0.0672  0.0650
 9309W        W25383   9.216   7.887   2.597 -0.1093  0.0904 -0.2692
 9310W        W25384   0.912  14.919   1.939  0.0249  0.2959 -0.3065
 9311W        W25385  10.589   5.016   0.872 -0.4306  0.0184 -0.1050
 9312W        W25386  17.517   0.810  15.113 -0.4859  0.4550  0.0454
 9313W        W25387   1.325   2.606  15.329  0.2099  0.1241 -0.1575
 9314W        W25388   2.488  18.090   1.115 -0.0136  0.2098  0.0424
 9315W        W25389   5.413   9.443  16.329  0.2219  0.4586 -0.1890
 9316W        W25390  10.912  17.231   1.508 -0.0152 -0.1441  0.1673
 9317W        W25391  14.542  11.509   6.078 -0.1088  0.2550 -0.1075
 9318W        W25392  16.846   9.976   3.587 -0.0394 -0.0532  0.0178
 9319W        W25393   6.633   4.814   3.617  0.4096  0.0743  0.1046
 9320W        W25394   7.138  16.603  15.575 -0.2599 -0.0424  0.0960
 9321W        W25395  17.078   7.346   1.372 -0.0560  0.0135 -0.0421
 9322W        W25396   3.456  16.045  15.300  0.1863 -0.1782 -0.1941
 9323W        W25397  18.288  11.780   0.175  0.1325 -0.1942  0.1266
 9324W        W25398  13.913   0.253  14.192  0.0131  0.0551 -0.2045
 9325W        W25399   6.675  16.345   6.230 -0.1295 -0.0247  0.1762
 9326W        W25400  17.343  11.893  13.709 -0.1174 -0.0365  0.1753
 9327W        W25401  13.642  11.621   1.235 -0.2121 -0.2842  0.1607
 9328W        W25402  10.207   6.508   2.080 -0.2848  0.2404 -0.0884
 9329W        W25403   8.713   0.682  14.041 -0.1133 -0.2667 -0.1002
 9330W        W25404   2.411  14.958   4.550 -0.1449  0.1696 -0.0900
 9331W        W25405  15.800   0.163   2.893 -0.1718  0.0866 -0.0647
 9332W        W25406  17.770   3.848  13.477  0.2047  0.3648  0.3137
 9333W        W25407  15.794  11.950  11.922 -0.1376  0.1611 -0.1213
 9334W        W25408   0.126  16.647  13.923 -0.2777  0.0826  0.2038
 9335W        W25409   1.816  12.725   4.586  0.3055 -0.0856 -0.2596
 9336W        W25410  11.693   8.667   2.647 -0.0220 -0.1575 -0.2033
 9337W        W25411  14.463   4.411  12.478  0.2145  0.0363 -0.0288
 9338W        W25412   2.722  10.291   0.376  0.2878  0.2660  0.2318
 9339W        W25413  12.646   3.442   2.908  0.0647 -0.2038 -0.0007
 9340W        W25414   7.638   6.438   5.256  0.1780  0.2926 -0.3517
 9341W        W25415  11.353   9.149  15.222  0.0853  0.1881 -0.0553
 9342W        W25416   5.531  11.186  13.661 -0.2459 -0.0135  0.0095
 9343W        W25417  12.196  12.211  14.154 -0.4209 -0.3866  0.2755
 9344W        W25418   4.120   3.046   2.837  0.0926 -0.0073  0.1747
 9345W        W25419   9.992   1.984   2.571  0.2072 -0.2022 -0.1279
 9346W        W25420  12.976   4.523  15.261  0.0808  0.0620  0.1852
 9347W        W25421  14.696   3.656   3.822  0.0947 -0.1022 -0.0165
 9348W        W25422   5.253   4.272  11.328 -0.1453  0.0897  0.2189
 9349W        W25423  11.058   6.338   1.109 -0.1091 -0.0279  0.0137
 9350W        W25424  16.018  14.083   4.949 -0.0961 -0.0803 -0.0512
 9351W        W25425   8.472  10.021   3.737 -0.2097 -0.1520 -0.2156
 9352W        W25426   6.102  11.097  16.162  0.0133 -0.0532  0.0329
 9353W        W25427   4.066   1.781   2.944 -0.0111 -0.0613  0.0825
 9354W        W25428   3.622  17.925   1.234  0.2513 -0.1547  0.0657
 9355W        W25429   4.916   9.784  14.805 -0.0088  0.1459  0.1812
 9356W        W25430   1.216   9.046  12.909 -0.2123  0.0022  0.1505
 9357W        W25431  13.455   6.820   2.984 -0.1248 -0.0818  0.1712
 9358W        W25432  17.637  10.457   4.418 -0.1073 -0.2384 -0.0279
 9359W        W25433   2.663  14.061   1.692 -0.0018  0.1113 -0.2247
 9360W        W25434  17.550  14.687  16.282  0.2262 -0.0042 -0.0668
 9361W        W25435  17.318   1.964  14.690 -0.0917  0.1027 -0.1658
 9362W        W25436   3.872  15.400   0.193 -0.3192 -0.1025 -0.0526
 9363W        W25437   8.966   3.044   5.193 -0.0356  0.0488 -0.1617
 9364W        W25438  10.406  16.491   1.958 -0.1869 -0.2049  0.0641
 9365W        W25439   0.061   4.897   3.421  0.1910 -0.0126  0.0803
 9366W        W25440   6.734  13.368   4.270  0.1516  0.1236 -0.1356
 9367W        W25441  12.866  14.289   1.869 -0.3180 -0.0880  0.0315
 9368W        W25442   0.138   2.617  13.326  0.1334  0.1738  0.1888
 9369W        W25443  14.178   4.381   5.695  0.0495 -0.0594 -0.0152
 9370W        W25444   8.710  17.455  13.222 -0.0781 -0.2179 -0.1311
 9371W        W25445   2.671   2.356   3.379 -0.0296 -0.2523 -0.4772
 9372W        W25446   2.573  10.180  14.947 -0.1645  0.1118  0.0953
 9373W        W25447  10.662   6.488   0.818  0.0594  0.0544  0.2083
 9374W        W25448   9.652   7.491   1.366 -0.0979 -0.2921 -0.1709
 9375W        W25449   3.442  10.208  11.053  0.0179  0.0063 -0.1635
 9376W        W25450   4.235  10.072   0.245  0.0719  0.1784 -0.1883
 9377W        W25451   8.937  16.122   1.878 -0.1740  0.0288  0.2023
 9378W        W25452  16.679   7.717   1.210  0.1331  0.0200 -0.0078
 9379W        W25453  12.554  11.871   5.157 -0.1426  0.0206  0.3425
 9380W        W25454   7.817   1.043  11.832 -0.2840 -0.0406  0.3662
 9381W        W25455   8.178   3.846   0.322  0.0315 -0.4925  0.0240
 9382W        W25456  15.976  13.382   2.389 -0.2376 -0.1580 -0.1620
 9383W        W25457   4.989  13.334   3.910 -0.0969 -0.0819 -0.0313
 9384W        W25458   3.682  14.892   2.045  0.0958  0.1592  0.2877
 9385W        W25459   5.445   9.791   4.552  0.0684 -0.1556  0.1389
 9386W        W25460   4.619   7.823   4.561 -0.0083 -0.3880  0.3029
 9387W        W25461   8.518  16.537  11.888 -0.0024  0.0700 -0.0217
 9388W        W25462  10.208  14.214  12.927 -0.0065  0.0367 -0.2561
 9389W        W25463  15.488  14.263   4.967 -0.0915 -0.1615 -0.0527
 9390W        W25464  14.249   9.933   3.107 -0.4211 -0.1519 -0.0343
 9391W        W25465  15.579   7.120   1.477  0.0184  0.0020  0.4005
 9392W        W25466   2.846  14.994  16.047  0.3385  0.2631  0.4143
 9393W        W25467  10.144   1.243   0.164 -0.4119 -0.0725  0.2555
 9394W        W25468  12.070  14.123   4.892 -0.0418  0.1626 -0.1642
 9395W        W25469  10.247   1.112  14.483  0.1883  0.2789  0.0890
 9396W        W25470   1.313  13.770  11.253  0.0289  0.4352  0.1237
 9397W        W25471   0.395   2.353   0.438  0.0017  0.2095  0.2159
 9398W        W25472  14.836   6.766  12.476  0.2307 -0.2929 -0.1733
 9399W        W25473   4.364  12.270   4.275  0.0232  0.3696  0.1239
 9400W        W25474   0.896   2.882   3.973 -0.2068  0.1061 -0.0182
 9401W        W25475  17.562  12.122  15.512 -0.0538  0.2233  0.0283
 9402W        W25476   4.379   3.644  12.627  0.0030  0.0442 -0.2669
 9403W        W25477   2.557   1.209  13.861 -0.0107 -0.0735  0.4261
 9404W        W25478  11.026  17.395  16.339  0.0287 -0.1274  0.1135
 9405W        W25479  13.540  13.980  12.991 -0.0816 -0.1679 -0.1966
 9406W        W25480  14.004   2.072   4.135 -0.2737 -0.0125  0.3200
 9407W        W25481  10.727   7.288  14.978 -0.0283 -0.0270 -0.0152
 9408W        W25482  13.413   5.467  15.932 -0.0591 -0.0259  0.1980
 9409W        W25483  16.647  12.149  14.403 -0.1251  0.0469  0.2227
 9410W        W25484   9.355  13.626  12.515  0.0302 -0.1635 -0.2431
 9411W        W25485  15.260  14.792  14.748 -0.4520 -0.2425  0.1601
 9412W        W25486   0.699  17.742  11.284 -0.0394 -0.0599  0.1971
 9413W        W25487  11.692   5.957  14.303  0.2338 -0.0012  0.1650
 9414W        W25488   0.390  14.584   3.591 -0.2642 -0.2000  0.0130
 9415W        W25489  14.844   7.709  13.816  0.1739 -0.1042 -0.0847
 9416W        W25490   0.588  16.350  14.390 -0.1915 -0.0877 -0.2506
 9417W        W25491   9.662   7.435  10.853  0.4204 -0.3686 -0.1357
 9418W        W25492  11.654  16.818   0.207 -0.2747 -0.1110 -0.0795
 9419W        W25493  13.877   9.189   2.593  0.1092  0.4434 -0.0503
 9420W        W25494   5.020   0.395  15.639  0.0571  0.0182 -0.0001
 9421W        W25495  10.131   3.821  11.869 -0.0632  0.1542 -0.3105
 9422W        W25496   0.038   7.182   3.418 -0.1321  0.0778  0.1686
 9423W        W25497   4.695   3.957   5.767 -0.0066  0.0523 -0.3243
 9424W        W25498   0.593  11.554   1.245  0.0351  0.0948 -0.1102
 9425W        W25499   0.019   9.290   0.889  0.1411 -0.2050 -0.0245
 9426W        W25500  12.307  14.901   5.877  0.0213  0.0559  0.1124
 9427W        W25501   3.487   2.651   0.895  0.0979  0.0037 -0.0284
 9428W        W25502  10.394   2.081  12.038  0.1246 -0.1430  0.0848
 9429W        W25503   4.856   1.068  12.260 -0.1490 -0.0079  0.4175
 9430W        W25504   5.379   0.950   0.773 -0.0485 -0.0264 -0.1723
 9431W        W25505  11.773   5.947  11.527 -0.1473  0.0969  0.1023
 9432W        W25506   2.649   5.984   0.122 -0.1862 -0.0435 -0.2380
 9433W        W25507   8.698  16.848  13.910  0.1749 -0.3127 -0.1821
 9434W        W25508  17.027   4.465   1.309  0.1183 -0.4266 -0.2829
 9435W        W25509   1.575   6.531   2.872  0.1674  0.1127 -0.1120
 9436W        W25510  10.793  13.268   4.384 -0.1085  0.0286  0.1315
 9437W        W25511  10.641   0.341   3.490 -0.0316  0.2342 -0.1538
 9438W        W25512  12.317  18.002  15.725 -0.2935  0.2331 -0.0339
 9439W        W25513   6.394  15.324   0.861 -0.0092  0.0112  0.2098
 9440W        W25514  15.728  16.838   2.918 -0.1497 -0.0846 -0.0057
 9441W        W25515   1.716  13.776  14.509  0.1815  0.0775 -0.1073
 9442W        W25516  17.118  13.458  16.226 -0.1307  0.3070 -0.2558
 9443W        W25517  17.479   7.872  13.142 -0.1474 -0.1520  0.3309
 9444W        W25518  13.422   9.895   3.351 -0.2398 -0.0198 -0.0220
 9445W        W25519  12.393   0.622  14.437 -0.0423 -0.0509  0.3153
 9446W        W25520   5.435  17.010  15.795  0.1518 -0.0556  0.1213
 9447W        W25521  11.690  14.480  14.678 -0.0646 -0.3244  0.4068
 9448W        W25522   8.920  10.354   1.384 -0.0895 -0.1463  0.1768
 9449W        W25523  10.569  16.952   1.865  0.0067 -0.3620 -0.1901
 9450W        W25524   0.248  11.715  15.609 -0.3224 -0.0366 -0.4488
 9451W        W25525  14.659  15.950  11.214 -0.1740 -0.0751  0.2782
 9452W        W25526   5.249   2.889  13.824 -0.1636 -0.1155 -0.2898
 9453W        W25527   5.126   5.437   0.877  0.3927 -0.2180  0.1570
 9454W        W25528  15.766  13.121   2.781 -0.0061  0.0076  0.1796
 9455W        W25529   5.724  15.511   2.552 -0.2269 -0.2086 -0.2030
 9456W        W25530  17.250   7.269  11.664  0.2480 -0.0995  0.2516
 9457W        W25531   5.844   3.186  13.603 -0.1107 -0.1780  0.1413
 9458W        W25532  11.688  10.337  15.413 -0.1290  0.1514  0.2354
 9459W        W25533   5.300  15.458   0.736 -0.1333 -0.0506 -0.0352
 9460W        W25534   9.169   7.635  14.121 -0.2733 -0.1531  0.0658
 9461W        W25535   2.552  15.964   2.697  0.0122  0.1656 -0.1661
 9462W        W25536   9.573   8.775  12.305  0.2008  0.0945 -0.2310
 9463W        W25537   3.059  17.676  15.960  0.0727 -0.2265  0.0249
 9464W        W25538   3.599  16.139  12.559  0.1626 -0.0391 -0.0570
 9465W        W25539  15.764  17.837  12.960  0.3112 -0.1123 -0.2850
 9466W        W25540  10.744  15.242   0.089 -0.1703 -0.3452 -0.2372
 9467W        W25541  15.403   8.407  13.891 -0.1651  0.0604  0.0095
 9468W        W25542  18.020   5.259   3.033  0.0637  0.2061 -0.3799
 9469W        W25543   6.807  15.877  14.476 -0.2698 -0.1256  0.0238
 9470W        W25544   8.234   9.547   0.706  0.0479  0.0790 -0.1497
 9471W        W25545   6.542   6.854   2.389 -0.4703  0.2903  0.4287
 9472W        W25546   5.465  18.115  12.581 -0.1463  0.0380  0.1513
 9473W        W25547   1.350   3.458   1.325 -0.0077  0.2672  0.0040
 9474W        W25548  16.388   1.037  12.257 -0.1229  0.0182  0.0886
 9475W        W25549  17.967   8.008  11.891 -0.2449  0.1937 -0.1735
 9476W        W25550   2.270   5.682   1.980  0.1037 -0.0281 -0.0052
 9477W        W25551  16.484   6.040  11.997 -0.2818 -0.2206  0.3129
 9478W        W25552  18.048   4.312  13.286  0.1307 -0.1949 -0.0180
 9479W        W25553  11.808  13.975   2.951  0.0619  0.0692 -0.0948
 9480W        W25554  13.391  13.041   0.369 -0.1710  0.1985 -0.2173
 9481W        W25555   8.171  14.085  13.077 -0.0277  0.1070 -0.3318
 9482W        W25556  14.751   8.630  12.630  0.0013 -0.2588  0.0066
 9483W        W25557   8.613  17.582  11.945  0.0290  0.3286 -0.1398
 9484W        W25558  10.858   0.507  11.038  0.0426 -0.1979 -0.2227
 9485W        W25559   0.851  14.473  14.974  0.2146  0.0219  0.2416
 9486W        W25560   5.074   8.513  14.039  0.1556  0.2741 -0.2266
 9487W        W25561  15.348   9.990  12.729  0.0718  0.0130  0.1159
 9488W        W25562   5.435   5.025   1.048  0.2696  0.0589  0.0738
 9489W        W25563  16.709   2.312   3.928  0.0826 -0.3256  0.1179
 9490W        W25564  17.604  10.529  15.400 -0.2004  0.1048 -0.2141
 9491W        W25565   7.480  12.406  14.232  0.0230 -0.0776  0.1321
 9492W        W25566   0.991   6.834   0.369  0.0883  0.0835 -0.1446
 9493W        W25567   7.175   0.944   4.461 -0.0464  0.1942  0.0479
 9494W        W25568  12.655  13.623   3.432 -0.0381 -0.1549 -0.0489
 9495W        W25569   9.234  17.936  15.789  0.1620  0.0119 -0.0171
 9496W        W25570  11.490  12.201   1.534  0.0729 -0.2702  0.1139
 9497W        W25571  16.853  11.477   2.872 -0.0246 -0.2849 -0.2948
 9498W        W25572   7.639   0.862  12.356  0.3943  0.0274 -0.1540
 9499W        W25573  16.542   0.875  15.108 -0.1790  0.1188 -0.3057
 9500W        W25574  17.151  10.493   1.747  0.2338 -0.2028 -0.0534
 9501W        W25575   0.761  11.156   0.839 -0.3054  0.1101  0.0461
 9502W        W25576   2.882   2.270  11.437 -0.0901  0.1555  0.2523
 9503W        W25577   5.250  16.309  15.379  0.1851 -0.1573 -0.2070
 9504W        W25578  14.957   9.099  11.249  0.2389  0.0698 -0.0847
 9505W        W25579   2.054   4.057   2.698  0.0167 -0.2481 -0.1153
 9506W        W25580   8.711  17.675   1.726 -0.0385 -0.3270  0.0656
 9507W        W25581  12.387  14.001   1.868  0.0603  0.1518  0.3757
 9508W        W25582   3.546  10.135  13.953  0.1326  0.2167 -0.0401
 9509W        W25583  12.040  12.510  15.272  0.0630 -0.0721 -0.6539
 9510W        W25584  15.940   8.056  12.970 -0.3278  0.2478  0.2150
 9511W        W25585  14.955   8.632   3.095  0.1838  0.0754  0.0844
 9512W        W25586  11.473  17.721   0.650  0.0086  0.1508  0.2311
 9513W        W25587   5.914   7.843  15.606 -0.2703 -0.1172 -0.0164
 9514W        W25588   5.985  18.093  13.763  0.1833 -0.1234 -0.4215
 9515W        W25589  13.371   4.642  12.338 -0.2495 -0.2643 -0.1339
 9516W        W25590  10.080  17.459  15.627 -0.5241  0.0728  0.3352
 9517W        W25591  11.570   6.530   2.892 -0.3129  0.0221 -0.0205
 9518W        W25592  16.646   6.424   2.257  0.1813 -0.2868 -0.0541
 9519W        W25593   6.100   2.109  14.230 -0.0217 -0.1155 -0.1180
 9520W        W25594   7.293   4.162  13.826  0.0205  0.1043 -0.3384
 9521W        W25595   8.543   1.502   2.353 -0.1376  0.0590 -0.4027
 9522W        W25596   9.479   3.079  12.997  0.0428 -0.0770 -0.0623
 9523W        W25597  11.389   0.535   2.045 -0.1415  0.0237  0.0755
 9524W        W25598  11.383   1.918   2.178  0.1555  0.1453 -0.2884
 9525W        W25599  15.177   1.359   1.960 -0.1782  0.0633 -0.1255
 9526W        W25600   7.046  16.665  13.921 -0.1007 -0.0992 -0.0283
 9527W        W25601   3.782   3.819   0.546  0.2538 -0.1652 -0.1315
 9528W        W25602  16.984  13.478   1.658  0.2140  0.0840  0.2139
 9529W        W25603   7.195  10.224   2.978  0.1552  0.0264  0.0027
 9530W        W25604   5.856  17.180  12.814  0.1688 -0.2802 -0.0548
 9531W        W25605  15.353   8.551   0.447 -0.0149  0.0858 -0.0613
 9532W        W25606   4.731  15.745   1.226  0.1772 -0.0207  0.2820
 9533W        W25607   0.360   7.232  16.194  0.2406  0.1154 -0.3628
 9534W        W25608  17.349  14.835   3.090 -0.0459 -0.2047 -0.4077
 9535W        W25609   1.574   0.918  11.572  0.0312  0.0031  0.0854
 9536W        W25610  12.651  15.230  12.388  0.0902  0.1319 -0.3243
 9537W        W25611   0.297   1.084   4.713 -0.2762 -0.1306  0.0176
 9538W        W25612  14.812  15.496   1.669 -0.1416 -0.1490 -0.1449
 9539W        W25613   0.532   9.068   2.798 -0.0639  0.1962 -0.2008
 9540W        W25614   1.785  17.676   0.669  0.3529 -0.0995  0.0976
 9541W        W25615  13.817   1.354  11.670  0.0128 -0.1316  0.0439
 9542W        W25616  16.602  16.704  13.424  0.0906 -0.0092 -0.0739
 9543W        W25617  14.697  13.670   0.497 -0.1156  0.0714 -0.0404
 9544W        W25618  14.840  12.332   1.648  0.3055 -0.4315 -0.3885
 9545W        W25619   7.780  12.798  15.275  0.0821 -0.1215 -0.1276
 9546W        W25620  15.364  16.742  15.970  0.4262 -0.2767 -0.3337
 9547W        W25621   7.650   0.263  13.135 -0.2652  0.0268  0.2605
 9548W        W25622  11.410   5.723  13.107 -0.1374 -0.0751  0.1153
 9549W        W25623  12.467   3.779   3.396 -0.2155  0.1082 -0.0600
 9550W        W25624   4.261  15.820  13.255 -0.1229  0.2202 -0.3178
 9551W        W25625  13.024   3.426  11.118  0.1552  0.0805 -0.0233
 9552W        W25626  15.321  17.561  14.345  0.1259 -0.2793 -0.0304
 9553W        W25627   6.200   0.573   3.524 -0.1081  0.0997 -0.2263
 9554W        W25628   5.291  10.347  13.445 -0.1280 -0.4057 -0.1030
 9555W        W25629   2.655   4.876   4.878  0.0307 -0.1492  0.1346
 9556W        W25630   7.700   5.009  13.311  0.4020 -0.0482  0.1292
 9557W        W25631   2.180   7.130  12.262 -0.0681 -0.3264 -0.1188
 9558W        W25632   8.532  11.022  15.556  0.1692 -0.2361 -0.1927
 9559W        W25633  13.953   0.843  15.365  0.1360  0.1369  0.0448
 9560W        W25634   1.043  13.666   5.348  0.1782  0.0020  0.2546
 9561W        W25635   4.736   7.066   6.256 -0.1205  0.0608  0.1515
 9562W        W25636   3.709  12.621  11.658 -0.0494 -0.2166 -0.0228
 9563W        W25637   2.430   9.668  12.700  0.1928 -0.1293  0.0174
 9564W        W25638   2.615  16.938  13.640 -0.0112  0.0790 -0.0207
 9565W        W25639  12.844  11.743  15.077  0.1960  0.2250 -0.1069
 9566W        W25640   4.993   9.751  15.294  0.2092  0.1709  0.1453
 9567W        W25641   3.046   5.860   4.879 -0.4759 -0.1656 -0.3645
 9568W        W25642  13.072   2.760   1.936  0.4774  0.4160 -0.2005
 9569W        W25643   5.565  16.056  15.820  0.1667  0.0313  0.1513
 9570W        W25644   2.351  10.028   3.215  0.1752  0.0941 -0.1277
 9571W        W25645  15.509   1.495   5.475 -0.4070 -0.2518 -0.0871
 9572W        W25646  16.818   3.123   4.557  0.1839  0.1738 -0.0934
 9573W        W25647   4.218  10.182  11.617 -0.0850 -0.0387 -0.0125
 9574W        W25648   9.758   7.384  11.323 -0.0483 -0.2042 -0.0612
 9575W        W25649   4.843  12.845   0.069 -0.1830  0.2153 -0.0872
 9576W        W25650  18.313   8.253  11.544 -0.2407  0.1600 -0.2787
 9577W        W25651  17.914   7.859   2.207 -0.2761  0.2030 -0.0244
 9578W        W25652   0.371  16.852  14.391 -0.1673  0.1212  0.0075
 9579W        W25653   2.864  17.950   2.449 -0.0109 -0.0846 -0.0677
 9580W        W25654   3.600   7.855   5.347 -0.2218  0.0821  0.0821
 9581W        W25655   7.855   2.888   1.560  0.1898  0.0963  0.1607
 9582W        W25656  16.334   7.506   3.578 -0.0688  0.2925  0.0489
 9583W        W25657  16.750  11.974  12.286 -0.0545  0.0270 -0.3818
 9584W        W25658   6.752  11.766   0.430  0.3399  0.1751 -0.0583
 9585W        W25659   9.867   8.843  13.868  0.2179  0.1713 -0.1361
 9586W        W25660   1.958   5.394  16.153  0.2777  0.0577 -0.4444
 9587W        W25661  13.765  17.673  15.959 -0.0560  0.2793  0.2178
 9588W        W25662   2.845   4.116   4.347  0.0587 -0.3575 -0.3335
 9589W        W25663  13.546   1.801  11.624 -0.1364 -0.1931  0.1251
 9590W        W25664   7.849  15.864   1.526 -0.1195 -0.2955 -0.2615
 9591W        W25665  11.638  11.594   5.800 -0.2649 -0.0809 -0.3781
 9592W        W25666   8.297  18.226  13.828  0.0253  0.0846  0.1305
 9593W        W25667  17.861  16.372   0.486  0.2681 -0.0160  0.1024
 9594W        W25668   0.042  13.717   0.382  0.0293  0.1628 -0.1803
 9595W        W25669   3.916   3.792  12.205  0.0555 -0.0598  0.0115
 9596W        W25670   9.552  14.039   3.163 -0.2176  0.1071 -0.1733
 9597W        W25671   3.210  13.683   5.228 -0.1300 -0.0751  0.3365
 9598W        W25672  14.660   4.436   4.708  0.4619  0.0691  0.2584
 9599W        W25673  12.591  14.092   4.840  0.1363  0.1837 -0.0141
 9600W        W25674  11.176   0.812   4.074 -0.1687  0.0343  0.1637
 9601W        W25675  13.428  14.549  15.443 -0.1889 -0.1051  0.1851
 9602W        W25676   7.219   5.787  13.631  0.0557 -0.3103  0.0343
 9603W        W25677   6.817   6.867  14.983 -0.0346  0.2806 -0.2724
 9604W        W25678   3.758  16.270   2.961 -0.2292  0.0251 -0.0568
 9605W        W25679  16.079   6.364  11.573  0.1805  0.1623 -0.1350
 9606W        W25680   8.161  13.824  12.151  0.0415 -0.2781 -0.0784
 9607W        W25681   0.401  13.363   3.976 -0.3144 -0.0131 -0.1984
 9608W        W25682  15.262  13.238  12.260 -0.1662 -0.2970 -0.1596
 9609W        W25683  14.596   3.681  12.447 -0.0028  0.0732  0.1390
 9610W        W25684  13.377  11.607  15.052  0.0114 -0.1236 -0.1158
 9611W        W25685   2.604   8.805  11.642  0.3109  0.1424 -0.2677
 9612W        W25686  14.430  13.772  15.523 -0.0117 -0.0530 -0.2158
 9613W        W25687   2.184   2.647  11.659  0.1378  0.2666  0.2571
 9614W        W25688  11.488   4.805   3.694  0.1049 -0.2990 -0.3071
 9615W        W25689  18.199   4.892   0.926 -0.0386  0.0742  0.0653
 9616W        W25690   1.321   2.424   2.533 -0.0096  0.4052 -0.0941
 9617W        W25691  13.920   4.761  14.293  0.0367  0.0815  0.3111
 9618W        W25692  14.775   1.562  13.551  0.2158  0.2748  0.2632
 9619W        W25693  17.197  11.988  15.131  0.1634  0.1652 -0.3500
 9620W        W25694  10.461  12.492  15.502  0.2908  0.0879  0.1154
 9621W        W25695  10.110   2.718  11.720  0.2716  0.0121 -0.2210
 9622W        W25696   7.029  10.222  11.443  0.1224 -0.2157  0.0260
 9623W        W25697  17.140  13.807  14.772 -0.0809  0.0831 -0.0418
 9624W        W25698   3.317   2.601  14.084  0.0226  0.0649 -0.1060
 9625W        W25699  14.611  13.695  13.900 -0.0947  0.1912 -0.0898
 9626W        W25700   2.434   7.628  11.478 -0.2238 -0.1963  0.0812
 9627W        W25701  14.987   6.897   2.338 -0.1048 -0.1335  0.1358
 9628W        W25702  13.309   5.525  14.727  0.2780 -0.1128  0.0538
 9629W        W25703   2.089  15.253   0.648 -0.0096 -0.2124  0.0358
 9630W        W25704   3.113  16.502   3.566 -0.0305  0.0503  0.1331
 9631W        W25705  12.022   6.643  16.035 -0.0431  0.1510 -0.0698
 9632W        W25706   8.821  17.496   0.191 -0.1231  0.1141  0.0330
 9633W        W25707   0.477   0.565  14.964  0.1181 -0.1310 -0.0102
 9634W        W25708  11.135  18.120   2.371 -0.2542  0.1684  0.2940
 9635W        W25709   4.961   2.639   2.025  0.1813  0.0113  0.2959
 9636W        W25710   2.197   8.405  15.804 -0.1610 -0.1006  0.1630
 9637W        W25711  18.028   6.430   4.996  0.2565  0.0650 -0.1713
 9638W        W25712   9.026   1.304  10.399 -0.2126  0.1453 -0.2578
 9639W        W25713  11.846   5.175   2.558 -0.2796 -0.0343 -0.0520
 9640W        W25714  11.043   4.641   1.414 -0.0671  0.0881  0.2233
 9641W        W25715  18.083  11.775   1.734  0.0751 -0.0874 -0.4086
 9642W        W25716   0.581   8.082   2.199  0.2853  0.0719  0.3316
 9643W        W25717   2.758   6.518   0.016  0.0479  0.0420  0.1730
 9644W        W25718   8.631  16.297   4.371 -0.0070 -0.1202  0.0450
 9645W        W25719   0.357   3.096   3.807  0.0782  0.1119  0.2274
 9646W        W25720   2.940   9.211   2.486 -0.0627 -0.1241 -0.1057
 9647W        W25721   9.496  16.852   4.698 -0.1821  0.0160  0.4713
 9648W        W25722   8.858  16.212   5.020  0.2153 -0.0081  0.2178
 9649W        W25723   3.550  15.387   6.073  0.0647 -0.0651 -0.0061
 9650W        W25724   1.647   3.667   5.249 -0.1873  0.2423  0.0586
 9651W        W25725   4.903   0.120  16.056 -0.0260 -0.1402 -0.0249
 9652W        W25726   9.174  15.274   2.095 -0.3908  0.1152 -0.0101
 9653W        W25727  12.224  16.101   2.256  0.0148  0.1302  0.0876
 9654W        W25728   0.366  16.679   5.801  0.0255  0.2024 -0.1019
 9655W        W25729   2.641  16.470  13.474  0.1935 -0.0215 -0.2914
 9656W        W25730   8.475   5.133   3.314 -0.1641  0.2195  0.0577
 9657W        W25731   1.821   0.099  14.178 -0.1074  0.0140  0.2230
 9658W        W25732  11.904   4.925  10.654  0.3112  0.0305  0.0544
 9659W        W25733   4.101   7.705  11.545 -0.0814  0.0293  0.2054
 9660W        W25734  11.092   0.924   2.275 -0.0700 -0.4030 -0.0536
 9661W        W25735  13.529  17.320   2.037 -0.0820 -0.2105 -0.0221
 9662W        W25736  10.993   9.510   2.635  0.0988  0.0548 -0.0234
 9663W        W25737   3.040   1.410  12.538  0.0807  0.1178  0.0709
 9664W        W25738   7.235   3.846   5.891  0.0822  0.0126  0.0498
 9665W        W25739   6.021   3.342  15.219  0.0733 -0.4127 -0.0874
 9666W        W25740  16.580  11.389  14.872  0.1278 -0.0746 -0.2501
 9667W        W25741   6.470  15.313  12.759 -0.1580 -0.1584 -0.0007
 9668W        W25742   2.608   8.449   4.601  0.2269 -0.0910 -0.0612
 9669W        W25743  13.635   2.183   0.499 -0.2462  0.3509 -0.2036
 9670W        W25744   8.270   4.375   5.435 -0.0480 -0.2308  0.0729
 9671W        W25745  11.262   1.099   3.259  0.3396  0.1705  0.1044
 9672W        W25746   5.743  11.889   4.646 -0.1322 -0.2282  0.1202
 9673W        W25747  15.181   1.922  13.921  0.0854  0.0278  0.2759
 9674W        W25748   5.429   7.262  13.471 -0.1127  0.2187 -0.1760
 9675W        W25749  11.913  12.644  11.242  0.2511 -0.0895 -0.0586
 9676W        W25750  14.333  11.616  14.314 -0.0951 -0.0732 -0.2388
 9677W        W25751  10.142  13.843  11.997  0.0609 -0.2353 -0.2072
 9678W        W25752  16.522  15.270   3.585 -0.0995 -0.0791 -0.0870
 9679W        W25753   0.967  17.811   5.301 -0.4008  0.0555  0.3092
 9680W        W25754  11.087   2.735   2.057  0.3169 -0.2081  0.1140
 9681W        W25755   3.679  11.319  12.843  0.1844 -0.1131  0.4288
 9682W        W25756  16.073  16.714   5.225  0.0231  0.0606  0.1465
 9683W        W25757  16.713  17.552   5.647  0.4360  0.2630  0.0178
 9684W        W25758   7.284   2.953  15.254 -0.1396 -0.3157 -0.1234
 9685W        W25759   1.659  15.109  14.971 -0.1625 -0.1267  0.0904
 9686W        W25760   9.364   2.195   3.400 -0.1482  0.1198 -0.1415
 9687W        W25761   7.034   6.938  12.994  0.0112  0.0229 -0.1575
 9688W        W25762   4.294   7.489  11.890 -0.3339  0.1669 -0.1023
 9689W        W25763   1.842  17.152   0.694 -0.0216 -0.1136 -0.1680
 9690W        W25764   1.564   0.191   5.448 -0.0592  0.1354  0.3191
 9691W        W25765   0.193   7.392  11.447  0.1834 -0.0564  0.2153
 9692W        W25766   2.032   8.394   5.381  0.3190 -0.2262 -0.1432
 9693W        W25767   3.135   0.335   0.754  0.0727  0.0473 -0.0009
 9694W        W25768   3.234  14.868  12.590 -0.2558  0.4057  0.0178
 9695W        W25769   0.194   2.185  12.129 -0.2234  0.0385  0.0137
 9696W        W25770  16.469   5.979   2.940 -0.2514 -0.0083 -0.1532
 9697W        W25771   6.295  16.512  15.629 -0.0585  0.2879  0.1818
 9698W        W25772   5.980  15.851   2.135 -0.4471  0.1422 -0.3994
 9699W        W25773  16.706  10.619   1.841 -0.0382 -0.0794 -0.1694
 9700W        W25774   3.716   1.231  15.981 -0.0767  0.0607  0.0641
 9701W        W25775  12.249   2.729  15.862  0.1297 -0.0314  0.3004
 9702W        W25776  13.158   8.080   0.585  0.1823  0.2989  0.3605
 9703W        W25777   7.200   5.839  15.390  0.0948 -0.2388  0.2290
 9704W        W25778  12.678   7.322  11.567 -0.4658 -0.0495 -0.0144
 9705W        W25779  13.038   6.604   1.067  0.0139  0.0196  0.3449
 9706W        W25780   6.991   2.125  14.726 -0.1234 -0.0657 -0.0865
 9707W        W25781   1.412   6.652   3.462 -0.1777 -0.3360  0.0041
 9708W        W25782   8.645   7.675   9.921 -0.3202 -0.1358 -0.0279
 9709W        W25783   5.244   1.543   3.536 -0.0420 -0.1848  0.1439
 9710W        W25784   9.756   2.144   0.385 -0.0796  0.0704  0.1229
 9711W        W25785  16.081   0.257  14.604  0.3027  0.1894 -0.1007
 9712W        W25786   4.635  16.522   0.670  0.0173 -0.3220 -0.1122
 9713W        W25787   5.931  16.483   1.427 -0.2801 -0.3189 -0.1127
 9714W        W25788   5.640  14.145  11.565 -0.1762 -0.1913  0.1118
 9715W        W25789   4.194   1.571  15.219  0.0891 -0.0506 -0.0743
 9716W        W25790   6.262   7.130  15.150 -0.1236  0.2651  0.1935
 9717W        W25791  16.724  11.650  14.461  0.0171  0.1286  0.3003
 9718W        W25792  15.074  14.365   0.872 -0.0630  0.4324 -0.1619
 9719W        W25793   8.459  14.721  11.653  0.2483  0.0900  0.0613
 9720W        W25794   1.902   1.481  12.349  0.2559  0.3731  0.1422
 9721W        W25795   1.218  17.077  14.060 -0.1985 -0.1300 -0.0314
 9722W        W25796  14.751   4.777  11.331  0.0186  0.1463 -0.1500
 9723W        W25797  17.444   3.085  15.697 -0.0014  0.0538 -0.0174
 9724W        W25798  12.713   1.393   3.688 -0.1160 -0.0911  0.1053
 9725W        W25799   4.672  13.099   0.497 -0.1867  0.2483  0.2291
 9726W        W25800  11.188  13.048  15.454  0.3403 -0.0249 -0.0115
 9727W        W25801  15.848  17.899  15.078  0.0700  0.3610 -0.0510
 9728W        W25802   7.529  11.716   1.323  0.0267 -0.0969  0.3802
 9729W        W25803   7.628   9.009   4.238 -0.2956  0.0954 -0.0785
 9730W        W25804   7.502   4.737   5.002 -0.2744 -0.2851  0.1089
 9731W        W25805   1.173   0.716   0.526  0.2025  0.1257 -0.0738
 9732W        W25806  17.037   7.668  13.424 -0.2461  0.1741  0.1613
 9733W        W25807   4.737   0.931   2.186 -0.0563  0.0834 -0.2039
 9734W        W25808   0.943  14.019  13.783  0.2193 -0.2494  0.0002
 9735W        W25809   3.711   3.563  10.360 -0.0007  0.1112  0.0458
 9736W        W25810  15.360   7.218   5.051  0.2524 -0.1118  0.1090
 9737W        W25811   9.030   7.273   0.041 -0.2285  0.1264  0.0863
 9738W        W25812  10.254   7.300   4.421  0.0771 -0.1893 -0.0263
 9739W        W25813   0.210  18.234  15.445 -0.1115 -0.1962 -0.1197
 9740W        W25814   4.907   7.160   1.063 -0.3426  0.0340  0.0859
 9741W        W25815   5.855   4.122   3.407 -0.4253  0.3197 -0.1390
 9742W        W25816  13.615   3.621   1.139 -0.0171 -0.1036  0.2583
 9743W        W25817   8.445   0.236  11.498 -0.0609  0.0342  0.0319
 9744W        W25818  16.803   0.931   1.406 -0.1942  0.2027  0.0528
 9745W        W25819   9.111   2.826   3.520 -0.2220  0.0595  0.4855
 9746W        W25820   1.888   2.366   2.841  0.0882  0.1411 -0.1645
 9747W        W25821   4.731  11.329  11.979 -0.0325 -0.0888  0.2190
 9748W        W25822  17.860   6.798   5.232 -0.2820 -0.1160  0.0830
 9749W        W25823   1.924  17.649  15.293 -0.3086 -0.0356 -0.0314
 9750W        W25824  12.930   0.687   5.577  0.0265 -0.2523 -0.1132
 9751W        W25825   8.029   8.031  11.447 -0.2665  0.0214 -0.0404
 9752W        W25826   1.685   5.016   4.506 -0.1848  0.4416  0.1998
 9753W        W25827   2.867  12.172  11.573 -0.2556  0.0258 -0.2261
 9754W        W25828  12.473  15.966  15.835 -0.2308  0.2264  0.0229
 9755W        W25829  16.127  10.294  12.884  0.0371  0.0270  0.0501
 9756W        W25830  10.780  17.966   1.093  0.0897  0.0797 -0.2301
 9757W        W25831  17.599   3.424   1.921  0.1006  0.2230 -0.1975
 9758W        W25832  10.975   1.973   1.242  0.2614  0.0054  0.0180
 9759W        W25833   8.562   6.920  14.016 -0.2527 -0.1828  0.0328
 9760W        W25834   0.730  11.549  13.780  0.3316 -0.0370 -0.0063
 9761W        W25835  16.302  12.342  14.987 -0.1223  0.1761  0.0724
 9762W        W25836   9.772   4.834  16.160 -0.1684 -0.3084  0.1236
 9763W        W25837   0.082  12.887   5.964 -0.3017  0.0566  0.1010
 9764W        W25838  16.816   1.422  16.107 -0.0805  0.3967  0.0407
 9765W        W25839  17.282   9.716   4.840  0.0105 -0.2397  0.1566
 9766W        W25840   4.520  17.101   1.422 -0.1157  0.1425 -0.1208
 9767W        W25841   4.694   9.333  15.003 -0.0588  0.0473 -0.0075
 9768W        W25842  10.643   3.648   4.073  0.0078 -0.1177  0.0628
 9769W        W25843   9.033   6.403   0.417 -0.0688 -0.3594 -0.1219
 9770W        W25844  15.998   0.706   2.981  0.2492  0.1278 -0.1775
 9771W        W25845   1.108   4.476   0.746 -0.0368 -0.1687  0.0499
 9772W        W25846   7.745   2.174   3.554  0.2713  0.3645 -0.0973
 9773W        W25847  14.267  14.429  10.706  0.0109 -0.1516 -0.2950
 9774W        W25848   9.256   6.000   1.474  0.4713  0.1391 -0.5404
 9775W        W25849  14.559  17.546  11.037 -0.0579 -0.1740 -0.3315
 9776W        W25850  18.040  14.174  11.184 -0.0100 -0.0848 -0.0897
 9777W        W25851   8.779   5.825   2.933  0.0942  0.2174  0.0084
 9778W        W25852   9.097   7.988   2.090 -0.2106  0.1491  0.0896
 9779W        W25853   6.477   6.994  11.662  0.1003 -0.0707  0.2890
 9780W        W25854  10.923  10.974  15.119 -0.1076 -0.0144 -0.3917
 9781W        W25855  17.004   2.998  10.524  0.1192  0.0900  0.1330
 9782W        W25856  13.096  17.872   4.586  0.0518 -0.1928 -0.0935
 9783W        W25857  16.134   8.686   3.032  0.3318 -0.1224 -0.1701
 9784W        W25858   8.371  17.016  15.357  0.0985  0.0751  0.1822
 9785W        W25859  15.508  12.402   3.729  0.2562  0.2490 -0.0646
 9786W        W25860   6.356   6.502  14.075 -0.2371 -0.0562 -0.0095
 9787W        W25861  11.622   7.373  15.643 -0.2605 -0.0364  0.1930
 9788W        W25862   4.115   1.204   0.661  0.1217 -0.2696 -0.0007
 9789W        W25863  13.777  18.265  12.588 -0.2702 -0.2561  0.1157
 9790W        W25864  16.464  14.706  13.389  0.2242 -0.2187 -0.1630
 9791W        W25865  16.229   0.589  12.052  0.0824  0.2088  0.0679
 9792W        W25866  11.943   8.276   0.487 -0.0929 -0.3221 -0.0271
 9793W        W25867   8.176   7.312  12.250 -0.1357 -0.0284  0.0273
 9794W        W25868  17.645   1.643   3.979 -0.2708 -0.0822  0.0137
 9795W        W25869  16.640  13.989   2.440 -0.2053  0.3245  0.0146
 9796W        W25870  11.393  15.531  16.126 -0.0292  0.0522 -0.1577
 9797W        W25871   3.097  15.361  12.402  0.2820 -0.1528  0.0062
 9798W        W25872  10.681  17.664  11.766 -0.1192  0.0237 -0.0376
 9799W        W25873  16.380   6.549   3.397  0.0164  0.0516  0.2430
 9800W        W25874   2.204   5.956   4.885  0.0819  0.0546 -0.1488
 9801W        W25875  11.773   6.384   4.011  0.0813  0.0932  0.2594
 9802W        W25876  13.906  11.592  12.226  0.0713 -0.0278  0.1908
 9803W        W25877   4.547   1.134   3.217 -0.0569 -0.0661  0.0279
 9804W        W25878  14.611   1.609  12.567  0.1654 -0.1388 -0.2374
 9805W        W25879   7.424  11.400   1.001  0.0838  0.0731  0.0101
 9806W        W25880  10.957  13.770  13.258 -0.2482  0.1769  0.4198
 9807W        W25881  16.564   7.047   2.224 -0.3363  0.0851 -0.0960
 9808W        W25882   3.644  11.483   5.194 -0.2016  0.1897 -0.1837
 9809W        W25883   8.378  15.492   1.849  0.1383  0.2376 -0.0635
 9810W        W25884  16.014   8.030  11.994 -0.1940  0.0136  0.2665
 9811W        W25885  13.497   8.705  11.863  0.2452 -0.0001 -0.1278
 9812W        W25886   8.272   7.388   0.600  0.0498  0.1386  0.1518
 9813W        W25887   2.211  13.100  12.416  0.0479 -0.2968  0.1690
 9814W        W25888   3.830  13.953  15.310  0.0336  0.0086  0.1058
 9815W        W25889   2.127   1.439  11.862  0.0817  0.0089  0.1166
 9816W        W25890  17.085  17.742   0.975  0.0752 -0.2175 -0.4203
 9817W        W25891   6.109  15.581  13.698 -0.1390  0.0337 -0.1299
 9818W        W25892  13.280  18.179  14.888 -0.0679  0.0465  0.0735
 9819W        W25893  14.102   5.376  11.498  0.1992 -0.1744 -0.0194
 9820W        W25894  13.778  16.684   5.496  0.0044 -0.3140  0.1240
 9821W        W25895   0.614   4.566   2.971 -0.2192 -0.0117 -0.1970
 9822W        W25896   4.498   0.953  15.509 -0.2367 -0.0654 -0.0858
 9823W        W25897   0.859   7.834   4.760 -0.2170 -0.2739  0.0940
 9824W        W25898   5.667  17.589  15.410  0.2373 -0.2963 -0.1843
 9825W        W25899  11.135   8.593   2.232 -0.0577 -0.0508  0.3767
 9826W        W25900  16.855   1.710   5.532  0.0022  0.2165  0.1440
 9827W        W25901  12.896   7.963  11.632 -0.0078 -0.1922  0.0325
 9828W        W25902   2.816  17.990  12.024  0.0656  0.0250 -0.2503
 9829W        W25903  15.759  17.704  11.474  0.0023  0.0988  0.0207
 9830W        W25904   0.128   1.515   4.486  0.1411  0.0583 -0.0264
 9831W        W25905  16.763  15.460   0.225  0.3263 -0.0331 -0.2175
 9832W        W25906   9.452  16.728   0.945 -0.3288 -0.1623  0.0346
 9833W        W25907  16.375  12.755  12.646  0.1574 -0.0063  0.0692
 9834W        W25908   4.421  11.366   5.243 -0.0291  0.1510  0.1220
 9835W        W25909  13.167  12.688   3.063 -0.1988 -0.0706  0.3856
 9836W        W25910   7.413  15.340  13.872  0.3886  0.0497 -0.3835
 9837W        W25911   3.240  14.371  12.327  0.1871 -0.1685  0.3496
 9838W        W25912   5.868   7.219   3.780 -0.1691 -0.2165 -0.0633
 9839W        W25913  13.652   3.541  13.935  0.0736  0.1869  0.0411
 9840W        W25914   7.521  15.938   0.699  0.0854 -0.1078  0.1290
 9841W        W25915  16.356   6.936   0.706  0.0430  0.2492 -0.0988
 9842W        W25916  13.232  11.468   0.324  0.2941 -0.3223 -0.1985
 9843W        W25917   9.432   4.149   2.305 -0.1161 -0.2139  0.1079
 9844W        W25918  14.209  15.893  15.666  0.0927 -0.0400 -0.0608
 9845W        W25919   7.570  12.722   3.196 -0.1239 -0.1938  0.1009
 9846W        W25920   5.788  13.024   2.111  0.2380 -0.0189 -0.1777
 9847W        W25921   5.110  17.337  12.267  0.1277 -0.0719 -0.2445
 9848W        W25922   1.879   3.904  13.226 -0.1365  0.4092  0.1176
 9849W        W25923   4.781   5.938   5.082  0.2609 -0.0380 -0.0743
 9850W        W25924   7.922   9.021  15.068  0.0485  0.0196  0.4556
 9851W        W25925  11.039  16.902   2.107  0.0053  0.3341 -0.0306
 9852W        W25926  15.996   6.509  14.106 -0.0877 -0.1227 -0.2354
 9853W        W25927  15.007  16.206   2.594  0.1916  0.0394  0.2488
 9854W        W25928   8.924   4.195  12.208 -0.0148 -0.1673  0.0997
 9855W        W25929   4.861   5.727   2.280 -0.0621 -0.0025 -0.0028
 9856W        W25930   9.264   2.446   3.829 -0.2168  0.3399 -0.2531
 9857W        W25931  10.013   2.896   0.415 -0.1693  0.0671 -0.0498
 9858W        W25932   7.553  16.948   2.384  0.0222  0.1641 -0.1955
 9859W        W25933   9.621  14.034  11.827  0.1055 -0.1554 -0.2744
 9860W        W25934  14.871   6.140   2.847  0.1772  0.2149 -0.1350
 9861W        W25935   7.861  11.156  12.510  0.1131 -0.3574  0.2526
 9862W        W25936   4.126  15.647   2.494 -0.0052 -0.3311  0.1048
 9863W        W25937   3.293   1.049  12.355 -0.2200 -0.0660 -0.3089
 9864W        W25938   7.208   8.750   4.233  0.0047  0.2302  0.0843
 9865W        W25939   6.246   0.768   5.119 -0.0194  0.0496 -0.1216
 9866W        W25940  10.008   1.542   4.760  0.0833  0.0347  0.0150
 9867W        W25941  16.094  15.350   0.797 -0.0235 -0.1487 -0.1788
 9868W        W25942   8.420  15.671   0.401 -0.0627 -0.3429 -0.1893
 9869W        W25943  17.454   9.267  13.347 -0.1385  0.1425 -0.0821
 9870W        W25944  14.623  13.605  11.742  0.3402  0.0317  0.0347
 9871W        W25945  11.909  13.462  15.803  0.1940 -0.3015  0.0354
 9872W        W25946  10.803   1.914   5.068  0.1406 -0.0078 -0.3740
 9873W        W25947   9.386   1.468   3.964 -0.0300  0.0297  0.0831
 9874W        W25948  16.060   7.391   0.554 -0.0332 -0.2176 -0.4295
 9875W        W25949   9.796   3.631   3.510 -0.2644  0.0009 -0.1252
 9876W        W25950   1.360   4.914  15.810 -0.1822 -0.0452  0.2416
 9877W        W25951  15.771  12.355   1.175  0.3030 -0.0051  0.0731
 9878W        W25952   8.049   1.738   3.777  0.2079  0.1213 -0.2704
 9879W        W25953   3.711  13.521  14.135 -0.2171  0.0463  0.1387
 9880W        W25954   6.246  10.568   0.187 -0.0571  0.0944 -0.3804
 9881W        W25955   4.592   6.425  15.232 -0.0480 -0.1947 -0.0894
 9882W        W25956  17.743   4.135  15.136 -0.0817  0.1097  0.1206
 9883W        W25957   5.157  15.671   3.178 -0.1205 -0.0604 -0.0695
 9884W        W25958  11.243  11.441   2.148  0.2247 -0.0312  0.2457
 9885W        W25959  14.327  10.235   1.608 -0.0783  0.2764 -0.0867
 9886W        W25960  12.151  12.895   5.744  0.2111  0.3004 -0.2101
 9887W        W25961  13.954  11.391  14.595 -0.0905  0.0214 -0.3414
 9888W        W25962  15.996  13.697  12.085  0.1005  0.0702  0.0102
 9889W        W25963  15.862   4.103   3.298 -0.0177 -0.0273 -0.0490
 9890W        W25964   2.623  10.753   0.567 -0.2954 -0.1958  0.3530
 9891W        W25965   5.668  10.039  15.910 -0.4381  0.1188  0.1011
 9892W        W25966  14.744  10.750   1.142 -0.0240  0.0043 -0.1197
 9893W        W25967  13.524   9.565  13.736  0.0399 -0.0695  0.1890
 9894W        W25968   9.441   9.072  11.417  0.1853  0.0279  0.1038
 9895W        W25969   3.292   2.956   1.725 -0.0497 -0.0768  0.0658
 9896W        W25970  15.614  18.144  13.901 -0.1525  0.1600 -0.1169
 9897W        W25971  11.956  18.186  12.576 -0.1745  0.3392  0.2548
 9898W        W25972  17.753   7.537  11.723 -0.1483  0.1099 -0.0771
 9899W        W25973   2.372  10.010   5.391  0.0839 -0.0122 -0.1275
 9900W        W25974  17.285   6.387  13.499 -0.0912 -0.1313  0.0493
 9901W        W25975   1.409   0.937  14.759  0.2059 -0.0421  0.0621
 9902W        W25976  11.560   3.658   5.740 -0.2126 -0.0794 -0.1316
 9903W        W25977  14.517   8.343  15.031 -0.0563  0.0566  0.3727
 9904W        W25978  11.825  16.736  11.487 -0.1943  0.1024 -0.1984
 9905W        W25979  17.955   2.918   3.144  0.1745  0.4014  0.1566
 9906W        W25980   6.928   3.830  14.674  0.0710  0.1716 -0.0368
 9907W        W25981   5.877  18.013  12.340  0.0605  0.0853 -0.3627
 9908W        W25982  10.469   8.512  16.196  0.1784 -0.2432  0.0066
 9909W        W25983  13.413   8.917   4.646 -0.0322  0.1969 -0.4179
 9910W        W25984   5.044  14.502   1.074  0.1685  0.1275 -0.1333
 9911W        W25985  17.397   5.509  16.258  0.0610 -0.2798 -0.0405
 9912W        W25986   7.178   0.007   3.094  0.2303  0.3190  0.2192
 9913W        W25987  14.824  16.431  15.662  0.0667 -0.0876  0.0477
 9914W        W25988   5.774  17.339   3.743  0.2116 -0.1660  0.0939
 9915W        W25989   1.483   0.849  16.315 -0.1759  0.2883  0.0037
 9916W        W25990   8.481   7.861  15.798  0.0602 -0.0264  0.1200
 9917W        W25991   5.188   7.504   2.177 -0.0359  0.1096  0.0778
 9918W        W25992   4.707   3.168   2.953  0.1052 -0.0618  0.1050
 9919W        W25993   9.756  12.141  16.203 -0.0145 -0.1764  0.0164
 9920W        W25994  11.800   8.261   4.039 -0.1585 -0.2362  0.0547
 9921W        W25995  12.713   6.425  16.171  0.1356 -0.0069 -0.3597
 9922W        W25996   7.748   9.316   3.852  0.2832 -0.1910 -0.1849
 9923W        W25997   0.027  11.093  16.286  0.1843  0.0292  0.1409
 9924W        W25998  11.521  13.689  12.582  0.1594  0.0114 -0.3411
 9925W        W25999   2.719  10.632  13.374 -0.0997 -0.2394  0.0711
 9926W        W26000   6.720   1.980   0.035  0.2134  0.4080  0.1472
 9927W        W26001   2.120  12.885   3.408  0.2897 -0.0520 -0.0119
 9928W        W26002   6.460  15.346  13.936 -0.1381  0.1111  0.4216
 9929W        W26003   5.441   0.969  14.692 -0.0347  0.4419 -0.0434
 9930W        W26004  11.692  15.525   5.182  0.1415  0.0256 -0.0810
 9931W        W26005   1.685   8.642  13.663 -0.0352 -0.1238 -0.4897
 9932W        W26006  13.082   8.652  16.325  0.0885  0.2646  0.0222
 9933W        W26007   4.278  15.203  14.782  0.0529 -0.0230  0.1890
 9934W        W26008  13.976  11.745   2.218 -0.2474  0.2378  0.1466
 9935W        W26009   6.986  18.149   4.991 -0.0747 -0.2316 -0.0746
 9936W        W26010  16.208  14.976  12.656  0.0202  0.3113  0.4131
 9937W        W26011   2.277  11.684  13.328  0.1865 -0.0747  0.5734
 9938W        W26012  12.527   7.301  13.999  0.2001  0.1383 -0.3676
 9939W        W26013   7.979   5.741  11.430  0.1317  0.2589 -0.0240
 9940W        W26014   0.340  15.223   1.221 -0.1184 -0.1332  0.3006
 9941W        W26015   1.148   6.000  14.470 -0.0758 -0.1604  0.1610
 9942W        W26016  12.603   3.379  12.541  0.1380  0.3563  0.0421
 9943W        W26017  10.711  11.664   0.020  0.1022 -0.1929 -0.0304
 9944W        W26018  12.701   1.618  13.533  0.1666  0.0590 -0.1502
 9945W        W26019   6.044   4.355   0.760  0.1236  0.0763  0.2838
 9946W        W26020  13.694   7.910   3.647  0.3296  0.1172  0.0700
 9947W        W26021  16.586   8.878  14.327  0.5081 -0.6001 -0.0338
 9948W        W26022   9.140   2.558  15.918  0.0116  0.1238  0.0899
 9949W        W26023  10.672  16.387   3.564 -0.2416  0.0466  0.1563
 9950W        W26024  10.909  14.009   3.256  0.0883  0.0178  0.1487
 9951W        W26025   7.645   2.016  15.499  0.0680 -0.0255 -0.2804
 9952W        W26026  16.024  11.637   6.383  0.1401 -0.2054  0.0794
 9953W        W26027   9.623  16.135   0.060 -0.0232 -0.1877  0.0239
 9954W        W26028   0.424   5.283   5.061  0.0838  0.0059 -0.1922
 9955W        W26029  15.794   4.463  16.382  0.2872 -0.1451  0.0102
 9956W        W26030   6.902  15.650   4.822  0.1949 -0.0385 -0.0946
 9957W        W26031   4.813  11.072   2.861  0.0324 -0.0870  0.2760
 9958W        W26032   9.401   5.718  11.894 -0.1627 -0.3624  0.0076
 9959W        W26033  11.113   8.116   1.327 -0.2571  0.2858 -0.1554
 9960W        W26034   5.991   1.329  16.030 -0.2011 -0.3386  0.0923
 9961W        W26035  18.176   6.698   1.178 -0.0012  0.1546 -0.1497
 9962W        W26036   9.929   8.623   3.989  0.3855  0.3150  0.2123
 9963W        W26037   7.467   5.718   3.747  0.0361 -0.1137  0.1776
 9964W        W26038  11.764   4.258   4.107 -0.0598  0.1953  0.2423
 9965W        W26039  14.740  11.459  14.514  0.1095 -0.0346  0.1054
 9966W        W26040  17.813  17.839  15.231 -0.0279 -0.1597 -0.0451
 9967W        W26041  10.785   8.358   2.507 -0.0311 -0.0653  0.0114
 9968W        W26042  10.187   0.489   3.277 -0.0665  0.0788  0.2913
 9969W        W26043  17.916  16.717   0.979 -0.1437 -0.0475  0.0684
 9970W        W26044   3.432  13.452   0.474  0.0678  0.1933 -0.1022
 9971W        W26045   8.112  13.903   0.895  0.0300  0.0460  0.2169
 9972W        W26046  15.703  13.685  13.629 -0.0631 -0.0739 -0.1149
 9973W        W26047  16.993   1.407   2.174  0.1789  0.2471  0.1020
 9974W        W26048  15.245  14.303  11.567 -0.1720  0.0927  0.2071
 9975W        W26049   6.272   7.841   1.119  0.1920 -0.0501  0.0479
 9976W        W26050  10.166   5.537  14.572 -0.0576 -0.2382  0.0537
 9977W        W26051   7.832  10.537  11.724  0.1337  0.1119  0.2083
 9978W        W26052  13.511   9.648   3.793 -0.4126 -0.0532  0.2055
 9979W        W26053   8.328  14.694  12.493 -0.0009  0.0771  0.1116
 9980W        W26054   6.921  11.973  12.398  0.4308 -0.0306  0.1376
 9981W        W26055  17.403   9.039   2.206 -0.3524  0.0366  0.1057
 9982W        W26056   0.798   8.026  14.842 -0.1267  0.1023  0.0289
 9983W        W26057   4.475   3.304   2.333  0.1038  0.0182  0.3650
 9984W        W26058  17.554   0.410  14.098 -0.0498 -0.0518 -0.0619
 9985W        W26059   5.734   2.425  13.066 -0.2239  0.1123 -0.1142
 9986W        W26060  11.015   6.237   4.188  0.0861 -0.0830  0.0809
 9987W        W26061   8.980   3.792   5.356 -0.3440  0.2788 -0.1861
 9988W        W26062  16.889   9.274   4.509  0.0929  0.2436 -0.0912
 9989W        W26063  15.609   8.844  14.103  0.0476  0.3296  0.5432
 9990W        W26064  13.745   0.612  13.855 -0.4015  0.2483  0.0312
 9991W        W26065  13.339   0.176  11.743  0.0465  0.0710 -0.1628
 9992W        W26066   7.099  13.352  11.388 -0.0871 -0.0344 -0.0757
 9993W        W26067   7.890   7.476   0.254 -0.1313 -0.3046  0.0165
 9994W        W26068   0.136  11.819  11.962  0.1165 -0.3185  0.0879
 9995W        W26069  11.629  10.112  14.373 -0.1327 -0.3320  0.1272
 9996W        W26070   8.762  15.018   2.011 -0.1450  0.0271 -0.1733
 9997W        W26071   5.814  14.407  15.100  0.2015 -0.3897  0.0377
 9998W        W26072   7.387   8.189  12.707  0.0959 -0.2737  0.0384
 9999W        W26073  16.083   3.637  14.455  0.0318  0.0753  0.3293
10000W        W26074  10.896   5.493   0.871  0.1837 -0.0528  0.1958
10001W        W26075   3.501   7.071   0.157 -0.1414  0.0269 -0.2050
10002W        W26076  16.064   0.113   5.878  0.1296 -0.5000  0.1058
10003W        W26077   1.647   6.723  15.370 -0.0540 -0.0727  0.2887
10004W        W26078   5.724   3.401   1.042 -0.0583  0.3202  0.3056
10005W        W26079   3.571  15.028  12.233  0.0614 -0.0316  0.1945
10006W        W26080   5.243  10.983   0.828 -0.2000 -0.1365  0.0040
10007W        W26081   6.328   8.335   1.267 -0.3680 -0.0322 -0.2310
10008W        W26082   5.524   8.497  12.733 -0.2481 -0.2455 -0.0763
10009W        W26083  11.737   6.819  12.991 -0.3716 -0.0182  0.0938
10010W        W26084   6.992   3.311  13.626 -0.2479  0.1229  0.0775
10011W        W26085   9.499   0.690  15.573 -0.2497  0.2687 -0.0734
10012W        W26086   4.041  17.942  12.813  0.2228 -0.1605 -0.2139
10013W        W26087   5.461   2.611  11.281 -0.0894  0.3906 -0.0771
10014W        W26088  13.991   2.006   0.017 -0.0277  0.2101  0.0527
10015W        W26089   6.431   4.547   4.978  0.0990  0.1392 -0.1523
10016W        W26090   2.543  18.133   0.645  0.1917 -0.0232  0.0569
10017W        W26091  12.337   3.818  13.069  0.1954 -0.0480  0.3708
10018W        W26092  16.864   8.339  15.642  0.1351  0.1463 -0.1764
10019W        W26093   1.092   8.779   1.643  0.1798  0.1494  0.0636
10020W        W26094  13.146   0.213   2.533  0.1919  0.0576 -0.0214
10021W        W26095   1.708   9.697   3.819  0.1327 -0.1535  0.2046
10022W        W26096  11.063  11.943   0.741  0.1046  0.0176 -0.0892
10023W        W26097   0.850   3.308   0.051  0.2098 -0.1444  0.1210
10024W        W26098  14.244   8.604  13.523 -0.1050 -0.0152 -0.0578
10025W        W26099   9.723   4.786   2.815 -0.2702  0.0967 -0.1558
10026W        W26100  13.031   3.445  12.889  0.2409 -0.0693 -0.1018
10027W        W26101   0.198  10.172   3.370  0.2035  0.2607  0.2526
10028W        W26102   7.217   1.610   5.608 -0.2092  0.1336  0.0295
10029W        W26103  11.352  15.259   0.255  0.0588  0.1348  0.2131
10030W        W26104   4.322   7.437  15.110  0.2364 -0.3243  0.2806
10031W        W26105  16.880   2.375  15.913  0.2057  0.1459  0.0734
10032W        W26106   1.693  14.809   1.757  0.3386 -0.2695  0.0414
10033W        W26107   2.637   3.075  12.634  0.3280 -0.0571 -0.2129
10034W        W26108  17.626   0.425  15.694 -0.1513 -0.0797  0.0610
10035W        W26109  10.384  13.867  11.578 -0.0454 -0.1023  0.0935
10036W        W26110   2.610  12.796   1.987  0.2734 -0.0555 -0.2135
10037W        W26111   5.782   1.725   3.462 -0.1840  0.0719  0.2942
10038W        W26112   9.470   6.278  11.896 -0.2580  0.0948  0.0211
10039W        W26113  10.111  10.837   3.381 -0.2394  0.2278 -0.3261
10040W        W26114  13.713   0.140   1.168  0.3395 -0.1162 -0.0478
10041W        W26115   0.078   3.533   3.507  0.0524  0.0523 -0.2651
10042W        W26116   5.394   3.210   1.975  0.0851  0.0058 -0.1314
10043W        W26117  16.121   6.884   2.346  0.0163  0.0484 -0.1958
10044W        W26118  12.685   1.784  16.252 -0.1132  0.1918 -0.2972
10045W        W26119   8.595   3.190   1.967 -0.1563  0.2670 -0.0220
10046W        W26120   7.470  11.358  14.177  0.4318 -0.1594  0.0460
10047W        W26121   5.673   6.065  14.568  0.1044  0.3104 -0.1323
10048W        W26122   2.590  17.277   5.508  0.0226  0.0267  0.0181
10049W        W26123   8.367   8.696   1.474  0.1125  0.1215  0.3727
10050W        W26124   4.617   8.808   3.830  0.1456  0.0620 -0.0535
10051W        W26125   0.510  16.805   4.507 -0.1880  0.1721 -0.1759
10052W        W26126  12.227   9.172   2.131 -0.0552 -0.0288 -0.0049
10053W        W26127   3.121  16.269   0.691  0.0170  0.0495 -0.0161
10054W        W26128  18.265  11.800   3.235 -0.1671  0.1074 -0.2136
10055W        W26129  10.682   1.531   5.468  0.1312  0.1318  0.2966
10056W        W26130   7.226   4.086   4.195  0.1474 -0.1426  0.0047
10057W        W26131  15.135   5.247   2.880  0.5123  0.0889  0.3449
10058W        W26132   8.950  11.641   3.148  0.1369 -0.1130 -0.1143
10059W        W26133  15.708  11.220   1.093  0.2778  0.0810  0.0885
10060W        W26134   1.966   9.061  11.705 -0.3672  0.1563 -0.0202
10061W        W26135  18.068   9.368   3.625 -0.0832  0.1428 -0.1014
10062W        W26136  11.290   6.030  13.455  0.1488 -0.0808  0.1190
10063W        W26137  14.965   3.228  10.433 -0.3722  0.1814  0.1818
10064W        W26138  14.261   8.645  13.044  0.1895 -0.1866 -0.0939
10065W        W26139   9.628  10.538   1.894 -0.2627  0.0086 -0.2047
10066W        W26140  11.548   4.424  12.996 -0.2445 -0.1294 -0.0265
10067W        W26141  12.659  12.074   2.827  0.2821 -0.1932 -0.2050
10068W        W26142  17.043  14.389   3.024  0.1569  0.1944  0.1384
10069W        W26143   9.538   1.819  14.390 -0.2636 -0.1446 -0.0732
10070W        W26144   5.966  18.307  15.313  0.1931 -0.1537  0.5162
10071W        W26145   0.275  18.300  13.472 -0.0588 -0.0176  0.1200
10072W        W26146   7.208  11.502  11.369  0.0610 -0.0279 -0.0540
10073W        W26147   7.846   5.766  14.681  0.4466 -0.0859  0.0635
10074W        W26148  12.744   5.795  14.535 -0.0125 -0.0201  0.1718
10075W        W26149  14.984   5.424   1.577 -0.1545  0.2486 -0.0598
10076W        W26150  12.582  14.029   5.649 -0.0502 -0.0566  0.1121
10077W        W26151   5.363  15.401   6.119  0.1171  0.1143  0.1939
10078W        W26152  13.855  17.583   5.555  0.0162  0.1250  0.2340
10079W        W26153   8.494   4.297  10.943 -0.0344 -0.0627 -0.0792
10080W        W26154  10.966   9.068   3.212  0.1634 -0.1050 -0.3036
10081W        W26155   9.405  13.648   0.254 -0.1354  0.1488 -0.0256
10082W        W26156  12.435  18.161  15.265 -0.1070  0.0241 -0.1349
10083W        W26157   2.244   0.189   0.388  0.2745  0.1384  0.1685
10084W        W26158  11.820  11.391  12.508 -0.0337 -0.1617 -0.1667
10085W        W26159  15.036   2.601   0.770  0.0442  0.1197 -0.3118
10086W        W26160  11.542  15.399   4.290  0.3749  0.1860 -0.0729
10087W        W26161   1.098   4.664  14.559 -0.3575  0.1782 -0.1067
10088W        W26162   8.062  14.518  13.979  0.1537 -0.0553  0.1549
10089W        W26163   2.604  12.500   3.497  0.2263  0.0271  0.1169
10090W        W26164   7.459   9.103  12.375 -0.0686  0.1431 -0.2310
10091W        W26165   3.992  11.218   4.983 -0.0550  0.0856 -0.2267
10092W        W26166   7.839  10.858   2.910  0.2247 -0.1351  0.4274
10093W        W26167  12.861  12.778   6.300  0.1578  0.3180 -0.1954
10094W        W26168  13.352  13.087  12.010 -0.2363  0.0163 -0.0363
10095W        W26169  18.064  13.875  15.096  0.0060  0.3411  0.3961
10096W        W26170  12.795   7.753  12.101 -0.0123 -0.2700 -0.1068
10097W        W26171   4.502   7.796  13.290  0.2039 -0.3789  0.0970
10098W        W26172  13.574  17.948  13.436 -0.3133  0.2479 -0.2854
10099W        W26173  14.379  14.648  12.850  0.0220  0.0756 -0.1068
10100W        W26174   2.446  11.967   0.250 -0.1503 -0.1649 -0.0153
10101W        W26175  13.547   2.697  11.411  0.0220 -0.4834 -0.4528
10102W        W26176   5.636   7.089   2.169  0.5067  0.0316 -0.2544
10103W        W26177   7.728  14.438   5.270  0.1451 -0.1680 -0.0597
10104W        W26178  13.716   8.359  14.348 -0.0982  0.0244  0.1260
10105W        W26179   5.509  17.062   0.682  0.0089 -0.1718  0.0995
10106W        W26180   8.687  13.842  15.601  0.0145 -0.2517 -0.1059
10107W        W26181   6.683  14.870  13.856  0.0370  0.0497 -0.0975
10108W        W26182   9.367   2.208  14.102 -0.0748  0.0610  0.0882
10109W        W26183  16.063   1.128  14.506  0.4219 -0.2249 -0.0015
10110W        W26184   7.751  12.953   1.129  0.2470 -0.0132  0.1331
10111W        W26185   0.410   7.831  11.414  0.2322 -0.1105  0.0854
10112W        W26186  13.474  14.754   3.188  0.1180 -0.0827  0.2477
10113W        W26187   6.421  14.720  11.894 -0.0927  0.1580  0.2725
10114W        W26188   8.255   6.761   5.595  0.1871 -0.1317 -0.3603
10115W        W26189   5.861  17.708   2.135 -0.0880 -0.0801  0.3549
10116W        W26190   0.782   1.943   3.277  0.1279  0.0567 -0.1353
10117W        W26191   0.017   0.642   4.727 -0.1217 -0.0371  0.0585
10118W        W26192  17.126   4.154  13.281  0.0771 -0.1625 -0.0870
10119W        W26193   0.756  13.422  14.496 -0.2093  0.0099  0.0510
10120W        W26194   5.293  13.269  11.397  0.2030  0.0018 -0.4010
10121W        W26195   2.700   8.314   0.954 -0.3849 -0.3701 -0.0505
10122W        W26196  13.789   6.297  11.636  0.0119 -0.0174 -0.4368
10123W        W26197   8.056  16.429   5.031 -0.0553 -0.2988 -0.2324
10124W        W26198  11.788  13.477  14.841  0.0895 -0.0720  0.0442
10125W        W26199  15.394   4.465  12.566  0.3614 -0.0663 -0.0254
10126W        W26200  16.851   7.333   4.665 -0.0222 -0.3930 -0.0703
10127W        W26201   8.430   7.820  13.622 -0.1051  0.1971  0.1126
10128W        W26202   5.237   3.725   1.750 -0.0056 -0.0923 -0.2583
10129W        W26203  14.589  11.852   0.365 -0.1077 -0.0943 -0.3749
10130W        W26204  12.663   8.226   5.036 -0.1771  0.1192  0.1027
10131W        W26205   0.048   6.082   6.305  0.0366 -0.1049  0.0020
10132W        W26206  14.012  11.286  14.034  0.1889 -0.0933 -0.1895
10133W        W26207   2.086  15.330  12.221 -0.1579 -0.0228 -0.3311
10134W        W26208   8.796   6.906   3.910 -0.2840  0.0026  0.2444
10135W        W26209   2.029   8.914   5.399  0.2897  0.2814 -0.3761
10136W        W26210   9.728  15.534  13.005  0.3157 -0.1502  0.0988
10137W        W26211   0.628   1.028   3.542  0.2540  0.1025 -0.0679
10138W        W26212   7.435   7.702   0.725  0.3060  0.0743  0.2254
10139W        W26213  13.908  14.382   5.470  0.1888  0.2518 -0.0909
10140W        W26214   8.039   9.785  10.316  0.1695  0.0863 -0.2196
10141W        W26215  13.915  16.582  12.187 -0.0281  0.2569 -0.4414
10142W        W26216  13.133  16.400   1.443  0.1567 -0.1580 -0.2559
10143W        W26217  11.107   3.148  14.014  0.3355 -0.1046  0.0008
10144W        W26218   4.198  15.555   1.764 -0.1454 -0.0811  0.2913
10145W        W26219   2.418   4.004  13.095 -0.3757 -0.0344  0.1411
10146W        W26220   7.839  18.130  15.921 -0.1677 -0.1175 -0.0473
10147W        W26221   6.203   9.160  11.592 -0.0630  0.3902 -0.0455
10148W        W26222  10.346  16.169  14.458  0.0297 -0.0902 -0.2573
10149W        W26223   4.529   5.329   1.406 -0.1175  0.1340 -0.2433
10150W        W26224   5.841   2.491   1.746 -0.0125  0.2290  0.1228
10151W        W26225   9.807   6.220   3.870 -0.0444 -0.1084 -0.1516
10152W        W26226   0.075  15.016   4.545  0.0486  0.0246  0.2585
10153W        W26227  10.362  14.220  12.168  0.4036 -0.1500  0.0410
10154W        W26228   1.053  13.211  14.818  0.3415  0.2994 -0.0847
10155W        W26229   0.356  16.366   4.278 -0.4017 -0.3145 -0.0001
10156W        W26230  16.178   3.796  10.792 -0.0697 -0.1852  0.1467
10157W        W26231  15.010   8.376   3.531  0.0184  0.2411  0.3004
10158W        W26232  16.436   5.006   3.606  0.1898  0.0508 -0.0520
10159W        W26233   5.437   2.426   3.914  0.1395  0.2731 -0.1087
10160W        W26234  16.512   2.667   0.982  0.1182  0.3141 -0.4715
10161W        W26235  15.343   2.518  13.557  0.1647  0.0673 -0.0701
10162W        W26236  16.097   9.518   0.622  0.0198  0.4148 -0.3518
10163W        W26237   5.681   9.925  12.928 -0.1021  0.0377 -0.0505
10164W        W26238   8.093  16.269   4.368 -0.1388 -0.0218 -0.2272
10165W        W26239   3.218  11.287  12.482  0.0897  0.2336  0.0355
10166W        W26240   3.225   7.930  11.873 -0.2575 -0.4546 -0.1908
10167W        W26241   0.062  12.024   4.390 -0.1800  0.1453  0.0198
10168W        W26242   9.443  17.964  11.835  0.2392 -0.0414  0.2434
10169W        W26243  16.166   2.546  15.100  0.3115 -0.0564 -0.1149
10170W        W26244   5.464  11.215   4.090 -0.0130  0.1966 -0.0666
10171W        W26245   2.970   3.828   5.409  0.0195  0.3600 -0.1836
10172W        W26246   6.413   5.021   1.432 -0.1525  0.2475 -0.0463
10173W        W26247  16.168   9.389  13.052 -0.1505  0.1596  0.3443
10174W        W26248  18.033  12.680  13.145  0.0045  0.1986 -0.0438
10175W        W26249   5.217   4.279   0.552  0.1951 -0.5480 -0.2273
10176W        W26250  15.874  16.964  16.021 -0.2406 -0.1119  0.0274
10177W        W26251  15.124   1.755   2.731 -0.0630 -0.1998  0.2968
10178W        W26252   0.354  13.322  12.948  0.0844  0.0982 -0.0002
10179W        W26253  11.962  15.680  14.481  0.0009 -0.1092 -0.2165
10180W        W26254   9.724  13.725   0.863 -0.2617  0.5412 -0.2429
10181W        W26255  13.601  14.358   3.480  0.1150 -0.2725  0.2162
10182W        W26256  14.766   2.345   1.758  0.1389 -0.2671 -0.0553
10183W        W26257   1.932  17.624   5.291  0.1448  0.0625 -0.0734
10184W        W26258   1.998  12.156  13.774 -0.2820 -0.0402  0.1112
10185W        W26259   7.240   2.051  15.199 -0.2064 -0.1654  0.0621
10186W        W26260   1.143   9.110  11.866 -0.0150 -0.0767  0.3210
10187W        W26261   4.820   9.998  14.081  0.1788  0.1456  0.1875
10188W        W26262   4.549   9.203  15.433 -0.0475  0.0686  0.0408
10189W        W26263   9.500  12.681   1.102  0.0311  0.0015 -0.3889
10190W        W26264   9.003  10.989  12.081 -0.0441 -0.2011 -0.1753
10191W        W26265   3.131   8.197   4.444  0.3812  0.3230 -0.4640
10192W        W26266   4.660  15.417   5.191  0.2311  0.0645  0.2483
10193W        W26267  12.540   5.837   4.956  0.1462 -0.0197 -0.0533
10194W        W26268  12.644  12.927   5.178 -0.1200 -0.0857 -0.0264
10195W        W26269   0.290  11.715  14.479  0.3751 -0.0795  0.0325
10196W        W26270   4.794   2.196   4.571 -0.5240  0.1388  0.0185
10197W        W26271  10.440  10.410  12.739 -0.2657  0.4766 -0.6012
10198W        W26272   2.921  13.868  11.510  0.2290  0.0998 -0.2921
10199W        W26273  11.196   8.598  16.166 -0.1059  0.0012  0.0066
10200W        W26274   0.257  15.526  16.171 -0.1067 -0.2987 -0.0360
10201W        W26275  17.315  16.056   2.461  0.0554  0.0628 -0.0675
10202W        W26276   1.230   6.847  16.298 -0.0513 -0.2299 -0.1388
10203W        W26277  14.254   5.568   1.119  0.1104 -0.2426  0.1618
10204W        W26278   8.481   4.119   3.523  0.3180 -0.0650 -0.1145
10205W        W26279   3.086   5.546   4.441 -0.2374 -0.2558  0.3605
10206W        W26280  10.046   4.358  15.390 -0.0428 -0.0183 -0.2215
10207W        W26281  14.902   9.739   5.054  0.1122 -0.0392 -0.1178
10208W        W26282  12.670   8.267   4.538 -0.2243 -0.1985 -0.0246
10209W        W26283   0.411  15.426  12.099 -0.0655  0.1658  0.0755
10210W        W26284   3.788  11.194   3.844  0.1531  0.0249 -0.0630
10211W        W26285  14.783   3.389  15.499  0.0020 -0.1095  0.2726
10212W        W26286   1.163  15.306   0.458  0.0694  0.2016 -0.3194
10213W        W26287  17.445  11.067   1.001 -0.0098 -0.0056  0.1093
10214W        W26288  16.246  17.686   3.864 -0.1363 -0.2390  0.2768
10215W        W26289   9.345   1.522  12.622  0.0310 -0.2280  0.0312
10216W        W26290   4.063  15.413  13.594  0.1644  0.0876 -0.1719
10217W        W26291   9.259   7.109   1.658  0.1642  0.2680  0.2883
10218W        W26292   3.460   2.635   2.141 -0.1338 -0.0747  0.1344
10219W        W26293  14.414  10.964   0.151 -0.1037 -0.0283 -0.2230
10220W        W26294   8.812   7.055  12.124  0.3845  0.1283 -0.1706
10221W        W26295  10.998  17.240   2.947 -0.1228 -0.1511  0.1184
10222W        W26296   8.017   2.124   4.143  0.0379  0.0730  0.0095
10223W        W26297   2.397   1.093   1.790  0.0920 -0.2472 -0.2065
10224W        W26298   9.281   1.294   4.455 -0.0787 -0.0353 -0.1166
10225W        W26299  11.183   9.239  14.325 -0.4180 -0.2370  0.3891
10226W        W26300   4.303   2.389   1.497 -0.1725  0.2757  0.0214
10227W        W26301   8.610   3.438   9.994  0.0599 -0.0171 -0.2020
10228W        W26302  17.798  16.769   4.943 -0.1999  0.3165  0.2678
10229W        W26303  17.794  11.378   1.366 -0.0483 -0.2790 -0.2270
10230W        W26304  13.135   4.052  14.536  0.0795  0.1317 -0.4036
10231W        W26305  13.981   8.570   1.156 -0.2798  0.0161  0.0642
10232W        W26306  17.557   8.839   2.630  0.4254 -0.2410  0.0242
10233W        W26307   1.248   9.253   5.009  0.1814  0.0177  0.1619
10234W        W26308  16.704   7.680  14.072  0.0518 -0.2033 -0.0849
10235W        W26309  13.790   2.143   3.432 -0.0545 -0.4063  0.1903
10236W        W26310  15.979  12.785   1.255  0.1562  0.0145  0.2211
10237W        W26311   9.639   7.404   5.183 -0.3949 -0.1527 -0.4212
10238W        W26312  16.519   8.598   3.342 -0.0427 -0.0644 -0.4250
10239W        W26313   8.889  12.603   3.267 -0.1630  0.1068  0.1229
10240W        W26314   3.722  15.144  12.690  0.0550 -0.3198 -0.2630
10241W        W26315  12.201  15.541   1.947  0.1293 -0.0049 -0.2611
10242W        W26316   2.529   7.835   2.287 -0.0782  0.1012 -0.0434
10243W        W26317  16.170   2.899  16.117  0.2955 -0.1338 -0.1390
10244W        W26318  11.708   3.277   2.265  0.1152 -0.1549  0.0147
10245W        W26319   2.555  18.233  14.478 -0.4140  0.1356  0.0938
10246W        W26320  17.364   5.208   3.159 -0.0508 -0.0639  0.0406
10247W        W26321   8.466  10.056  15.431  0.1839 -0.2125  0.1964
10248W        W26322  14.612  10.833   0.631  0.1119 -0.0514  0.2422
10249W        W26323  11.830   9.618  14.612 -0.0566  0.2509  0.0096
10250W        W26324   3.829  13.835   5.380  0.4110  0.2737  0.1381
10251W        W26325   8.184  11.436   1.985  0.0548 -0.0342 -0.3187
10252W        W26326   1.926  13.447  15.095 -0.0798 -0.0016  0.0099
10253W        W26327   4.325   0.462   4.862 -0.0566  0.0161 -0.1696
10254W        W26328   5.060   7.338   4.153 -0.2643  0.2736  0.0703
10255W        W26329  13.080   9.314  12.438  0.3463 -0.1182 -0.0326
10256W        W26330   7.103  12.905   5.296 -0.3224  0.2690  0.3065
10257W        W26331   5.352   1.223  13.198  0.2172 -0.0673  0.1510
10258W        W26332   7.859   4.051   3.309 -0.2613 -0.2703  0.0541
10259W        W26333   9.556  14.797  15.551 -0.0636  0.1194  0.1772
10260W        W26334  11.107   8.001   3.066  0.1584 -0.0287 -0.2672
10261W        W26335  13.542   9.672   2.487  0.2690 -0.0929 -0.0369
10262W        W26336   2.378   5.682   2.799  0.2315  0.3036 -0.0140
10263W        W26337   4.822   5.421   5.383 -0.0980 -0.1304 -0.1487
10264W        W26338   6.111   3.689   2.937  0.0609 -0.3076 -0.1920
10265W        W26339  11.649  11.097  12.896  0.1009  0.4052 -0.2031
10266W        W26340  15.163   4.348  15.247 -0.2811  0.0843  0.0385
10267W        W26341  16.257  17.832   5.566 -0.1986 -0.1463 -0.2160
10268W        W26342  11.166   1.963   3.351  0.0770 -0.0755 -0.0385
10269W        W26343  11.969  11.341   1.819  0.0798 -0.2671 -0.2797
10270W        W26344  17.249  13.981  15.616 -0.1707  0.0600 -0.0325
10271W        W26345  11.639   4.960   5.269 -0.0633 -0.1880  0.1173
10272W        W26346   3.181   3.569  15.345 -0.1389  0.3989  0.1571
10273W        W26347  14.599  10.390   2.515 -0.2275  0.0502  0.0875
10274W        W26348  14.466  17.376  14.596  0.0365  0.0967 -0.0594
10275W        W26349   6.782  13.115   1.716 -0.0365  0.1862  0.3317
10276W        W26350   6.449   1.588   4.444  0.2684 -0.0015  0.0742
10277W        W26351   8.649  11.939  15.220 -0.1477  0.4451  0.0370
10278W        W26352   9.952  10.503   3.809 -0.1649  0.1449  0.0015
10279W        W26353   1.596  14.287   1.831  0.0111  0.0506 -0.0881
10280W        W26354   1.333  10.520   0.878  0.2026 -0.0352 -0.0357
10281W        W26355   1.939  10.146   5.189  0.1793 -0.2352  0.0794
10282W        W26356  15.226   8.962  12.820 -0.1276  0.1819  0.4270
10283W        W26357   2.284  10.869   4.889  0.0936  0.4520 -0.0839
10284W        W26358   1.798  11.668  13.113  0.0538 -0.0568  0.2755
10285W        W26359  17.751  18.030   5.415 -0.3570 -0.0941 -0.0282
10286W        W26360   9.829  11.910  12.217  0.0056  0.1351 -0.1032
10287W        W26361   5.116   4.300  13.688  0.2306  0.4541 -0.1333
10288W        W26362  12.874   5.729  12.126  0.0072 -0.0497  0.0512
10289W        W26363  12.449   0.042   3.216 -0.0688 -0.0007 -0.0723
10290W        W26364   2.039  11.014  16.205  0.2883  0.2865  0.0280
10291W        W26365   2.701   2.907   3.714  0.2775 -0.0128  0.2767
10292W        W26366  14.620   0.997  13.814 -0.1307 -0.1119 -0.4703
10293W        W26367  10.409  11.114   0.552  0.2015 -0.0278  0.0078
10294W        W26368  11.950   1.254   1.815 -0.0200 -0.2307 -0.0121
10295W        W26369  10.944  10.159   1.450 -0.1872  0.0522  0.1558
10296W        W26370  11.428  13.494  15.666 -0.0802  0.0928 -0.1152
10297W        W26371  12.644  10.995   3.559 -0.2035 -0.0448  0.0127
10298W        W26372   0.199   4.661   4.076  0.2656  0.1050 -0.1818
10299W        W26373   5.297   7.528  11.637  0.0319  0.2821 -0.1099
10300W        W26374  12.256  13.298   0.662 -0.1265 -0.1549 -0.1104
10301W        W26375   2.932   2.445   2.947 -0.0718 -0.1022  0.3539
10302W        W26376  11.834  14.287   6.150 -0.1758 -0.2174 -0.0794
10303W        W26377  10.701   9.525   0.397  0.2429 -0.1803 -0.2776
10304W        W26378   1.154  17.981   2.512  0.5124  0.0175  0.0569
10305W        W26379  17.586   0.560   0.805 -0.2549  0.0268 -0.2454
10306W        W26380  17.249  10.232  12.238  0.2661 -0.0036  0.0335
10307W        W26381   7.923   9.174   3.426 -0.3546 -0.1182  0.0184
10308W        W26382   4.264   2.055   0.454  0.1232 -0.1848 -0.1697
10309W        W26383  11.214  13.772   1.165  0.2527 -0.3027  0.1119
10310W        W26384  13.218   0.926  13.078 -0.1041 -0.2200  0.0288
10311W        W26385   7.307  17.889  11.852 -0.1776 -0.4482  0.4524
10312W        W26386  14.675   3.411   3.383  0.3100  0.1404 -0.0507
10313W        W26387   3.716   9.263  10.804 -0.2633 -0.0966  0.0258
10314W        W26388  12.704  14.809   1.762 -0.1745  0.0036 -0.0004
10315W        W26389   1.078  11.850  10.581  0.0301  0.1004 -0.1723
10316W        W26390  15.304  13.657  15.257  0.1091 -0.1975  0.0847
10317W        W26391   4.346   1.757  13.713 -0.2665  0.2843 -0.0301
10318W        W26392  16.449   3.287  12.338 -0.1999  0.2459  0.1026
10319W        W26393  15.613   2.608  15.077  0.2124  0.0725 -0.0606
10320W        W26394   8.159  13.968  15.731 -0.0096  0.1746  0.2126
10321W        W26395  14.480  15.083  15.175 -0.2334 -0.4028  0.0389
10322W        W26396  11.748  12.555   5.473 -0.3542 -0.0343 -0.1368
10323W        W26397   6.364   5.429  11.988 -0.1661  0.0801  0.3319
10324W        W26398  14.654  17.426   4.986 -0.2036 -0.1526  0.1767
10325W        W26399  13.878   7.579   2.724  0.1694 -0.0426  0.2050
10326W        W26400   5.907   4.864  14.376 -0.3242 -0.3480 -0.1275
10327W        W26401   5.051  13.287   4.935 -0.0206 -0.1057  0.0708
10328W        W26402   5.910   8.220   0.778 -0.4086  0.1916 -0.1345
10329W        W26403   7.495   5.116   4.134 -0.2934 -0.0323 -0.1225
10330W        W26404  15.491   8.330  16.073  0.1834 -0.1045  0.3225
10331W        W26405   7.281   3.856  15.605  0.0951  0.1621  0.0228
10332W        W26406   1.034  16.223  15.754 -0.0991  0.1354  0.2458
10333W        W26407  16.264   9.381  11.493  0.0688  0.1008 -0.3126
10334W        W26408   4.289   9.806   1.099 -0.1796 -0.2550 -0.0219
10335W        W26409   6.189   5.790   5.043 -0.4296 -0.2809  0.0792
10336W        W26410  16.576  18.001   3.691 -0.0677  0.1110  0.0887
10337W        W26411   0.681   7.829   5.237 -0.2265 -0.0164 -0.2936
10338W        W26412   9.899  15.136   1.189  0.0173  0.1775 -0.1022
10339W        W26413   8.454   4.026   0.741 -0.0045 -0.1319 -0.1504
10340W        W26414  11.791  13.741   4.854  0.0191  0.2080  0.1091
10341W        W26415  10.568   1.020   5.017  0.2515 -0.1275 -0.2869
10342W        W26416  10.518   7.049   5.217  0.0690  0.2139  0.0626
10343W        W26417  17.450  16.285  11.457  0.2296  0.1568  0.2364
10344W        W26418   3.844   8.700   4.300  0.0453  0.3405  0.3063
10345W        W26419  15.506   0.553   3.119 -0.0245 -0.0308  0.0502
10346W        W26420   5.387   3.877   0.162 -0.5383  0.0098  0.1181
10347W        W26421   3.214  11.022   1.944 -0.2300 -0.0124 -0.1159
10348W        W26422   6.428  10.117   1.286  0.0724  0.0773  0.3178
10349W        W26423   7.373   9.533  10.929  0.3470 -0.0850  0.1761
10350W        W26424   6.262   8.245  13.368  0.0377 -0.0464  0.3478
10351W        W26425   1.635  12.027   2.272  0.1227 -0.1612  0.0668
10352W        W26426   3.775  10.330  15.448 -0.1006 -0.0664 -0.1865
10353W        W26427   1.922  12.620  15.407  0.1788  0.0628  0.1888
10354W        W26428   1.775  15.110  14.193  0.1322 -0.1121 -0.2891
10355W        W26429  18.302   5.978  12.683 -0.2846 -0.1210 -0.1051
10356W        W26430   1.429  12.461  12.183  0.1359 -0.2165  0.2795
10357W        W26431  14.215   0.659  16.085 -0.0686 -0.2220 -0.1193
10358W        W26432  12.251  12.759   2.546  0.2314  0.1251 -0.3213
10359W        W26433   0.438   3.746   5.562  0.1181 -0.0442 -0.1592
10360W        W26434  11.196   5.346  14.293  0.2333 -0.1300  0.1805
10361W        W26435  17.933   9.010   4.516 -0.1411 -0.1718  0.1408
10362W        W26436  18.278   2.901  15.556  0.0813 -0.1076  0.1386
10363W        W26437   6.293   3.587   5.773  0.3049  0.1336 -0.4053
10364W        W26438  15.609   1.008   2.826  0.0568 -0.1686 -0.1090
10365W        W26439   6.083  11.506   1.640 -0.0253 -0.0892 -0.2699
10366W        W26440   5.970   1.613  12.571  0.3071 -0.0955  0.2972
10367W        W26441  17.299  16.583   0.028  0.0094  0.1770  0.1101
10368W        W26442   0.668   3.272  12.905  0.1157 -0.0686 -0.1023
10369W        W26443   3.341   9.874  11.792 -0.0826 -0.0954 -0.3685
10370W        W26444   3.445  15.036   5.087  0.2172 -0.0037  0.2788
10371W        W26445   4.619   6.146  14.373 -0.0961  0.1642  0.2009
10372W        W26446  16.211  13.397   1.942 -0.2953  0.0324 -0.0594
10373W        W26447   2.929   4.486   4.727 -0.0304  0.3945  0.2321
10374W        W26448  10.313   4.045   4.091  0.1485  0.1785 -0.2301
10375W        W26449   8.438  11.256  14.464 -0.0858  0.0720 -0.0444
10376W        W26450  17.852  11.296   0.881  0.1027 -0.0235 -0.0868
10377W        W26451  17.497   3.581   5.737  0.0872 -0.0890 -0.2500
10378W        W26452   7.464   3.445   4.226 -0.0881 -0.0901 -0.2402
10379W        W26453  13.654  11.824   5.628 -0.0622 -0.1099  0.0436
10380W        W26454   0.292  10.786  13.907  0.0051  0.0970 -0.1675
10381W        W26455   5.191   2.622   2.868  0.3575  0.1869  0.1336
10382W        W26456  13.010   2.362  14.742  0.1568 -0.4052 -0.1100
10383W        W26457   8.484  18.222   4.645 -0.1545 -0.0947  0.0900
10384W        W26458  13.487  11.173  13.882  0.1010  0.2238  0.0226
10385W        W26459   2.313   0.732  14.502  0.0684 -0.0476 -0.0677
10386W        W26460  14.397  15.007  13.835 -0.5378  0.3185  0.0610
10387W        W26461   5.666  12.006  11.255  0.3906  0.2060 -0.1069
10388W        W26462  12.948   2.239   3.052  0.0532 -0.0732 -0.2742
10389W        W26463   6.848   1.677  14.562  0.1157 -0.1371 -0.0294
10390W        W26464   9.246  14.514  15.076 -0.0878  0.2501 -0.0796
10391W        W26465  14.831  13.864  12.999 -0.3691 -0.2358  0.2141
10392W        W26466   1.094   3.185  15.542  0.2138  0.3161  0.4023
10393W        W26467   2.227   4.339   3.027 -0.1488 -0.2287 -0.1167
10394W        W26468   3.170   4.411  16.339  0.2293 -0.0912  0.2388
10395W        W26469   8.624   7.011   3.312  0.0732 -0.4235  0.1277
10396W        W26470   0.025   9.718   5.955 -0.0681  0.0033  0.1470
10397W        W26471   4.122  10.590  12.584 -0.1743  0.2023  0.0148
10398W        W26472  11.701   8.945  12.366  0.1287 -0.2041  0.0013
10399W        W26473   2.451   2.170   1.113 -0.3016  0.0631 -0.1785
10400W        W26474   4.404   2.335   0.095  0.0298  0.1616  0.2645
10401W        W26475   0.609  12.886  14.829 -0.0370  0.3412 -0.3509
10402W        W26476   4.509   3.633  11.424 -0.3208  0.0314 -0.0592
10403W        W26477   5.347   9.643  11.646  0.0213  0.0896  0.1288
10404W        W26478   8.879   9.033   3.240  0.0850 -0.2364  0.0802
10405W        W26479   2.706   1.049  15.298 -0.1789 -0.2684  0.0430
10406W        W26480   6.314   0.986  11.514  0.3097  0.1903 -0.1667
10407W        W26481   8.218  14.806   0.856  0.3479  0.0814  0.2653
10408W        W26482   8.115   2.951   3.650  0.2369 -0.2383 -0.0369
10409W        W26483   0.265   8.603   4.287 -0.2303  0.1360 -0.1945
10410W        W26484   5.572   4.800  11.810  0.0500  0.1618 -0.0160
10411W        W26485   6.846   4.848   2.320  0.1391  0.1667 -0.1632
10412W        W26486  16.879   6.590   3.223  0.0286 -0.1548  0.0546
10413W        W26487  15.634   9.186  16.237 -0.1448  0.1711  0.0555
10414W        W26488   8.788  13.046   0.317  0.1150 -0.2720 -0.2282
10415W        W26489  13.205  13.292  12.438 -0.2450  0.1316 -0.2476
10416W        W26490   7.844  18.267   4.440 -0.2498 -0.2129 -0.0106
10417W        W26491  11.077  14.534  11.777  0.1410 -0.1896  0.2385
10418W        W26492  15.664  15.076  13.117 -0.1364 -0.2311 -0.0724
10419W        W26493  14.267   5.059  14.575 -0.1294 -0.1953  0.0051
10420W        W26494  17.778   9.780   0.618 -0.0333  0.1655 -0.1364
10421W        W26495   0.501   6.183  10.613  0.5033  0.0303  0.2872
10422W        W26496  11.773  13.546  13.153  0.0730 -0.1437 -0.1552
10423W        W26497   6.316   3.178  11.341 -0.0486  0.2877 -0.1649
10424W        W26498   6.285  15.150   1.389  0.1986 -0.0720 -0.0697
10425W        W26499  12.368   9.667   1.372 -0.1154 -0.1964  0.1186
10426W        W26500   8.508   4.556  13.800  0.0729 -0.0741  0.2183
10427W        W26501  14.690  14.502   0.586  0.0928 -0.2916  0.0782
10428W        W26502  17.568   2.702   3.578  0.0669 -0.0991  0.1669
10429W        W26503   1.420   3.800   4.725 -0.2028  0.0127 -0.0251
10430W        W26504   9.030  11.441   4.063  0.1398 -0.0601 -0.1589
10431W        W26505  17.071   8.628   2.386 -0.0576  0.2290 -0.1244
10432W        W26506  13.700   4.848   0.167  0.1956 -0.0903  0.1395
10433W        W26507   3.965  10.906  12.144 -0.0267 -0.1270 -0.2345
10434W        W26508   3.021   0.272   2.389  0.1534  0.1838  0.1064
10435W        W26509   9.894   9.266  13.491 -0.3662  0.0933 -0.1521
10436W        W26510   9.373   0.729  10.919 -0.0616  0.0845  0.4518
10437W        W26511   7.005   5.772   3.335  0.0120  0.2832 -0.4709
10438W        W26512  11.818  11.640  13.831 -0.0234 -0.0932  0.1687
10439W        W26513   5.536  10.253  12.492 -0.1089  0.0908  0.2148
10440W        W26514  17.972   4.528   4.968 -0.0157  0.1191  0.0440
10441W        W26515   1.052   5.316  15.928  0.1672 -0.1521 -0.0637
10442W        W26516   2.969  17.231  15.038 -0.1527 -0.2705 -0.0398
10443W        W26517  12.177   9.504   5.339 -0.1749 -0.0364 -0.2566
10444W        W26518   9.762   6.769   1.912 -0.3466  0.0407  0.1228
10445W        W26519  11.208  18.271   4.407  0.0278 -0.2488  0.2553
10446W        W26520  16.510   1.131   4.700  0.0292  0.0238 -0.0307
10447W        W26521  11.046  10.470   1.816  0.0414  0.0826 -0.0666
10448W        W26522  16.274  13.803  15.270 -0.2002  0.1095  0.0897
10449W        W26523  15.405   9.914   2.458  0.0563 -0.1193  0.2279
10450W        W26524   6.949  13.399   2.147 -0.1383  0.0970  0.2028
10451W        W26525  17.972   5.951  12.210  0.0719  0.0562 -0.0070
10452W        W26526   1.025   3.671  15.576 -0.3185  0.0660 -0.1786
10453W        W26527  14.228   7.350  12.828  0.4303 -0.0882 -0.1500
10454W        W26528  12.077   5.393   2.134 -0.1437 -0.0753  0.0678
10455W        W26529   5.530   7.585  14.973  0.3019  0.1865  0.1413
10456W        W26530  11.279   3.711   3.579  0.0357 -0.1725 -0.0272
10457W        W26531   4.321   3.544  12.093  0.0116  0.0141 -0.1337
10458W        W26532  10.021  10.923  11.879  0.0569  0.0251 -0.3723
10459W        W26533   6.778  13.891   2.271  0.0200  0.0689  0.2888
10460W        W26534   1.515  15.603   1.131  0.0192 -0.1320 -0.1596
10461W        W26535  18.048   4.318  13.832  0.0428 -0.1962 -0.1919
10462W        W26536  17.864  17.009   6.414 -0.0075  0.1029  0.0537
10463W        W26537  13.725   5.158  15.152  0.3465  0.1233 -0.0703
10464W        W26538  15.748  10.126  12.550 -0.1053  0.1417  0.3751
10465W        W26539  16.664   6.561   0.026 -0.0967 -0.2406 -0.0016
10466W        W26540   5.004  17.085  13.466 -0.1352 -0.1575 -0.1711
10467W        W26541  10.035   7.027   3.888 -0.0438  0.1308 -0.0260
10468W        W26542   8.467  18.234  14.665 -0.2175  0.0712 -0.0357
10469W        W26543  17.159   3.490   4.300 -0.0669 -0.0026 -0.1300
10470W        W26544   7.695  12.899   4.219  0.3535  0.3858  0.1784
10471W        W26545  17.613   8.365  11.883  0.0045  0.0429 -0.0859
10472W        W26546  16.501   2.848  13.301  0.0464  0.0419  0.0288
10473W        W26547  10.289  10.164  11.387 -0.0245  0.0847  0.0780
10474W        W26548   0.581   9.448  11.721  0.1604 -0.1524 -0.1997
10475W        W26549  16.214  16.787   4.297 -0.0381  0.0750 -0.0927
10476W        W26550   1.252   9.700  16.311  0.1933  0.5258  0.1731
10477W        W26551   6.518   8.730  14.147  0.2986 -0.1259 -0.4336
10478W        W26552   6.494  11.030   0.155  0.2370  0.1324  0.1423
10479W        W26553  17.338   3.194  13.991  0.2637  0.2299  0.1049
10480W        W26554  11.105   9.920   3.974  0.4660  0.2826  0.2733
10481W        W26555  14.881   1.796   4.031 -0.1212  0.2785 -0.0254
10482W        W26556   5.317   3.576  15.101 -0.2501  0.1904 -0.1674
10483W        W26557  16.143  11.731  14.941  0.0687  0.3421 -0.5168
10484W        W26558   6.012  16.312   4.987  0.2133 -0.1370  0.1206
10485W        W26559   8.484  14.324  15.566 -0.0880  0.0138 -0.0852
10486W        W26560   4.801  10.482   1.996  0.2541  0.0965 -0.3566
10487W        W26561   4.749   1.260  15.232 -0.1992  0.1578 -0.2980
10488W        W26562   6.925   9.516  10.175  0.2982 -0.0653  0.1187
10489W        W26563   1.189   6.211  11.392 -0.0681 -0.0987 -0.2739
10490W        W26564  13.353  17.929   0.642  0.1436 -0.3715 -0.0371
10491W        W26565   7.147   4.572  14.074 -0.0392 -0.2387  0.0322
10492W        W26566  11.305   8.890  15.694 -0.0833 -0.1118  0.0091
10493W        W26567   6.438  10.543   5.276 -0.0511  0.0085 -0.1866
10494W        W26568  12.216   5.620   3.229  0.1119  0.0861 -0.3153
10495W        W26569   9.033  16.859   4.976  0.0063 -0.0811  0.3500
10496W        W26570   7.737   5.810   0.990  0.0915 -0.1641  0.2044
10497W        W26571   5.386   3.501  11.967  0.0862  0.2019  0.0283
10498W        W26572  16.804   2.005   4.894  0.0458 -0.0222  0.1797
10499W        W26573   6.695   3.612   3.718 -0.1512  0.2690  0.2259
10500W        W26574   8.736   7.564  10.476  0.0009 -0.1172  0.1489
10501W        W26575   0.427   8.221   3.564 -0.1704 -0.2204  0.2201
10502W        W26576   7.985  15.410  14.311  0.0207  0.0932 -0.1928
10503W        W26577  13.084  15.253   3.100 -0.2622  0.2725  0.0261
10504W        W26578   9.146   8.962  15.652 -0.1749 -0.2182  0.3069
10505W        W26579  13.271   7.132  16.189 -0.0036  0.0920 -0.0093
10506W        W26580  10.618  15.213  14.221 -0.0853  0.0077 -0.4140
10507W        W26581   1.322  15.183  14.446 -0.1227  0.1264  0.0752
10508W        W26582   1.960   3.716  14.099 -0.0257 -0.0861  0.0627
10509W        W26583  18.279   5.775   1.369  0.1066 -0.0723  0.1426
10510W        W26584  10.358   0.751   0.812 -0.0618  0.0631 -0.2814
10511W        W26585  11.738  10.957   4.246 -0.1169  0.1352 -0.1735
10512W        W26586  15.714  16.804   2.411 -0.2605 -0.3308 -0.1778
10513W        W26587   4.537   6.115   2.042 -0.1508  0.0455  0.0824
10514W        W26588   9.336   4.467  10.495 -0.0730 -0.4137  0.1551
10515W        W26589  11.287  10.420  13.922  0.0513  0.2842  0.1710
10516W        W26590  17.276   4.004   3.473 -0.3739  0.0807 -0.0050
10517W        W26591  11.005  12.962  14.504  0.1522  0.1980  0.3837
10518W        W26592   4.940   5.182  13.117 -0.1813 -0.0708  0.0036
10519W        W26593  10.995   0.050  10.914 -0.5626  0.0862  0.0821
10520W        W26594  11.868   5.107  15.747  0.2550  0.0601 -0.2506
10521W        W26595  16.061  18.232   3.243  0.2929 -0.1597 -0.4057
10522W        W26596   0.193   6.817   1.537 -0.1742  0.1835 -0.2718
10523W        W26597   3.619   2.805  16.289 -0.1101  0.1615  0.1091
10524W        W26598  12.323   7.596  12.093  0.0780 -0.0753 -0.2022
10525W        W26599  11.290   7.575  10.927 -0.0756  0.1604 -0.0282
10526W        W26600   1.257   0.808  14.277 -0.0124  0.3233 -0.0890
10527W        W26601  15.874  10.426   0.374  0.0677  0.2085  0.2789
10528W        W26602  12.981  14.109  12.211 -0.0079  0.0738 -0.2208
10529W        W26603  12.804  17.043  13.599 -0.1608  0.0692  0.2038
10530W        W26604  12.057   2.999   4.807 -0.0401  0.0677  0.0724
10531W        W26605  10.300   4.215  12.195  0.1620  0.2382  0.0159
10532W        W26606   6.567   7.775  12.131  0.0844 -0.1481 -0.0375
10533W        W26607   8.026   6.493  14.494 -0.1146  0.0812  0.2005
10534W        W26608   9.502  16.502   5.708 -0.0579  0.3313 -0.2731
10535W        W26609  12.370   8.408  11.105  0.1000  0.0576 -0.0785
10536W        W26610   1.850  10.496  11.873 -0.1502 -0.0547  0.2109
10537W        W26611   4.214   9.572  10.877 -0.3123  0.1226  0.0885
10538W        W26612   3.591   4.980  15.237  0.0854 -0.0275 -0.1495
10539W        W26613   2.775   4.776   0.751 -0.1269 -0.1487 -0.0213
10540W        W26614   4.723   7.855  13.703  0.0758 -0.2085 -0.0011
10541W        W26615  13.458  10.886   5.242  0.0991 -0.0437 -0.0182
10542W        W26616  10.791   4.181   3.980 -0.0572  0.3803 -0.0414
10543W        W26617  17.996   1.859  13.914  0.1945 -0.1783 -0.0352
10544W        W26618   3.153  12.068   5.496 -0.1503 -0.0229 -0.1193
10545W        W26619  17.742   4.534   1.316 -0.4052 -0.0248 -0.0180
10546W        W26620   2.153  13.404   3.396  0.0589 -0.0448 -0.0284
10547W        W26621   8.157   3.443  14.739  0.1643 -0.2150 -0.1120
10548W        W26622  16.185   7.939  14.327 -0.0071  0.2480  0.0220
10549W        W26623   9.120   8.742   0.868  0.4396  0.2143 -0.0783
10550W        W26624  17.701   5.095   5.191  0.1395  0.1194 -0.0562
10551W        W26625   5.562   5.705   0.727 -0.1894  0.0973 -0.3805
10552W        W26626   5.545   8.318   5.901 -0.0528  0.1254 -0.0243
10553W        W26627   6.707   1.623   2.791  0.1938 -0.0265  0.1494
10554W        W26628  13.839   9.746   0.387 -0.1758 -0.2333 -0.1117
10555W        W26629  17.517  12.677   3.117 -0.0826 -0.3906  0.0119
10556W        W26630  17.908   2.754   5.626 -0.0445 -0.2967  0.0827
10557W        W26631   7.447   5.236   4.879  0.0277  0.2031  0.0206
10558W        W26632  12.532  17.248  14.027  0.1872  0.0357  0.1377
10559W        W26633   0.586   6.447  15.600 -0.0056  0.1540 -0.1786
10560W        W26634  14.045  17.493   0.946 -0.3014  0.2506  0.0051
10561W        W26635   1.302  12.533  16.074 -0.0410  0.0515  0.0845
10562W        W26636  16.749  13.010   2.425  0.2902  0.1064  0.0611
10563W        W26637  13.156  17.258  14.354 -0.0655  0.2534 -0.0923
10564W        W26638  14.055  10.004   5.412 -0.1925  0.1152 -0.2120
10565W        W26639   0.642   9.522   4.062  0.2154 -0.1142  0.3401
10566W        W26640  10.787   4.128   2.121 -0.2207 -0.0242  0.0332
10567W        W26641   6.102   9.341   2.783  0.2726 -0.0130  0.0157
10568W        W26642  12.551   5.215   5.527  0.0353  0.0936 -0.3922
10569W        W26643  13.887  18.294  15.332 -0.2676  0.1430  0.0665
10570W        W26644   4.466  12.145  14.536  0.1122 -0.1020  0.4175
10571W        W26645  13.835  12.647   1.627  0.1481 -0.1807 -0.0435
10572W        W26646   2.863   9.465  15.600 -0.2579 -0.2962  0.1031
10573W        W26647  18.241  14.026   0.037 -0.1623 -0.0219 -0.0129
10574W        W26648   8.864   9.546  12.400 -0.2351 -0.0497 -0.0089
10575W        W26649   0.916  16.635  14.146 -0.1015  0.0436  0.0691
10576W        W26650   7.499  10.769  12.737 -0.1345  0.1614  0.0162
10577W        W26651  12.010  10.822   1.617  0.2389  0.2242  0.0828
10578W        W26652  11.689  10.369  14.885 -0.1846 -0.0184 -0.0567
10579W        W26653   4.653  17.928  13.726  0.3145  0.1790 -0.0587
10580W        W26654   6.317   2.862  14.923 -0.1589 -0.0068  0.2458
10581W        W26655   7.330  10.685  11.557 -0.0641  0.1731  0.1419
10582W        W26656  13.442  11.736   3.246  0.0962  0.0246 -0.0279
10583W        W26657  11.108   6.963   2.117 -0.1829  0.2464  0.2158
10584W        W26658  14.798  15.899  13.035  0.1177  0.2307  0.0253
10585W        W26659  15.273  16.529   5.052  0.0376  0.1334  0.0125
10586W        W26660  12.238   0.677   0.410  0.0124  0.1188 -0.3465
10587W        W26661  12.883  11.629   1.095 -0.1459  0.0083 -0.3124
10588W        W26662   2.283   8.975  11.307 -0.2295 -0.1046 -0.0715
10589W        W26663  11.761   7.008  12.496 -0.0377  0.1427 -0.1029
10590W        W26664   5.883  18.126   1.637  0.1462  0.0386 -0.0919
10591W        W26665   6.108  18.169   2.117 -0.2500 -0.1373  0.1768
10592W        W26666  11.809   2.023  14.087  0.1880  0.2932  0.2029
10593W        W26667  10.034   1.347   4.230 -0.0112 -0.0691  0.0596
10594W        W26668   9.805  14.241   4.288  0.2795 -0.0396 -0.1926
10595W        W26669   0.627   3.912   4.174  0.2832  0.2462  0.0062
10596W        W26670   8.982  18.134  14.508  0.3770 -0.1618  0.1045
10597W        W26671   1.285   1.145   0.764  0.0582  0.2788  0.1201
10598W        W26672   6.198  11.720   4.564 -0.1041 -0.0637 -0.1796
10599W        W26673   0.020   2.322   5.039  0.0373 -0.1641  0.0587
10600W        W26674  17.361   4.893   2.122  0.0166  0.4174 -0.1356
10601W        W26675  17.748   3.428  12.423  0.0775  0.2261  0.0477
10602W        W26676  12.447   8.732  14.010 -0.0370  0.2159 -0.0376
10603W        W26677  11.502  12.803   2.047 -0.3114  0.6040 -0.2855
10604W        W26678   7.245   4.979   1.901  0.4558  0.1471  0.0397
10605W        W26679   7.729   0.323   3.338 -0.1343 -0.0243  0.1292
10606W        W26680   7.481   8.135   5.369 -0.0815 -0.0788  0.0786
10607W        W26681  12.061   0.766   3.191  0.2403  0.2512  0.1536
10608W        W26682   4.095   4.697   4.966  0.0651 -0.0341  0.2953
10609W        W26683  18.059  10.273   3.571 -0.1682  0.0767 -0.2718
10610W        W26684   3.138   9.274  13.015 -0.2284  0.1883 -0.0642
10611W        W26685   8.746   1.156   2.650  0.2807 -0.1557  0.1585
10612W        W26686  10.114   4.512  15.984 -0.0840  0.3749  0.6759
10613W        W26687  12.141   2.193   1.034  0.1906  0.0461 -0.2075
10614W        W26688   5.155  13.560   1.568  0.1948 -0.2258  0.2892
10615W        W26689   8.701  15.854   2.621 -0.2212 -0.2247 -0.1248
10616W        W26690   4.004  10.070  14.446 -0.2369  0.0670  0.2265
10617W        W26691   9.565   3.442  12.648  0.0746 -0.0971 -0.1972
10618W        W26692   7.856   9.380   2.060 -0.4098 -0.0011 -0.0586
10619W        W26693   5.978   0.184  14.366  0.1121  0.3706  0.0649
10620W        W26694  11.778  14.558   5.059  0.3702 -0.2601  0.2357
10621W        W26695   3.670   6.814   4.591  0.0248 -0.1174  0.2299
10622W        W26696   1.485   6.416   1.567 -0.0240 -0.2877 -0.2025
10623W        W26697   6.451   0.217  15.171 -0.4485 -0.0356  0.0629
10624W        W26698   2.130   3.002   1.548 -0.1777 -0.0478  0.3602
10625W        W26699   6.868  11.365   2.909 -0.0034  0.4873  0.1609
10626W        W26700   8.637   8.830   6.045 -0.0343 -0.0608  0.0114
10627W        W26701  10.227   0.437   3.914  0.0426  0.1270 -0.0458
10628W        W26702  17.194  16.357   5.683 -0.3647  0.0207 -0.0983
10629W        W26703  16.668   7.955  13.534  0.1092 -0.1083  0.2181
10630W        W26704   9.781  14.581   1.929 -0.1983 -0.0066  0.0787
10631W        W26705   7.179  13.958  11.980  0.1476 -0.3835 -0.0877
10632W        W26706   9.419   2.589   2.163  0.0487 -0.1606 -0.1382
10633W        W26707  17.704  15.304   3.000  0.0819  0.0381  0.0105
10634W        W26708  14.312  15.670  16.082  0.1805  0.2725 -0.2056
10635W        W26709   7.223   1.774   2.943 -0.0308 -0.1164 -0.2812
10636W        W26710   5.465  11.085   1.330  0.2387 -0.1095  0.0548
10637W        W26711   1.136   0.053  10.741 -0.2080 -0.2498 -0.1321
10638W        W26712   3.570  17.722  12.306  0.1252  0.1186 -0.1450
10639W        W26713  13.153   0.514  14.966 -0.1960 -0.0426 -0.1793
10640W        W26714   1.197  14.921  14.967  0.0557 -0.3900  0.1563
10641W        W26715  15.212   0.672  12.289  0.1676  0.0820 -0.0832
10642W        W26716   5.702   1.881  13.008  0.0982  0.1228 -0.2669
10643W        W26717  15.406   2.509   0.394 -0.0052  0.2163 -0.2185
10644W        W26718  17.532  18.218   1.695 -0.1734  0.3783 -0.0324
10645W        W26719  15.350  17.247  13.958 -0.2605  0.3775 -0.1593
10646W        W26720  17.456  16.877   4.132  0.1712 -0.2337  0.0407
10647W        W26721  14.379  14.314   5.217  0.1438 -0.0972 -0.1205
10648W        W26722  17.196  10.355   0.059 -0.2480 -0.1697 -0.0889
10649W        W26723  13.606   9.305  12.188  0.1895  0.2662 -0.0608
10650W        W26724   2.081   5.764   3.229  0.1409 -0.1682 -0.0230
10651W        W26725   6.533   0.006   1.062  0.1889  0.3831  0.2399
10652W        W26726  14.463   0.953  14.309 -0.1436 -0.1874 -0.1773
10653W        W26727  12.482   5.003   4.451 -0.0636  0.0970 -0.3200
10654W        W26728   0.542   3.647  15.517  0.0157  0.1300  0.1008
10655W        W26729  13.378  17.677   2.348  0.0074 -0.0769 -0.2040
10656W        W26730   8.397   1.776   5.244 -0.0617  0.2299 -0.0142
10657W        W26731  13.487   6.448   2.608  0.0401  0.0623  0.1218
10658W        W26732  16.484  15.506  14.260  0.1707  0.1115  0.1292
10659W        W26733   0.853  16.696   5.854 -0.2256  0.1100 -0.1920
10660W        W26734  10.235   6.321  16.223 -0.1489 -0.1992 -0.0157
10661W        W26735   8.252   9.364   5.333  0.5937 -0.0284 -0.4396
10662W        W26736  17.388   6.789   0.419 -0.1786  0.0460  0.0255
10663W        W26737  12.303   9.663  14.479  0.3087 -0.1188  0.0209
10664W        W26738  11.504  14.195  16.244  0.0387 -0.0590  0.2165
10665W        W26739   3.214   1.764   0.853  0.3281 -0.1326 -0.0186
10666W        W26740  14.432   1.638   3.812  0.0330 -0.4747 -0.1115
10667W        W26741  14.834  15.656   3.299 -0.0083  0.0086  0.3034
10668W        W26742   4.491  12.588  15.015 -0.1557 -0.0749 -0.1417
10669W        W26743  12.345   1.434  14.943  0.0547  0.1278 -0.3809
10670W        W26744   0.798   8.411  12.584  0.0251  0.0431 -0.2565
10671W        W26745   6.487  11.921   0.060  0.0463  0.0823  0.1226
10672W        W26746   8.914   6.889  11.121  0.0713  0.0315 -0.0355
10673W        W26747  16.606   6.895  11.985 -0.2622  0.0357 -0.2742
10674W        W26748  18.107  14.327  11.640 -0.0195 -0.1271 -0.1648
10675W        W26749   7.017  17.432   0.816 -0.0985 -0.2878 -0.0337
10676W        W26750  12.629   2.420  13.212  0.1785 -0.1713 -0.3101
10677W        W26751   3.738  10.183   3.326 -0.0885 -0.2420  0.3280
10678W        W26752   6.794  15.624  15.825  0.1941 -0.2993  0.4960
10679W        W26753  11.330   0.858  11.086 -0.1776  0.3389 -0.2366
10680W        W26754  12.679   0.365  12.449 -0.0352  0.2793 -0.0259
10681W        W26755   7.638   5.677   4.858 -0.0097  0.0436 -0.0786
10682W        W26756   2.438   6.094  12.225  0.3450  0.5237 -0.1263
10683W        W26757  18.143  10.789   0.277  0.2526 -0.1654  0.3021
10684W        W26758  16.982  16.557   4.042  0.0862 -0.0153  0.1680
10685W        W26759  16.023  13.837   0.480 -0.1177 -0.0182 -0.0286
10686W        W26760   1.567  13.258  13.450  0.0005  0.1583 -0.2734
10687W        W26761  13.045   4.960   1.161  0.2629  0.0323  0.2781
10688W        W26762  13.459   3.098   0.274 -0.1388 -0.0577  0.0031
10689W        W26763   6.978  10.129  15.761  0.2667  0.0957 -0.1062
10690W        W26764  15.744   5.520  13.377 -0.1222  0.0876 -0.0319
10691W        W26765   9.233   8.300  13.872 -0.4231 -0.2243  0.1310
10692W        W26766  16.585   5.416   2.246  0.3392  0.2192 -0.0138
10693W        W26767   2.546   4.118   3.455 -0.3832  0.0195  0.3115
10694W        W26768   0.980   6.522  12.675  0.1751 -0.2584 -0.2686
10695W        W26769  10.747  17.033  14.291  0.1254  0.1581 -0.0512
10696W        W26770  17.673   0.708   3.239  0.0188  0.2097  0.3107
10697W        W26771   6.567   0.254   2.815  0.2415 -0.0465  0.1532
10698W        W26772  15.655   5.944   0.514 -0.1203  0.0752 -0.2649
10699W        W26773  13.125   2.103  12.641  0.0200 -0.1436  0.1205
10700W        W26774   1.223  10.460  11.393  0.0275  0.1594 -0.1937
10701W        W26775   0.744  16.708  11.917  0.0339 -0.2804 -0.2566
10702W        W26776  11.358   3.737   2.913  0.0630 -0.4155  0.0980
10703W        W26777  14.696   4.745  15.378  0.0844  0.0691 -0.0337
10704W        W26778   8.538   1.191   3.935 -0.1014  0.4033  0.0667
10705W        W26779   4.455  12.629  16.107 -0.1215  0.1535  0.2223
10706W        W26780   6.509  16.679   4.179  0.0399  0.2279  0.0030
10707W        W26781  14.320  13.186   5.242 -0.1558 -0.2482 -0.0030
10708W        W26782   8.939  18.216  15.537 -0.0506 -0.1229  0.3286
10709W        W26783   1.755  17.021  15.887 -0.2472  0.0382 -0.2553
10710W        W26784  17.123   8.159  13.353  0.1482 -0.0532  0.2596
10711W        W26785  13.068  11.203   2.517  0.1650  0.2147 -0.0128
10712W        W26786   9.932  14.208   0.918  0.0600 -0.1791 -0.2034
10713W        W26787  18.261  17.183   0.886  0.2881 -0.2219  0.1762
10714W        W26788  14.074   0.313   4.605  0.0675  0.2352  0.0643
10715W        W26789   9.378   5.091   3.822  0.3702 -0.0346 -0.0316
10716W        W26790  17.769  15.815   5.156  0.1440  0.3919 -0.4761
10717W        W26791  18.158   4.123  16.061 -0.0717 -0.0770  0.2571
10718W        W26792   4.889  11.018   1.269 -0.2977 -0.0454 -0.2963
10719W        W26793   1.350  17.458   0.807  0.0760 -0.1785 -0.1895
10720W        W26794  12.066  11.846  12.293 -0.0431 -0.1050  0.0774
10721W        W26795  15.108   9.754   0.043 -0.4561 -0.0891  0.0311
10722W        W26796   5.592  10.187   1.255  0.4380 -0.4228 -0.0191
10723W        W26797  17.190   1.242   0.640  0.1752 -0.1298 -0.0651
10724W        W26798   4.970   2.108   0.070  0.0362 -0.2823 -0.0335
10725W        W26799   1.206   6.584  15.251 -0.2312 -0.3629  0.0716
10726W        W26800   0.818  14.817   4.426  0.1165  0.1310 -0.7256
10727W        W26801  11.686  11.463   3.467 -0.3054  0.2099  0.0481
10728W        W26802  18.267  11.884   1.258  0.1210 -0.1934  0.2102
10729W        W26803  16.400  11.312   2.905  0.2025 -0.2054  0.0693
10730W        W26804   9.579  10.076   4.989 -0.3471 -0.1468 -0.1862
10731W        W26805   5.554   6.326  11.418 -0.4007  0.2461 -0.2957
10732W        W26806  12.588  17.195   4.101 -0.1094  0.2040 -0.2978
10733W        W26807  12.994  13.817  13.406 -0.0464 -0.0071 -0.0089
10734W        W26808   3.793   2.295   5.278  0.0019 -0.3170  0.1513
10735W        W26809   8.321   7.094  11.827 -0.2279  0.2973  0.3681
10736W        W26810  17.645   4.933   1.687  0.0525  0.0236  0.1786
10737W        W26811  18.158  12.727   1.513  0.1543 -0.1767 -0.0349
10738W        W26812  18.216  15.379   4.967  0.0522  0.0090 -0.3181
10739W        W26813   2.487   7.444   2.582  0.0183  0.0942 -0.1348
10740W        W26814  10.758   5.841  13.144 -0.1763 -0.1128 -0.1938
10741W        W26815  17.730  14.051   5.802 -0.3645  0.1777  0.0208
10742W        W26816  13.080  16.531   0.153 -0.2684  0.1587  0.4399
10743W        W26817   3.327   2.965   0.459  0.1201  0.1224  0.2215
10744W        W26818   0.147  13.525  14.307  0.3671  0.2410 -0.2280
10745W        W26819   4.893   3.796  14.906 -0.3462  0.1751 -0.0862
10746W        W26820   5.970   8.484  12.989 -0.0028 -0.0157 -0.2833
10747W        W26821  17.736   9.464   4.530 -0.1797  0.1149 -0.2890
10748W        W26822   8.290   3.615   1.217 -0.2177  0.0096  0.0662
10749W        W26823  12.365   8.900   3.052  0.0082 -0.1895 -0.1650
10750W        W26824   1.899   2.857   2.995 -0.2972  0.0354  0.1667
10751W        W26825  16.955  13.726   3.767 -0.3798  0.2534  0.0696
10752W        W26826  15.623   4.001   5.577  0.0299 -0.1203 -0.0056
10753W        W26827  11.415  11.420  13.633 -0.1481  0.2377  0.0482
10754W        W26828  15.791   0.191  16.079  0.3963  0.0492 -0.1043
10755W        W26829  10.923   1.800   2.516  0.1738  0.2755  0.2051
10756W        W26830   5.734   7.614   0.545 -0.0528 -0.1548 -0.0326
10757W        W26831  16.461   8.717   2.216 -0.1595  0.0506  0.0440
10758W        W26832   7.147  14.647  15.568 -0.1932 -0.2723 -0.3110
10759W        W26833  10.286   1.653   5.185 -0.1310  0.0864 -0.2699
10760W        W26834   1.833   0.710  11.040  0.0009 -0.1283  0.0110
10761W        W26835   4.752   3.468  12.324 -0.3914  0.0547  0.0391
10762W        W26836   6.250  12.742   1.555 -0.0502 -0.0030  0.3479
10763W        W26837  17.035   0.625   2.169  0.1604  0.0752 -0.0676
10764W        W26838   5.268  14.354  11.061 -0.3616 -0.1868  0.2823
10765W        W26839   2.624  14.319   3.459  0.1446 -0.2464  0.0206
10766W        W26840   3.139   9.927  13.636 -0.0758  0.0149  0.0340
10767W        W26841  13.658   9.283   4.895 -0.3618 -0.0929  0.0044
10768W        W26842  12.865   4.978  15.459  0.2904 -0.3139  0.1684
10769W        W26843  10.735  11.858   5.755 -0.2688 -0.4167 -0.1981
10770W        W26844  15.744  16.723   1.842  0.0016  0.2490  0.1834
10771W        W26845   8.515   8.360  13.092  0.1542 -0.1682 -0.5644
10772W        W26846  15.880  17.422   4.025  0.3224  0.2234 -0.0561
10773W        W26847   0.640  15.856   2.189  0.1667  0.2720 -0.1492
10774W        W26848  10.596  17.876  15.208 -0.0549 -0.0747 -0.4504
10775W        W26849  10.491   7.331  12.453  0.0025  0.3125 -0.2278
10776W        W26850  14.620   2.783   3.242 -0.2063  0.0045 -0.1542
10777W        W26851   2.144   9.448   3.820 -0.0245 -0.4426  0.3606
10778W        W26852   5.284  15.425  11.716 -0.2997 -0.0637 -0.0278
10779W        W26853  12.628   1.651   0.392 -0.1337 -0.0171  0.0350
10780W        W26854   8.294  10.935   1.065 -0.2034 -0.0654  0.3134
10781W        W26855  10.705   0.368   2.952 -0.2087 -0.0438  0.2467
10782W        W26856  16.528   1.773  14.245 -0.3902  0.0869  0.2249
10783W        W26857  13.907   1.391   0.478 -0.0626  0.2363  0.0664
10784W        W26858  17.529  12.553   0.482 -0.1983  0.3979  0.0147
10785W        W26859   4.212   3.885   4.016  0.2748 -0.1009 -0.0636
10786W        W26860  10.881   6.802  15.995 -0.0856 -0.1277  0.0924
10787W        W26861   2.531  11.786  13.710  0.1731 -0.1796 -0.0204
10788W        W26862  12.043   0.374  14.614  0.1199 -0.2087  0.2520
10789W        W26863  12.618   9.724   5.490  0.0971  0.2295 -0.0531
10790W        W26864   0.029  13.885  13.678  0.0689 -0.2329  0.2944
10791W        W26865   0.849  11.400   4.356  0.1783  0.0584  0.2232
10792W        W26866  12.228   4.366   3.787 -0.1554  0.0446  0.2412
10793W        W26867   4.689   3.405  13.938 -0.1103 -0.2475  0.0856
10794W        W26868  17.976   4.270   0.198 -0.0067  0.3444 -0.0729
10795W        W26869   0.185  13.766  15.340  0.0519  0.0378  0.0502
10796W        W26870   3.649   0.339   0.828  0.0967  0.0877  0.0152
10797W        W26871   4.715  10.264   0.621 -0.0535 -0.1386 -0.1562
10798W        W26872  15.856  15.459  13.664  0.1733 -0.1510  0.0005
10799W        W26873   8.940   7.501   1.902  0.0931  0.1720  0.1417
10800W        W26874  16.745   8.139  11.704 -0.4134 -0.0614  0.1024
10801W        W26875   8.248   3.618   4.793 -0.1071 -0.0654  0.1104
10802W        W26876   9.922   9.562  11.967 -0.4214  0.1061  0.0587
10803W        W26877  12.518  14.838  12.093 -0.2077  0.0546 -0.1154
10804W        W26878   2.386   7.711  14.009 -0.1977 -0.0502  0.3672
10805W        W26879   7.773  13.541   5.373 -0.1434 -0.0182  0.1612
10806W        W26880  14.867   1.139  11.626 -0.2280 -0.2381 -0.2730
10807W        W26881   0.597  17.685   5.567  0.1958  0.0912 -0.0215
10808W        W26882   5.448   4.366   3.249  0.3073 -0.0172  0.4270
10809W        W26883   9.071  13.712   5.164 -0.3307  0.1077  0.0552
10810W        W26884   9.893   1.566   2.290  0.1537  0.0186 -0.2389
10811W        W26885  11.652  15.266  15.258  0.3224 -0.0373  0.3132
10812W        W26886  14.202   3.529  13.491 -0.2526 -0.0794  0.1302
10813W        W26887  15.940   2.701  12.855 -0.1767  0.0088 -0.0844
10814W        W26888  12.378  17.272   0.467  0.1376 -0.1192  0.0629
10815W        W26889   0.603  17.381   2.549  0.1181  0.0626  0.1341
10816W        W26890   4.206  16.923   2.366 -0.1543  0.2778 -0.2178
10817W        W26891  12.221  14.736   0.585 -0.0856 -0.1124 -0.0151
10818W        W26892  17.793   5.128   1.130  0.0943  0.0329  0.0953
10819W        W26893   8.216   1.957  11.971  0.2415 -0.2870 -0.1656
10820W        W26894   1.001  16.245  15.102  0.0809  0.2047 -0.0076
10821W        W26895  15.491   2.117  14.939  0.1770  0.2537  0.1868
10822W        W26896   6.372   8.109   5.516  0.4426  0.0026 -0.1652
10823W        W26897  16.399   1.243   3.310  0.1730  0.1176 -0.4298
10824W        W26898   8.402   2.113   4.893 -0.2155  0.0089  0.0478
10825W        W26899   1.672   4.763  13.252 -0.2066 -0.1634  0.1712
10826W        W26900   9.425   9.416   1.649 -0.4833 -0.1193 -0.2059
10827W        W26901  17.575  17.770   1.339 -0.2211  0.0560 -0.1931
10828W        W26902   9.096  17.621  15.017  0.0258 -0.1100 -0.1744
10829W        W26903  11.662   0.245  15.827 -0.1117 -0.2057 -0.3911
10830W        W26904   1.368  15.867  15.951  0.1293 -0.1892  0.3501
10831W        W26905  18.147   1.797  13.387 -0.1827 -0.0630 -0.1841
10832W        W26906   5.091   9.125  12.458 -0.2444  0.1443 -0.1546
10833W        W26907   2.246  10.602   2.602 -0.3093  0.2725  0.1204
10834W        W26908   1.394   1.609   1.504  0.1580 -0.3778  0.3221
10835W        W26909   1.544  11.488  14.481 -0.0526  0.3237  0.0012
10836W        W26910  10.949   1.168   3.738 -0.4103 -0.1300  0.5493
10837W        W26911   8.869   4.656  12.781 -0.0268  0.1923  0.0596
10838W        W26912  10.147   5.190   3.596 -0.2322  0.0682  0.0281
10839W        W26913  10.482  14.972   2.314 -0.2646 -0.1209 -0.1196
10840W        W26914   5.683   3.507  11.573 -0.1551  0.4833  0.0055
10841W        W26915   0.096  18.302  11.575  0.0802  0.0029  0.1467
10842W        W26916  14.517  14.267  14.842 -0.3944 -0.0668 -0.4386
10843W        W26917   7.498  18.324  12.085  0.1478 -0.0657  0.0866
10844W        W26918  16.581  14.661   0.845 -0.1861  0.0200 -0.0826
10845W        W26919  12.996  12.253   0.607  0.3259  0.0268 -0.1475
10846W        W26920   0.513   0.696  13.909 -0.1725 -0.1696 -0.0314
10847W        W26921  17.200  16.067  13.757 -0.3272  0.1091  0.1596
10848W        W26922  14.130  12.312   1.361  0.0496 -0.1304  0.0443
10849W        W26923   6.740   2.345  14.381 -0.2071 -0.4673 -0.0168
10850W        W26924   9.146  15.817   2.307 -0.1623  0.0245  0.0897
10851W        W26925   6.100  14.887   0.783  0.1212  0.1775  0.3324
10852W        W26926   6.013   1.514  15.180  0.0940 -0.2030 -0.0549
10853W        W26927   1.235   0.603   2.072 -0.0321 -0.1727 -0.3654
10854W        W26928  10.886   8.935   3.734  0.1116 -0.1542 -0.0264
10855W        W26929  12.669  12.074   0.989 -0.4517 -0.2686 -0.0305
10856W        W26930   8.592   7.998   4.109  0.1291  0.1522 -0.0644
10857W        W26931   6.435  12.862   0.152 -0.3549  0.0046  0.0439
10858W        W26932  13.428  14.011   3.061  0.3751 -0.0778  0.1578
10859W        W26933   2.781   9.233  11.964 -0.0506 -0.1692 -0.0323
10860W        W26934   2.035  16.295  11.636 -0.0111 -0.1321  0.2218
10861W        W26935  12.391   3.924  11.327  0.0879  0.3057  0.0936
10862W        W26936   0.791   0.894   2.536  0.3565  0.1309 -0.1587
10863W        W26937   5.709   6.445  12.790 -0.1258  0.0480 -0.1328
10864W        W26938   7.380  11.232  11.737  0.0847  0.2485 -0.1278
10865W        W26939   0.633  13.636  12.565  0.0184  0.1812  0.2052
10866W        W26940  13.780   8.818   4.245 -0.2339  0.1017  0.2710
10867W        W26941   8.895   3.616   9.576  0.3844 -0.2484  0.0287
10868W        W26942   3.639  14.738  11.390 -0.0611  0.3671  0.0575
10869W        W26943   0.304  17.907  15.869 -0.3012 -0.1040  0.0653
10870W        W26944   5.827   7.980  15.093 -0.1518  0.0180 -0.0956
10871W        W26945  11.509  11.020  16.266 -0.0517  0.1285 -0.0449
10872W        W26946   9.953   9.831   4.569 -0.2750  0.2266  0.0029
10873W        W26947   4.331  16.867   5.453  0.0735  0.0785 -0.2308
10874W        W26948  17.149  10.102  12.689  0.0683  0.0064 -0.1217
10875W        W26949   8.637  15.699  14.941  0.0329 -0.1067  0.2449
10876W        W26950   7.749  16.185  14.014  0.0184  0.0999  0.3324
10877W        W26951  16.896   4.220   0.197 -0.3192  0.3141 -0.0503
10878W        W26952   9.812   3.551  10.515 -0.5579  0.0840  0.1158
10879W        W26953   4.727  11.902   0.504 -0.1736  0.0268  0.1903
10880W        W26954  15.584   9.903  14.075 -0.1450 -0.2762  0.0281
10881W        W26955   9.195  14.853   4.830 -0.0534 -0.3365  0.0576
10882W        W26956   4.516  11.542   2.089 -0.3641  0.0059  0.0539
10883W        W26957  15.581   2.606   2.506  0.1099  0.0308 -0.0042
10884W        W26958  11.150  10.281   5.812  0.0188 -0.2986  0.0285
10885W        W26959  10.930   7.852   2.613  0.2872 -0.0553  0.0497
10886W        W26960  14.050   4.342  11.581  0.0264 -0.1610  0.0148
10887W        W26961   9.848   5.752  10.982 -0.4445  0.1915 -0.4442
10888W        W26962  10.639   8.794  14.943  0.2550  0.0784 -0.1431
10889W        W26963  12.355  10.512   1.488 -0.1072 -0.1247  0.0837
10890W        W26964  17.758  12.306  12.478 -0.2573 -0.0699  0.1582
10891W        W26965  16.471  16.755   5.468  0.1138 -0.0395  0.2809
10892W        W26966   7.456  17.399  12.183  0.1071 -0.1614 -0.1758
10893W        W26967   9.827   9.262  11.117 -0.0809 -0.1860  0.0438
10894W        W26968   6.837   9.808   2.689 -0.3155 -0.0748  0.4269
10895W        W26969  11.176   1.038  16.390  0.2491  0.0738 -0.0509
10896W        W26970   4.391   5.110   3.856  0.1297  0.1378  0.3261
10897W        W26971   7.690  12.504  12.397 -0.1394 -0.0211  0.2746
10898W        W26972   9.363  16.183   3.321  0.1878 -0.1926 -0.2030
10899W        W26973  17.064  12.602  13.646 -0.2343 -0.3570  0.0977
10900W        W26974  16.812   7.064  11.538  0.1968 -0.2892 -0.3780
10901W        W26975  16.460  13.451  12.685  0.2369 -0.1545  0.1474
10902W        W26976  10.792   8.570  13.457 -0.0483  0.1684 -0.1575
10903W        W26977   1.843   5.887   2.334 -0.1849 -0.2464 -0.0692
10904W        W26978   9.176   5.186  12.577 -0.1035 -0.0249  0.1267
10905W        W26979  15.918  17.186   5.064  0.0852 -0.3585 -0.0127
10906W        W26980  16.100   1.750  15.689 -0.0954  0.2093  0.0562
10907W        W26981  15.758  13.540  15.476  0.2651 -0.0491 -0.1284
10908W        W26982   5.145  10.001   4.950  0.2525  0.1954 -0.0680
10909W        W26983  18.223  17.997   0.327  0.0550 -0.4526 -0.0825
10910W        W26984  14.726   5.712   0.620 -0.0442 -0.1253  0.0152
10911W        W26985   3.636   5.333   5.090 -0.3567 -0.3894  0.1005
10912W        W26986  10.840   1.838  14.524  0.1237  0.0685  0.0287
10913W        W26987   1.058  10.881   3.979 -0.0926  0.3624 -0.2352
10914W        W26988  17.617  14.324   4.158  0.2124 -0.1744 -0.0258
10915W        W26989   5.642   0.278   6.279  0.1068  0.3522 -0.1849
10916W        W26990  16.777  12.441  14.822 -0.3060 -0.1319  0.0189
10917W        W26991   7.038  14.579   0.970  0.0311 -0.0128  0.3539
10918W        W26992   2.016   4.750  15.476 -0.2333 -0.0322 -0.2614
10919W        W26993   3.146  15.623   1.884  0.0284  0.1818  0.0849
10920W        W26994  11.886   4.085   2.714  0.5045  0.2801 -0.2391
10921W        W26995  14.168  10.289  11.394  0.0867 -0.0867 -0.1469
10922W        W26996   5.952  10.643  14.299  0.2221 -0.1118 -0.3427
10923W        W26997  11.484   0.514   4.853 -0.1325  0.2850  0.1975
10924W        W26998  13.796   4.819   2.637 -0.3185 -0.2773 -0.0116
10925W        W26999   1.089  14.830  13.320 -0.2876  0.0030  0.3081
10926W        W27000   6.274  17.046  11.165 -0.0494  0.3190  0.3624
10927W        W27001   8.430  11.179   5.488 -0.0138  0.2650 -0.0664
10928W        W27002  15.267   7.373   3.249 -0.5010 -0.1120  0.1639
10929W        W27003  16.080  15.147   3.369 -0.0787 -0.4786  0.2134
10930W        W27004   7.890  13.117   2.269  0.3005  0.0360  0.0927
10931W        W27005  17.027  17.445   0.563  0.1470  0.2787 -0.0839
10932W        W27006   6.457   4.847  14.662 -0.4352  0.3618  0.0114
10933W        W27007  14.173  14.736   3.355  0.0334 -0.1170 -0.1282
10934W        W27008   0.434  10.599   5.603  0.0287  0.0090 -0.1341
10935W        W27009  15.534   7.748  11.798 -0.4465 -0.2011 -0.0339
10936W        W27010   3.451   4.034  14.564  0.0479 -0.0475 -0.2660
10937W        W27011   0.743   7.429  16.009 -0.2757  0.1291  0.0504
10938W        W27012  13.757  10.467  15.448  0.0123  0.1950 -0.1038
10939W        W27013   4.958  12.342   3.509 -0.0258  0.1199 -0.1474
10940W        W27014   1.123   0.968   5.320  0.0909  0.1434 -0.1362
10941W        W27015  14.056  16.893  16.274 -0.0018  0.1358  0.2150
10942W        W27016   7.040   3.835   3.010  0.1410  0.1585 -0.1752
10943W        W27017  12.394   6.274  13.921  0.0199  0.1525  0.2280
10944W        W27018  17.519  15.944   5.604 -0.0536 -0.0142 -0.2381
10945W        W27019  17.531  12.742  13.410  0.0014 -0.0241  0.1727
10946W        W27020  12.965  16.156  13.182 -0.2002 -0.0087 -0.1212
10947W        W27021   8.373  14.720  14.719  0.2233 -0.2849 -0.0329
10948W        W27022  11.512   4.825  15.947  0.2939  0.1206  0.0349
10949W        W27023  13.197  12.520   4.107  0.0710 -0.1264 -0.0804
10950W        W27024  17.844   3.480  12.896  0.0038  0.1197 -0.0496
10951W        W27025   9.959   9.343   2.422  0.2561 -0.2757  0.2030
10952W        W27026   0.157  17.334  14.025  0.4785 -0.0145  0.1439
10953W        W27027   7.696  13.695   2.643  0.1377 -0.2377  0.0026
10954W        W27028   5.166   2.512  14.960  0.1108  0.1001 -0.0365
10955W        W27029   9.851  15.879  15.682 -0.1082 -0.0057 -0.1847
10956W        W27030   0.089   0.010   0.770  0.0843 -0.0137 -0.0318
10957W        W27031   5.895   9.666   5.817  0.0750  0.1852  0.0153
10958W        W27032  15.014  15.546  14.054 -0.1741  0.0594  0.0982
10959W        W27033  10.862  15.616   5.667 -0.1896  0.0681 -0.1878
10960W        W27034   5.138   9.987   0.880 -0.1864 -0.0361  0.0890
10961W        W27035   5.806   6.039   3.856 -0.1358  0.2846 -0.1572
10962W        W27036   5.924   5.852  14.950  0.1286  0.3144  0.0138
10963W        W27037  14.162  17.893  12.644 -0.0791 -0.0650 -0.0798
10964W        W27038  14.975   8.446   4.113 -0.0964 -0.2679 -0.2163
10965W        W27039  16.107  12.576  11.398  0.1011  0.2869  0.3364
10966W        W27040   1.198   1.476  12.475  0.1214 -0.0465 -0.0826
10967W        W27041   6.197   6.649   1.497 -0.0671 -0.2860 -0.2813
10968W        W27042   9.415  15.126  15.206 -0.0202  0.1791  0.1300
10969W        W27043  14.131  13.381  13.964  0.1035  0.0530  0.2591
10970W        W27044   8.613   5.569  14.095 -0.0594  0.0578 -0.1234
10971W        W27045  16.913   5.848   3.821  0.1411  0.0594 -0.0717
10972W        W27046  14.640   9.675  14.256  0.0948 -0.0963 -0.0114
10973W        W27047  13.970  13.261   0.907  0.1298  0.0324  0.1184
10974W        W27048   9.511   5.719  15.925 -0.1257 -0.2125  0.0418
10975W        W27049   4.194   0.042  15.697 -0.1478  0.0249 -0.1169
10976W        W27050   7.024   6.268   0.207  0.0830 -0.0270 -0.1461
10977W        W27051  16.340  17.732   3.380 -0.2410  0.1788 -0.0371
10978W        W27052   0.567  10.642  15.372 -0.1606 -0.2512 -0.2949
10979W        W27053  16.806  18.142   4.362  0.2081 -0.0793  0.1165
10980W        W27054  14.043  15.510   0.986 -0.0199  0.0821 -0.1577
10981W        W27055   3.251   7.720  12.839 -0.0365 -0.2193  0.0566
10982W        W27056   3.056  16.145  11.979  0.0594 -0.0981 -0.2321
10983W        W27057   1.918   1.149  13.589  0.0546 -0.0712 -0.3988
10984W        W27058  17.954   6.103   2.504  0.0305 -0.2333 -0.1779
10985W        W27059   1.756  16.168   4.178 -0.0162  0.0660  0.0363
10986W        W27060  13.001  11.309   1.516 -0.0668  0.0333 -0.0202
10987W        W27061  10.612   8.224  13.789 -0.0082 -0.0601  0.0961
10988W        W27062  16.267  15.153  14.696  0.0337  0.0445  0.1504
10989W        W27063   4.124  12.828   3.034 -0.1027  0.1623 -0.2935
10990W        W27064  12.272   8.724  13.140 -0.0721 -0.5603 -0.3767
10991W        W27065   7.624   1.327  11.454 -0.0088  0.0188  0.1776
10992W        W27066   2.374  15.462   1.806  0.1999 -0.3687 -0.2721
10993W        W27067   5.935   6.976  14.031 -0.0272  0.2864 -0.2466
10994W        W27068   1.237   2.282   4.156  0.0013  0.2756  0.2230
10995W        W27069   1.008  10.280   0.587  0.0164 -0.2173  0.0018
10996W        W27070   0.667  16.748   1.901  0.0819 -0.2957  0.2087
10997W        W27071   2.365   5.023  14.717  0.0831  0.1844 -0.3099
10998W        W27072   4.322  14.540  16.388  0.0597 -0.3972 -0.0725
10999W        W27073  11.060   2.830   1.148 -0.2032 -0.5408 -0.4100
11000W        W27074   5.862   7.212   2.645 -0.0828 -0.1405 -0.2681
11001W        W27075  10.721   5.242   5.060 -0.1858 -0.0629 -0.3512
11002W        W27076  16.302  17.585   1.547  0.2240 -0.1377 -0.0210
11003W        W27077   5.609  10.034   1.754 -0.0755  0.2723 -0.1616
11004W        W27078   5.216   9.446   2.581  0.0899 -0.2523  0.2273
11005W        W27079  17.314   7.808   0.501 -0.2301  0.2088  0.2767
11006W        W27080   4.278   6.925  16.365 -0.2420  0.1826  0.1613
11007W        W27081   6.618   8.965   1.733 -0.0042  0.1136  0.1186
11008W        W27082   1.397   7.010   1.481  0.3802 -0.0923 -0.1017
11009W        W27083   6.832  11.858   1.565 -0.0815 -0.1551  0.1824
11010W        W27084   6.180  10.653   1.043  0.0309 -0.3749  0.1267
11011W        W27085   8.732   6.017  14.515  0.1282  0.0726 -0.1848
11012W        W27086  15.482   1.960  13.482  0.1679 -0.0105  0.0189
11013W        W27087   0.363   5.691   0.962 -0.1408  0.3729 -0.3625
11014W        W27088   2.887  11.496   1.765  0.1100 -0.0063 -0.2193
11015W        W27089   4.751   5.907   0.706  0.3886  0.0549 -0.0948
11016W        W27090  10.398  13.803   6.193  0.0783 -0.0135 -0.0225
11017W        W27091  11.629  13.391   2.668 -0.0567 -0.0979  0.1744
11018W        W27092  16.391   1.206   1.424 -0.0228  0.4222  0.1238
11019W        W27093  16.020   2.540  12.072  0.3257  0.1585  0.0916
11020W        W27094   6.207  16.696  11.731  0.0923 -0.5623  0.1092
11021W        W27095   0.014  16.841   2.542  0.0647 -0.1356 -0.0613
11022W        W27096   7.027  10.712  14.835 -0.0088 -0.1319 -0.0656
11023W        W27097   2.707   9.681   0.366 -0.1969 -0.0348  0.2309
11024W        W27098  15.734  16.258   5.930  0.1796  0.2811 -0.1050
11025W        W27099  17.181  15.092   5.255  0.1046  0.0888 -0.0839
11026W        W27100  14.397   5.520   3.201 -0.1373  0.2759  0.0290
11027W        W27101  10.595   1.707  13.328 -0.0351 -0.2586 -0.4741
11028W        W27102   7.866  15.831   3.674 -0.1201  0.2168  0.1809
11029W        W27103  10.422  17.269  15.274  0.1148 -0.1137 -0.1321
11030W        W27104   0.086   9.175   3.115  0.0632  0.2665  0.1131
11031W        W27105   5.877   8.217   5.427  0.0202 -0.2079  0.1940
11032W        W27106   2.035  16.961  11.030 -0.0245 -0.1152 -0.2309
11033W        W27107   1.019   6.180   5.377  0.0339  0.0687  0.0038
11034W        W27108  13.787   2.189   6.092  0.3370  0.2901 -0.0122
11035W        W27109  15.282  15.882  12.167  0.4140  0.1021 -0.1955
11036W        W27110  17.553  13.873   1.606 -0.2080 -0.0460 -0.0187
11037W        W27111  14.403  10.718  14.720 -0.2764 -0.0312 -0.1011
11038W        W27112   6.299   1.541  14.795  0.3529  0.1352 -0.0883
11039W        W27113  16.849  14.200  14.510 -0.0901 -0.1417 -0.0169
11040W        W27114   5.383  11.334   1.847  0.0224 -0.4588  0.2242
11041W        W27115   0.715   4.867   3.830 -0.0637  0.2038 -0.0791
11042W        W27116   1.022   9.836  14.291  0.0185  0.1559 -0.0402
11043W        W27117   7.146   6.186   3.835  0.0251  0.1500  0.2703
11044W        W27118  12.375  18.288   1.791  0.0145 -0.2364 -0.1150
11045W        W27119  14.915  17.801  14.583  0.0389 -0.1244 -0.0503
11046W        W27120   8.544  17.776  13.573  0.2633 -0.1734 -0.3165
11047W        W27121  13.363   3.744   0.269 -0.1786 -0.2399 -0.1636
11048W        W27122   9.640  11.909   2.478 -0.0501 -0.0056  0.1663
11049W        W27123  16.172   1.017  11.791  0.2073  0.2382  0.1430
11050W        W27124  11.902  12.585   2.224 -0.3848  0.1955  0.4557
11051W        W27125   4.169   1.799  15.677 -0.0011  0.0139  0.0330
11052W        W27126  17.147   1.253   1.556 -0.0340 -0.0568  0.0906
11053W        W27127  17.116  14.538   0.045  0.3398  0.0077  0.3731
11054W        W27128  11.078   6.485  15.178 -0.1675  0.0033 -0.0971
11055W        W27129  11.585  17.322   1.512 -0.2254 -0.4830  0.1247
11056W        W27130   7.643  14.491  15.946  0.0853 -0.1581  0.2763
11057W        W27131   5.494   6.953  12.355  0.0980 -0.0572 -0.1315
11058W        W27132   7.229  15.117   0.898  0.0066  0.0233  0.0619
11059W        W27133   1.178  14.786   0.614  0.0415  0.2321 -0.0733
11060W        W27134  13.453   0.957  15.331  0.1110  0.0078 -0.2285
11061W        W27135   9.137  16.340  12.783  0.1977  0.0538  0.0172
11062W        W27136   7.552  13.264  14.072 -0.0702  0.2165 -0.0614
11063W        W27137  12.519   7.058  11.099  0.1909  0.2112  0.1455
11064W        W27138  10.599  15.303  15.093 -0.0514  0.3505  0.3980
11065W        W27139  17.448   7.611   5.313 -0.2191  0.1369 -0.1696
11066W        W27140   3.126   7.440  16.393 -0.1718  0.0585 -0.2761
11067W        W27141  11.429   2.385   1.953  0.1049  0.0615  0.0896
11068W        W27142  13.161  16.413  14.731  0.1804  0.0337  0.1833
11069W        W27143   2.464   2.585   0.691  0.2699  0.0172  0.1596
11070W        W27144  11.361  14.237  11.436 -0.1498 -0.2123  0.1722
11071W        W27145   1.995   8.557   4.480  0.0635 -0.0215 -0.0339
11072W        W27146  10.029   5.428  12.671  0.0258 -0.0357 -0.0670
11073W        W27147  18.072   9.388   4.163 -0.3539  0.1026 -0.2874
11074W        W27148   3.077   5.006   4.577  0.0809 -0.1434  0.3135
11075W        W27149  13.542   0.686  11.935 -0.4095 -0.3125 -0.0284
11076W        W27150   4.425   2.757   2.111  0.3285 -0.0194 -0.0493
11077W        W27151  17.826   4.198  12.286 -0.0715  0.3471 -0.1996
11078W        W27152   2.672   3.123   5.138 -0.2424  0.1306  0.1494
11079W        W27153   9.076   5.521   4.586  0.0817 -0.2801 -0.1885
11080W        W27154  13.657  14.223   1.961 -0.0100 -0.0928  0.1776
11081W        W27155  14.368  17.917   0.799 -0.1943  0.2033 -0.1023
11082W        W27156   7.029  12.057   2.505  0.1745  0.0709  0.1172
11083W        W27157  11.857  13.024  13.563 -0.2864 -0.2267 -0.2581
11084W        W27158   4.436  16.258  12.016  0.1262 -0.0185  0.0234
11085W        W27159   1.607  13.869  15.107  0.1625 -0.0769  0.0766
11086W        W27160   8.760  17.547   4.205 -0.2077  0.3111 -0.2906
11087W        W27161  13.322  10.117   4.734 -0.0068  0.1600  0.0162
11088W        W27162  11.614   0.823   4.497 -0.2047 -0.2731 -0.1668
11089W        W27163   5.681   3.483   2.688  0.3669  0.1607  0.4211
11090W        W27164  10.801  14.123  11.317 -0.1343 -0.1858  0.1017
11091W        W27165   9.113   6.953   1.241  0.1746  0.5598 -0.0766
11092W        W27166   4.017   4.332  15.982  0.4057 -0.0844  0.1399
11093W        W27167   4.026  11.076  15.106 -0.0844 -0.2862 -0.1231
11094W        W27168  14.620  12.945   2.779  0.0074  0.0731 -0.2845
11095W        W27169   2.678   6.866   3.913 -0.0585 -0.1996  0.0974
11096W        W27170  15.979  10.715  13.177 -0.0926  0.1925  0.2630
11097W        W27171   9.170  13.581   0.840 -0.0134 -0.0582 -0.0109
11098W        W27172   1.483  13.741   1.271 -0.1181 -0.2918  0.0597
11099W        W27173   1.213  13.049  16.084  0.1605  0.0685 -0.0370
11100W        W27174  12.900   9.747   3.194 -0.1877 -0.1074 -0.1725
11101W        W27175   9.270  17.316   5.050  0.1268  0.1036  0.0777
11102W        W27176   9.124   2.904  13.433 -0.0087  0.1213  0.1953
11103W        W27177   8.874   8.334  11.587  0.0293  0.1943  0.2699
11104W        W27178  14.229   8.452   2.946 -0.3387 -0.0137  0.2919
11105W        W27179  13.738  17.376  13.712  0.6281 -0.1244  0.2398
11106W        W27180  11.898  10.783   5.195 -0.4067  0.3207 -0.2224
11107W        W27181   4.004  10.484   0.015 -0.1114  0.1289 -0.1666
11108W        W27182   9.753   6.435   1.498 -0.1085  0.0883 -0.2431
11109W        W27183  13.021   9.574   4.067  0.3225  0.0143  0.1550
11110W        W27184   0.841  10.558  12.120 -0.0342 -0.0797  0.1435
11111W        W27185  14.595  16.424   1.629  0.0413  0.0555  0.0723
11112W        W27186  17.876  13.005   1.828  0.3726 -0.0838 -0.0081
11113W        W27187  15.019  15.933  16.299  0.0694 -0.0552 -0.2766
11114W        W27188   0.595  10.273   3.065 -0.2732  0.2011 -0.1265
11115W        W27189   1.881   7.218   5.746 -0.2712 -0.2926 -0.1587
11116W        W27190  17.434  15.055  13.133 -0.2683  0.1139  0.0136
11117W        W27191  17.026   3.828  14.549  0.1145  0.0542  0.0805
11118W        W27192  13.757  17.886  12.250 -0.0096  0.0282  0.0391
11119W        W27193   1.318   1.169   6.276  0.0438 -0.1904  0.1051
11120W        W27194   4.957  12.760   4.850 -0.3121 -0.3120  0.1523
11121W        W27195   3.958  16.490  13.827 -0.2280 -0.2243 -0.2556
11122W        W27196  16.756  12.287  15.337 -0.2215  0.2161  0.0844
11123W        W27197   2.000  10.918   2.110 -0.3442 -0.0481 -0.1123
11124W        W27198  13.379   7.764  13.308 -0.0743  0.1044  0.0455
11125W        W27199  16.876  15.145   4.725  0.1714  0.3283 -0.1005
11126W        W27200   8.620   0.763   3.308 -0.1533 -0.0892 -0.0252
11127W        W27201   2.634   6.920   2.313  0.1642 -0.3027 -0.0854
11128W        W27202  17.100   6.611   1.421  0.0800  0.1207  0.0555
11129W        W27203  18.064  10.338   0.034 -0.3762 -0.3262 -0.0488
11130W        W27204   8.112  11.856  14.461  0.1780  0.2369 -0.1633
11131W        W27205   2.408  11.401   1.749 -0.0569  0.0593  0.1267
11132W        W27206   4.036   6.324  11.925  0.0393  0.1441 -0.1925
11133W        W27207  14.678  15.591  11.581  0.0556 -0.1709 -0.2885
11134W        W27208   6.094  16.460   0.678 -0.0383 -0.1233 -0.2560
11135W        W27209  10.354  12.290   1.404  0.0710 -0.3928  0.1437
11136W        W27210   8.213   8.791  11.812 -0.1477  0.1489 -0.2286
11137W        W27211   9.682  14.022   1.911  0.1371  0.2933  0.2090
11138W        W27212  10.731   1.599  15.794 -0.2113  0.0968 -0.1748
11139W        W27213   0.482  15.804  11.769 -0.1265  0.2507 -0.1198
11140W        W27214   9.160  13.839   1.714 -0.0007 -0.1267  0.2422
11141W        W27215  11.248  16.429   4.519  0.1076 -0.0904  0.1388
11142W        W27216   3.322   3.897  13.482 -0.2566  0.1577  0.0481
11143W        W27217  12.554  11.766  14.556  0.1577 -0.0680  0.1841
11144W        W27218   2.684   9.458   1.579 -0.1231 -0.0081  0.2285
11145W        W27219   6.883   7.189   2.280  0.0976  0.0948 -0.0739
11146W        W27220  16.769  15.381  12.150 -0.1048 -0.1711  0.2432
11147W        W27221  13.349  10.663   0.936 -0.0124 -0.0108  0.1475
11148W        W27222  10.593   4.102   5.267  0.0010 -0.2430  0.1618
11149W        W27223  12.022  15.133   0.877  0.0170 -0.0326  0.1640
11150W        W27224  14.889  12.303   0.137  0.1319 -0.0050  0.0559
11151W        W27225   9.311   9.737  11.682 -0.0152  0.1390  0.1786
11152W        W27226   5.875   3.769   5.986  0.2082 -0.2494 -0.0849
11153W        W27227  16.630  14.116  12.902 -0.1554 -0.2526  0.2272
11154W        W27228  14.527   1.037   4.544 -0.0787  0.1345 -0.3015
11155W        W27229  13.972  17.747  13.994  0.0883 -0.2543  0.2913
11156W        W27230  13.728   8.437  11.008 -0.0849  0.1418 -0.0433
11157W        W27231  17.905  15.015  13.226 -0.1367 -0.0440  0.1978
11158W        W27232   4.989  15.370   4.419 -0.3850  0.0453  0.0939
11159W        W27233  12.940   0.883  16.017  0.0502  0.0524  0.1419
11160W        W27234   2.561   4.727   2.881  0.2281  0.0972  0.1533
11161W        W27235   2.264  17.331  12.383  0.0061 -0.1057 -0.2549
11162W        W27236  12.085  17.805  14.410 -0.0470 -0.2843 -0.0930
11163W        W27237  17.978   7.921  13.150  0.1537 -0.2422  0.0172
11164W        W27238  11.967  12.399  16.354  0.3540 -0.0766 -0.2927
11165W        W27239   2.708   8.439  15.983  0.1493  0.1923  0.3022
11166W        W27240   2.866   5.171  14.768  0.0233 -0.1013  0.0977
11167W        W27241   0.103   1.553  12.354 -0.0578 -0.0606 -0.1127
11168W        W27242   5.952  13.559   2.113 -0.2563  0.1260 -0.0178
11169W        W27243  16.977   6.098   2.386 -0.1131 -0.0064  0.3670
11170W        W27244   8.411   2.877  12.418 -0.1303 -0.0259 -0.0510
11171W        W27245   9.112  16.957  14.170  0.2047  0.0471  0.1663
11172W        W27246  18.100  15.553   4.218 -0.0484  0.3647 -0.0474
11173W        W27247  13.542   2.686   4.663 -0.3211  0.1896  0.1054
11174W        W27248   6.338  12.486  15.661  0.2639 -0.1914  0.2952
11175W        W27249   7.309   3.903  11.845  0.0637 -0.0868  0.1957
11176W        W27250  11.714  17.442   2.339  0.1711  0.0414 -0.2177
11177W        W27251  15.990   1.356   5.653 -0.3587 -0.0361  0.1200
11178W        W27252  11.715  17.714   4.957  0.2558  0.0384 -0.0984
11179W        W27253   6.414   4.292  12.765 -0.0984 -0.0335 -0.0336
11180W        W27254   5.107   5.586   4.948  0.1827 -0.0529  0.1533
11181W        W27255   5.213  15.753   1.285 -0.0037  0.1148 -0.1158
11182W        W27256   4.601   4.868   1.767 -0.2862  0.2289  0.1468
11183W        W27257   5.264  18.253  15.760  0.2615  0.1469 -0.1694
11184W        W27258  15.483   9.640  11.866 -0.2670  0.0875 -0.2416
11185W        W27259   3.076   6.604  10.915  0.3090  0.2351 -0.1111
11186W        W27260   3.848   2.899   3.245  0.4316  0.1947 -0.0057
11187W        W27261   2.114   4.340  15.886  0.0344 -0.0256 -0.2771
11188W        W27262   1.556   9.344  11.660 -0.1396  0.2765  0.0040
11189W        W27263   3.729   4.123  13.842  0.1258 -0.0605  0.1340
11190W        W27264   6.759  17.001   1.196 -0.0107  0.1405  0.1645
11191W        W27265  12.722   7.893   1.308 -0.2333  0.0672  0.1685
11192W        W27266  14.611   5.477   4.877 -0.1912 -0.1766 -0.2248
11193W        W27267  12.835  12.900  11.358 -0.1701  0.2484  0.0959
11194W        W27268   0.181   1.259   3.682 -0.2967 -0.0878 -0.2908
11195W        W27269   7.843  10.369   4.415 -0.2247  0.0314  0.4009
11196W        W27270   8.625   4.077   0.294  0.1777  0.1833 -0.0470
11197W        W27271   4.893  16.592  13.437  0.3371 -0.1006 -0.0812
11198W        W27272   0.444   5.804   1.469  0.2644 -0.1751 -0.1338
11199W        W27273   8.652   5.878   4.629  0.2728  0.1601 -0.4224
11200W        W27274   3.851   9.851  13.083 -0.2516 -0.1275  0.2266
11201W        W27275   3.033   0.681   4.983 -0.0731 -0.1649  0.2133
11202W        W27276   6.336   0.658  12.313 -0.5504  0.1625  0.2423
11203W        W27277  14.477   9.740   4.818  0.3072  0.0027  0.0099
11204W        W27278  12.812  17.808  12.163 -0.3994  0.1288  0.0390
11205W        W27279  11.729   1.811   0.861 -0.2114  0.0637  0.0543
11206W        W27280   9.363   7.171  14.154 -0.0769  0.3121 -0.0015
11207W        W27281  11.160  14.577   4.411 -0.1524 -0.1367 -0.0803
11208W        W27282   3.906   0.534   5.461 -0.0035 -0.0535 -0.2280
11209W        W27283   8.879  17.108  16.250  0.0558  0.0190  0.0478
11210W        W27284  16.365  17.701  13.133  0.0215  0.2133  0.0458
11211W        W27285   7.974   1.528  12.082  0.0333  0.0198  0.1138
11212W        W27286   8.261   1.477  12.493 -0.1659  0.0494  0.0633
11213W        W27287  17.735   6.115  16.228  0.2171  0.1875 -0.0878
11214W        W27288   9.060   0.564   4.076  0.1631 -0.1343  0.0239
11215W        W27289   2.560  15.612  12.678 -0.0087  0.0019  0.0083
11216W        W27290  11.367   2.963  13.638 -0.1647 -0.0764  0.0123
11217W        W27291   0.555  14.707  12.959  0.0278 -0.0961 -0.0382
11218W        W27292   6.743   6.610  14.565 -0.0600  0.0640  0.0804
11219W        W27293   7.960   1.878   2.696  0.0412  0.3371  0.1801
11220W        W27294  17.585  14.860   0.880 -0.2865  0.2515 -0.1488
11221W        W27295  15.701   6.095  13.417 -0.2710 -0.2439 -0.0223
11222W        W27296   4.936  12.892  15.597 -0.0703 -0.2131 -0.1559
11223W        W27297   5.095  16.428  14.367  0.2376  0.3764 -0.1636
11224W        W27298  12.824   4.633  13.252  0.0290  0.0427  0.0944
11225W        W27299  16.261  10.427   0.796  0.0336  0.0937 -0.4042
11226W        W27300   5.543   4.142  13.247 -0.1415 -0.1907  0.3151
11227W        W27301  10.730   8.738   4.241 -0.2782 -0.2902 -0.2615
11228W        W27302   7.564   8.489  11.429  0.3017 -0.1212  0.1195
11229W        W27303   0.763   1.804  15.390  0.3648 -0.1948 -0.2707
11230W        W27304  11.398  17.278   1.963  0.1285 -0.0966  0.0815
11231W        W27305   5.816   9.492  11.379 -0.7496  0.1525  0.1313
11232W        W27306  15.166   9.465   2.792  0.0395  0.1357  0.0777
11233W        W27307  13.364  15.437  11.674 -0.0437  0.3622 -0.2299
11234W        W27308   8.565  13.156  15.631 -0.1683  0.4640  0.3255
11235W        W27309   6.590  15.802  13.637 -0.1242  0.1139  0.1043
11236W        W27310   7.413  13.940  12.595  0.1935  0.2242  0.0554
11237W        W27311  10.159   2.351  12.665 -0.0307 -0.1013 -0.3081
11238W        W27312  13.192   1.495   4.581  0.0194 -0.2090 -0.0476
11239W        W27313  11.479   6.321  11.839  0.1723 -0.0054 -0.0056
11240W        W27314  13.721  15.793  11.153 -0.0723 -0.2378  0.4268
11241W        W27315  14.035   8.284   1.623 -0.2560 -0.2965  0.1097
11242W        W27316  16.331   9.943  13.176  0.0402 -0.1117  0.0914
11243W        W27317   2.051   9.077  15.705 -0.1406  0.0353  0.0397
11244W        W27318   0.291   1.963  13.545  0.1557  0.1864 -0.1237
11245W        W27319  17.980  12.204   0.429 -0.0371  0.0661 -0.1437
11246W        W27320   6.397  18.163   2.553 -0.0754  0.1191 -0.1619
11247W        W27321   8.657  12.820  13.512  0.0859 -0.1218  0.1712
11248W        W27322  10.800   2.443   2.680 -0.0526 -0.0647  0.3154
11249W        W27323   1.096  10.518  13.024  0.3489 -0.0740 -0.2480
11250W        W27324   2.213  16.787   0.672 -0.1361  0.0721  0.0444
11251W        W27325  12.173  16.958   4.656  0.2816 -0.1657 -0.1291
11252W        W27326  16.478   1.523  12.230 -0.1960  0.1568  0.1554
11253W        W27327  12.859  13.791   4.165 -0.0298 -0.3522  0.1085
11254W        W27328   9.732   0.226   2.493 -0.0841  0.0673 -0.0880
11255W        W27329  17.978  17.573   4.445  0.0228  0.1320  0.0208
11256W        W27330  11.869   4.674  11.548 -0.4187 -0.1774  0.2809
11257W        W27331   6.921   5.791   0.338 -0.1714 -0.5827 -0.1012
11258W        W27332  16.722   9.537   4.904 -0.2502 -0.0879  0.2852
11259W        W27333   5.604   0.464  13.474 -0.2936  0.0970  0.1425
11260W        W27334  14.308   6.959  15.350  0.0849  0.1280  0.1196
11261W        W27335   3.893  14.055   0.127  0.0154  0.0109  0.0086
11262W        W27336  11.435  11.039   5.780  0.0194  0.1621 -0.0052
11263W        W27337   9.256   1.688   3.290 -0.0441  0.1523  0.4567
11264W        W27338   2.938   7.613  12.398 -0.0127  0.0072 -0.2573
11265W        W27339  12.510  18.195   0.974  0.2769 -0.0483 -0.0838
11266W        W27340  13.382   9.115   5.957  0.0175  0.0279 -0.1494
11267W        W27341  13.408  17.498  11.362  0.2621 -0.1667  0.3122
11268W        W27342   5.959   4.400  16.214  0.0741  0.2540  0.2186
11269W        W27343   1.334  17.482   5.308  0.4050  0.3621  0.1612
11270W        W27344  16.453  11.711  13.668  0.0870  0.0975 -0.1251
11271W        W27345  17.900  15.665  11.930  0.1393  0.1785  0.0347
11272W        W27346   4.765   5.941   4.207 -0.3781 -0.2137  0.2326
11273W        W27347  14.826   5.219   4.525  0.0620 -0.1616 -0.2707
11274W        W27348  15.807   3.528  15.033 -0.2028 -0.1765  0.1179
11275W        W27349  15.012   9.836  11.722  0.1151  0.0798  0.0941
11276W        W27350  17.720  14.672   4.577  0.0434  0.4586  0.2586
11277W        W27351  15.917   7.217   1.035 -0.1349  0.2420 -0.1844
11278W        W27352   2.394  15.278  13.891 -0.0845 -0.0097 -0.0170
11279W        W27353  13.777   4.676  12.637  0.0952  0.2306 -0.0830
11280W        W27354  15.989   4.648   3.117 -0.0548 -0.1755  0.2995
11281W        W27355   0.166   6.595   0.769 -0.2423  0.3044  0.3448
11282W        W27356   9.421  12.832  15.532  0.4132  0.2873  0.0992
11283W        W27357   0.404  10.556  12.389  0.1157  0.4802  0.3635
11284W        W27358  11.737  17.452   0.972 -0.1107 -0.0033 -0.0600
11285W        W27359  10.405  11.105  13.634  0.2017 -0.3249 -0.5676
11286W        W27360   5.967   2.081   3.932 -0.0967 -0.1826  0.0992
11287W        W27361  13.170   1.317  13.563 -0.2010  0.3124  0.4598
11288W        W27362  12.672  10.231   0.770  0.0608 -0.2495 -0.2225
11289W        W27363   2.853  14.306   0.940  0.2159 -0.0700 -0.0088
11290W        W27364   2.870  17.748  13.999  0.3833  0.0954 -0.0224
11291W        W27365   4.605  15.031  12.353  0.0181  0.1247  0.1731
11292W        W27366   8.006  10.054  14.011  0.1443 -0.1293  0.0909
11293W        W27367   2.560  12.322  13.818  0.1530  0.0391 -0.0271
11294W        W27368  14.507  18.285   4.258  0.1050 -0.1283  0.2063
11295W        W27369   8.629   5.281  12.035 -0.3314  0.0292  0.1702
11296W        W27370   9.786  15.901  15.140  0.3608  0.1049 -0.0804
11297W        W27371  14.518  11.605  16.250  0.0103 -0.1953 -0.1733
11298W        W27372  17.080  17.677   4.430  0.1607  0.2307 -0.1343
11299W        W27373   4.345  15.490  16.262 -0.4632 -0.0669 -0.1520
11300W        W27374   9.877  10.357  15.846 -0.2580 -0.3145 -0.2449
11301W        W27375  17.029   2.732  15.569  0.2642 -0.0481  0.1308
11302W        W27376  12.859  14.488   1.405 -0.1560 -0.1014  0.1826
11303W        W27377  15.182  13.560  16.047 -0.0124 -0.1885 -0.2630
11304W        W27378   8.707  11.848   2.743 -0.0270 -0.1919  0.0111
11305W        W27379  13.093   2.281   4.960 -0.3074 -0.0931  0.1578
11306W        W27380  14.511  12.972   2.186 -0.1699  0.0014 -0.0046
11307W        W27381  14.574  13.034  12.593  0.0296 -0.2206  0.1721
11308W        W27382   6.631  11.058   3.627 -0.0274 -0.1892  0.1031
11309W        W27383  13.554   2.784  15.579  0.1854 -0.0289  0.1917
11310W        W27384   4.341   8.869  15.825 -0.0246 -0.0615 -0.4738
11311W        W27385  15.797   2.053  12.795  0.0179  0.0249  0.0485
11312W        W27386   0.101  12.436  10.443  0.0110 -0.1291  0.0471
11313W        W27387  11.205   6.636  10.988 -0.1139 -0.0995  0.0940
11314W        W27388   2.862   1.598  14.088  0.0197  0.1233  0.4397
11315W        W27389   2.944   0.976  15.882 -0.3448  0.2317  0.0666
11316W        W27390  15.475   7.903  13.132 -0.1186  0.2821 -0.0755
11317W        W27391   9.829  12.437   4.282  0.1132 -0.1969 -0.4216
11318W        W27392  13.739   9.286   0.652  0.2606  0.2566 -0.2308
11319W        W27393   1.859  14.703  15.821  0.1075  0.2036  0.0070
11320W        W27394   8.865  12.131   5.635  0.2931 -0.1233 -0.1884
11321W        W27395   4.194   7.018   3.323 -0.0801  0.3066 -0.0816
11322W        W27396   8.193  18.136  15.128 -0.1854 -0.1440 -0.1611
11323W        W27397  11.632  16.438  12.467  0.2609 -0.1142 -0.0142
11324W        W27398   5.664  17.836   6.424 -0.0997  0.1461  0.4465
11325W        W27399   6.529   4.023  16.081 -0.0311  0.1548 -0.3622
11326W        W27400   5.680  12.763  13.948  0.0619 -0.2796  0.0976
11327W        W27401  17.486  16.218  15.806  0.2652 -0.1675  0.2442
11328W        W27402  13.383  16.546  15.566  0.0438 -0.2465  0.1316
11329W        W27403  10.530  14.912   0.799 -0.2389 -0.2881 -0.1448
11330W        W27404   1.801   5.940   0.357 -0.1568 -0.1722 -0.0153
11331W        W27405   2.261  14.407  12.589  0.0011 -0.3921 -0.2125
11332W        W27406   5.244  16.136   3.834  0.1046 -0.0835  0.0737
11333W        W27407  14.612   2.321   0.783  0.3766  0.0956 -0.0664
11334W        W27408   9.982  11.036   2.672  0.0821 -0.1310 -0.0375
11335W        W27409  13.370   6.961  12.173  0.0721 -0.1043 -0.0408
11336W        W27410   2.947   4.260  14.313  0.0212  0.3953 -0.4229
11337W        W27411  12.605   2.118   1.363  0.1713 -0.3297  0.2964
11338W        W27412   3.260   1.283  14.387 -0.0454 -0.1889  0.1791
11339W        W27413  12.953  10.546   0.134 -0.1119  0.0589 -0.1644
11340W        W27414  13.250   8.314  14.536 -0.2230 -0.3301 -0.0754
11341W        W27415  13.642   9.398   3.285 -0.1718 -0.3859  0.1304
11342W        W27416   6.826   2.087  12.416  0.3302 -0.0464  0.0353
11343W        W27417  12.184   1.570   4.826 -0.1684 -0.2952  0.2042
11344W        W27418   4.610   6.335   3.921  0.3329  0.0623 -0.1545
11345W        W27419  15.260  12.416  13.964 -0.0801  0.2931 -0.0945
11346W        W27420   8.296  18.157   5.783 -0.2932 -0.2969  0.3443
11347W        W27421  11.074   4.987   2.334 -0.0532  0.0488 -0.0053
11348W        W27422   4.608   8.911  16.225  0.0828  0.4634 -0.2513
11349W        W27423  14.180  10.292  16.341 -0.2423 -0.1708 -0.2522
11350W        W27424  13.805   9.474  11.285 -0.1165  0.0552 -0.0383
11351W        W27425   0.224   2.483  12.799  0.0851  0.0073  0.3801
11352W        W27426  17.391   5.625   2.857 -0.2758 -0.2952  0.0915
11353W        W27427  11.181   9.568   0.772  0.2241 -0.0163  0.1809
11354W        W27428   3.592  13.373   5.036 -0.0674  0.0034  0.0116
11355W        W27429   4.208  13.075   3.673 -0.2733 -0.2367  0.0814
11356W        W27430   2.747   3.030  12.105 -0.0220 -0.1344 -0.0977
11357W        W27431   5.687  17.668   1.631  0.3529 -0.2387 -0.0760
11358W        W27432   7.746   9.012  14.152 -0.0444  0.2182 -0.1637
11359W        W27433   9.080   6.685   0.022  0.1417  0.0031  0.0861
11360W        W27434   6.604   2.451   4.451  0.1136 -0.5156 -0.4759
11361W        W27435   9.038   4.395  15.217  0.1630  0.2639  0.2438
11362W        W27436  14.863   0.751   3.605  0.1579  0.3594  0.0876
11363W        W27437  16.414   7.809  12.895 -0.2505 -0.0962 -0.2423
11364W        W27438   8.018   1.392   2.727  0.2262  0.1150 -0.1793
11365W        W27439  10.316   1.006   1.311 -0.2213  0.1285  0.0516
11366W        W27440   9.704  17.256   4.103  0.2023  0.1402 -0.2265
11367W        W27441   2.332  14.266   1.420  0.3153  0.1304 -0.0326
11368W        W27442   2.760  14.607  15.372 -0.2458 -0.0326  0.2292
11369W        W27443  10.527   5.341   4.333  0.1606 -0.3595  0.3544
11370W        W27444  10.458   9.029  16.016 -0.3568  0.1480  0.3177
11371W        W27445  13.661   0.318   4.234 -0.2043 -0.2971  0.0903
11372W        W27446   1.969  15.047   2.517  0.0672  0.3994 -0.0070
11373W        W27447   4.593   8.750   0.831  0.0019 -0.4199 -0.2872
11374W        W27448   0.327   2.683  15.878 -0.0651 -0.1464  0.0067
11375W        W27449   1.575  11.072  14.774  0.2834  0.0031  0.3271
11376W        W27450   8.395   5.449   0.313  0.1113  0.1291 -0.0415
11377W        W27451   5.346  15.654  13.287 -0.1463  0.0785 -0.1079
11378W        W27452  12.619   3.230   3.388  0.0248  0.2057  0.1889
11379W        W27453   8.670  17.224  14.850  0.1969 -0.3449  0.0027
11380W        W27454  16.764  10.647  14.016 -0.0237 -0.0255  0.0067
11381W        W27455  11.180  13.333  13.304 -0.0181  0.0261  0.0289
11382W        W27456   5.359   5.344  11.294  0.3264 -0.1867  0.1667
11383W        W27457   8.384   4.354   2.657 -0.2021  0.0285  0.1856
11384W        W27458  12.193   5.935  12.509  0.1081  0.6641  0.2506
11385W        W27459   5.374   3.979  14.043  0.1454 -0.0359  0.0137
11386W        W27460  14.742  17.692   5.490  0.4110 -0.1561  0.1484
11387W        W27461  11.919  13.806  13.859  0.0809  0.0911 -0.0323
11388W        W27462   2.375   2.560   1.480 -0.2675 -0.1341 -0.1790
11389W        W27463  14.315   7.026  13.527  0.1607 -0.2820 -0.0167
11390W        W27464  15.171  13.371  11.744 -0.1528  0.2377  0.0018
11391W        W27465   4.017  13.637   2.305 -0.1609 -0.3461 -0.1440
11392W        W27466   7.460   4.578   4.172  0.2783 -0.1018  0.3061
11393W        W27467  10.484   7.724  11.971 -0.2274 -0.2275  0.0660
11394W        W27468   1.808  11.877   3.138 -0.1946  0.0271 -0.1028
11395W        W27469   1.720  12.626   0.418 -0.1597  0.0243  0.3136
11396W        W27470  13.263   2.073   0.828 -0.4407  0.1254  0.2360
11397W        W27471   8.039   6.381   2.709 -0.0997  0.2010 -0.1594
11398W        W27472  12.340  14.195  15.730  0.2136 -0.0596 -0.1994
11399W        W27473   1.436   6.862  14.400  0.0355  0.0763 -0.1559
11400W        W27474   3.952  13.468  12.519 -0.5620 -0.0765  0.0584
11401W        W27475  17.731  12.126  11.524 -0.0793  0.0035  0.0014
11402W        W27476   0.878  17.169  12.712 -0.2804  0.1904 -0.1326
11403W        W27477   2.479   0.536  12.635 -0.1662 -0.1910  0.1561
11404W        W27478  11.108   2.779  10.978 -0.3799 -0.0706 -0.1672
11405W        W27479   0.558   7.624   0.639 -0.1531  0.2609 -0.1441
11406W        W27480   8.574  17.367  12.424 -0.0115 -0.0535  0.2476
11407W        W27481  11.783   7.508  10.904 -0.1012 -0.1596  0.0901
11408W        W27482  10.431  13.650   3.861 -0.2170  0.0574 -0.4849
11409W        W27483   9.428   6.066   0.434  0.0989  0.1205  0.1335
11410W        W27484  10.234  11.667  12.122 -0.2658  0.1175  0.2352
11411W        W27485  14.339   9.464   2.766 -0.0814  0.2550 -0.0374
11412W        W27486  17.993  10.864  13.035 -0.1359 -0.1365  0.1153
11413W        W27487  17.852  13.019   5.226  0.0858  0.2218 -0.1087
11414W        W27488  17.701   2.472  16.322  0.0122 -0.1272  0.3023
11415W        W27489   6.765   1.161  11.592  0.0579 -0.1002 -0.1767
11416W        W27490   6.387  17.274  12.701 -0.2840 -0.3086 -0.3485
11417W        W27491   2.300  11.260   0.621  0.2435  0.0136 -0.0203
11418W        W27492  10.810  10.200   4.257  0.2729 -0.1912  0.1815
11419W        W27493   3.612   3.987   4.259  0.0101  0.0966  0.1987
11420W        W27494   8.371   5.577  11.635  0.1106 -0.0265 -0.0591
11421W        W27495   9.729   4.666  15.630  0.0639  0.0103  0.0450
11422W        W27496  13.961  11.195   3.845 -0.0298  0.1041  0.0677
11423W        W27497   1.268   7.683  10.881  0.2375  0.1704  0.1377
11424W        W27498   7.059   1.257   3.005 -0.2401  0.1575 -0.0369
11425W        W27499  12.664  12.471  12.329 -0.0181 -0.1131  0.0925
11426W        W27500   1.786  15.539  13.069  0.1499  0.1320  0.2684
11427W        W27501   8.340   1.028   0.753 -0.2438 -0.0587  0.1279
11428W        W27502   9.496   4.305  11.039  0.0065  0.1128  0.0760
11429W        W27503   9.979  15.793  14.709  0.0595  0.0634 -0.1980
11430W        W27504  15.487  12.591  15.060 -0.2182  0.1337 -0.0234
11431W        W27505  10.552   7.746   3.773 -0.0812  0.0643  0.2563
11432W        W27506   6.368   6.676  11.346  0.0576  0.0487 -0.1447
11433W        W27507   2.498  11.037   3.231 -0.0390 -0.0812 -0.3234
11434W        W27508  10.209   8.731  11.664  0.0575 -0.0768 -0.0993
11435W        W27509  14.947  17.777   4.116 -0.0908  0.0374  0.1040
11436W        W27510  14.346   5.782  12.530 -0.0605  0.0950  0.1676
11437W        W27511  14.258   5.699  11.932  0.1291  0.0339 -0.0078
11438W        W27512   9.725   2.331  15.468 -0.0559 -0.0663  0.0601
11439W        W27513  10.187   4.548  11.854 -0.2535  0.2649 -0.1646
11440W        W27514  11.320  15.219   1.642  0.0977 -0.4254  0.1958
11441W        W27515  13.869   4.621   1.028  0.0314 -0.1969  0.1537
11442W        W27516  10.921   7.174   3.413 -0.2220 -0.1078  0.2175
11443W        W27517  15.008   3.958  14.944 -0.0430  0.0618  0.3709
11444W        W27518  17.042  16.185  12.460 -0.1366  0.0352 -0.0025
11445W        W27519  17.388  10.852   2.359  0.0374 -0.0659 -0.1964
11446W        W27520   2.577   8.658   1.742  0.0323 -0.1253 -0.2386
11447W        W27521   3.652   4.908   1.876 -0.0690  0.3617 -0.0159
11448W        W27522   2.748  17.718  14.568  0.0474  0.2955  0.2224
11449W        W27523  12.305   3.523   4.282  0.0414 -0.0123 -0.1442
11450W        W27524   9.857  15.308   1.663 -0.3336 -0.0297  0.1405
11451W        W27525  11.589   2.869  11.013  0.0984 -0.0726  0.0193
11452W        W27526   3.937  15.492   3.455 -0.0705  0.1823 -0.0879
11453W        W27527   4.903   0.216   3.342 -0.0077 -0.3137 -0.0500
11454W        W27528   0.488  16.890   2.902  0.2056 -0.0111 -0.1742
11455W        W27529   9.182   1.457  11.044  0.3922  0.0899 -0.0686
11456W        W27530   4.999  17.792   0.893  0.0140  0.3761 -0.0930
11457W        W27531  15.666   0.517   2.562  0.1986 -0.3607  0.2633
11458W        W27532   8.524   2.901  10.981  0.1938 -0.0038 -0.0275
11459W        W27533  11.705   7.371   3.765 -0.0519  0.1784  0.2222
11460W        W27534   1.984   3.566   1.398 -0.0047 -0.2739 -0.0376
11461W        W27535  15.432  12.840  16.148  0.0613  0.3726  0.2001
11462W        W27536   0.141   1.220   5.799  0.0746  0.1011 -0.0505
11463W        W27537   6.502  18.328  13.036  0.1290  0.0852 -0.3152
11464W        W27538   1.754  14.879  12.289  0.0519 -0.0150 -0.0395
11465W        W27539   3.060  16.652  13.743 -0.2703  0.2404 -0.1844
11466W        W27540  16.743  12.695   0.110 -0.2421  0.0002  0.0329
11467W        W27541  14.628   7.604   4.757  0.1696  0.2499  0.2245
11468W        W27542   2.943  10.558   1.914  0.1641 -0.0341 -0.2232
11469W        W27543  10.506   3.937  10.232  0.3709  0.0158  0.2261
11470W        W27544  14.129  13.991   4.723 -0.0432 -0.1207 -0.2508
11471W        W27545   5.163   3.257   3.145 -0.2421  0.0942  0.1807
11472W        W27546   5.410   1.716  15.582  0.0699  0.1192 -0.0604
11473W        W27547   3.082  13.914  15.036 -0.0567 -0.0973 -0.2185
11474W        W27548  10.543  12.832   4.447 -0.2920  0.4174 -0.1405
11475W        W27549   0.736   5.357   1.525  0.3052 -0.1812  0.1133
11476W        W27550   0.833   8.385   1.883 -0.3547 -0.0319  0.3361
11477W        W27551  14.591  15.149   1.929 -0.2184  0.0665 -0.1502
11478W        W27552  14.185  12.417  13.282 -0.0877 -0.2729 -0.0813
11479W        W27553   4.678   3.863  13.001  0.1787  0.0171  0.0611
11480W        W27554  16.085   9.597   1.110  0.1712 -0.1306 -0.0978
11481W        W27555  14.865  14.269   5.897  0.0450 -0.1495 -0.4186
11482W        W27556  10.656  17.140   0.616 -0.1146 -0.1468  0.0250
11483W        W27557   5.125   0.028   4.361  0.4452  0.1252  0.1253
11484W        W27558   4.275  12.287   2.877 -0.2363  0.0960 -0.1845
11485W        W27559   1.872  16.393   0.931 -0.0022  0.1623 -0.2177
11486W        W27560   5.173   0.882  13.621  0.4273  0.0677  0.0722
11487W        W27561  15.288   3.920   5.237  0.0063  0.2514 -0.1057
11488W        W27562  10.805   0.596   1.948 -0.4167 -0.3821 -0.5621
11489W        W27563  11.276  12.239  15.685  0.0594 -0.0535 -0.2494
11490W        W27564  13.948   9.692   4.931 -0.0563 -0.1974  0.3341
11491W        W27565  13.596  17.020  14.087  0.1509  0.0799  0.0516
11492W        W27566  13.138  13.833   0.628 -0.3006  0.2808  0.1514
11493W        W27567   4.077   4.137   0.091  0.2354  0.1518  0.3214
11494W        W27568  16.066   6.143  12.975  0.2118 -0.0440  0.0964
11495W        W27569   2.253   6.824  15.163  0.2492 -0.0289 -0.0871
11496W        W27570   3.524   3.102   5.499 -0.1010 -0.3766  0.1353
11497W        W27571   9.837  15.653   4.443  0.2650 -0.0927  0.1644
11498W        W27572   9.720   6.501  10.943 -0.0922 -0.0014  0.1879
11499W        W27573   4.328   2.676   2.609 -0.1125 -0.1205  0.0668
11500W        W27574  18.276   6.204   0.422  0.1856 -0.3060 -0.2295
11501W        W27575  14.848  18.234   3.843 -0.1462  0.1222 -0.2160
11502W        W27576   8.439  15.687   3.565  0.1339  0.4893 -0.4407
11503W        W27577   1.354   7.343  12.245  0.3304 -0.1978 -0.1401
11504W        W27578   7.378   9.777   0.897  0.2851  0.1052 -0.0180
11505W        W27579  18.264   4.692   1.999 -0.4689  0.0063 -0.0155
11506W        W27580  13.408   8.429  12.981 -0.2608  0.0158 -0.0343
11507W        W27581  10.334   7.754   9.770  0.0952  0.1432  0.1433
11508W        W27582  14.464   4.361  13.251  0.3193 -0.0761 -0.1394
11509W        W27583  11.192  15.006  11.949  0.1122  0.1179  0.1791
11510W        W27584   4.603   1.738  15.389  0.0178  0.5463  0.3289
11511W        W27585   8.872  14.326   0.863  0.0580  0.0501 -0.1189
11512W        W27586   5.894   1.180  11.622  0.1218  0.3279 -0.1354
11513W        W27587  14.414   5.200  11.915 -0.0931 -0.1504 -0.1042
11514W        W27588   6.100   6.536   3.486 -0.0610 -0.0315  0.1422
11515W        W27589   2.271   3.805  12.614  0.2937 -0.0433  0.0563
11516W        W27590  12.886  15.822   0.912  0.0586  0.0426  0.2434
11517W        W27591   7.732  13.420   4.089 -0.1334 -0.1266 -0.1023
11518W        W27592  13.094   4.089  15.695 -0.4130  0.1093 -0.1274
11519W        W27593   2.906   2.131  15.388  0.2416 -0.0776  0.1215
11520W        W27594  17.418  10.158  14.178  0.3040  0.1439 -0.0472
11521W        W27595  16.172   1.509  15.242  0.1099 -0.1055 -0.1836
11522W        W27596  11.974   4.803   3.545  0.1364 -0.1429 -0.2343
11523W        W27597   7.020   4.992  13.815 -0.1108 -0.0681 -0.1126
11524W        W27598  12.290   8.372   4.189 -0.0314  0.5447 -0.0629
11525W        W27599   6.917   9.016   3.941  0.1615  0.2504 -0.0459
11526W        W27600   2.331  17.648   3.136  0.0117  0.0630  0.0052
11527W        W27601  12.424  15.247  14.746 -0.3554 -0.2508  0.1838
11528W        W27602   8.201   0.110   1.996  0.2321  0.0154 -0.2290
11529W        W27603   0.281   5.424   2.561 -0.1576  0.0661  0.1894
11530W        W27604  12.696   9.566   1.823  0.4017 -0.3927 -0.1501
11531W        W27605   4.305   2.877   4.913  0.1437 -0.1455  0.1978
11532W        W27606  10.505  15.475  13.782 -0.1063  0.1004  0.0439
11533W        W27607  11.883   1.802   1.447  0.2014 -0.0420  0.3215
11534W        W27608  10.181   8.618  12.965  0.3054  0.1822  0.3232
11535W        W27609   7.179   1.272   0.531 -0.2985  0.2403  0.0729
11536W        W27610   8.333  11.376  11.388 -0.0687 -0.1109 -0.3437
11537W        W27611  10.861   1.069   4.604 -0.1923 -0.1994 -0.0775
11538W        W27612   8.319  11.015   1.543 -0.1124  0.2729  0.1202
11539W        W27613  15.826   8.369  14.193 -0.0799 -0.1803  0.1829
11540W        W27614   9.746   1.102   2.691  0.0515 -0.3109 -0.0909
11541W        W27615  17.993  12.720   0.479  0.0569 -0.0928 -0.0249
11542W        W27616  17.720   9.818   1.392  0.0707  0.0674  0.2402
11543W        W27617  13.592   8.085  14.812 -0.3124 -0.1446 -0.0622
11544W        W27618   4.433   0.331  13.467 -0.2545 -0.1106 -0.1738
11545W        W27619  13.767   6.220  15.103  0.0770  0.0355 -0.1360
11546W        W27620   3.674   3.626  11.194 -0.0835  0.1639 -0.0480
11547W        W27621  18.300  10.600  15.215 -0.2663  0.0437 -0.0653
11548W        W27622  14.064  14.133   3.355  0.0166 -0.4054 -0.0710
11549W        W27623   5.519   0.243   0.339 -0.0936 -0.1732  0.1120
11550W        W27624   7.945   5.906   1.509 -0.3235 -0.2688  0.2637
11551W        W27625   9.040   0.696   0.420  0.2327  0.0038 -0.3306
11552W        W27626   2.571  12.490  13.159 -0.2286 -0.2152  0.2810
11553W        W27627  12.633   6.230  13.132  0.0062 -0.1863 -0.0135
11554W        W27628   5.372  16.544  13.654 -0.2946  0.4228 -0.0045
11555W        W27629   2.741  11.112   0.218  0.0873 -0.1110  0.0805
11556W        W27630  14.730  15.192   4.211 -0.1444  0.0269  0.1023
11557W        W27631   1.621  10.519   2.222 -0.1559 -0.0259  0.0200
11558W        W27632  11.626  15.259   2.125 -0.2756 -0.1186  0.2031
11559W        W27633  12.016   9.018  11.546 -0.1514  0.0974 -0.0867
11560W        W27634  18.322  14.856  12.423  0.3852 -0.1193  0.0491
11561W        W27635   7.066  16.869  14.740  0.1844  0.0487 -0.2835
11562W        W27636   3.215   4.098  12.450 -0.1747 -0.1755  0.3883
11563W        W27637   5.098   1.785  16.088 -0.0673  0.0317  0.3358
11564W        W27638   7.106   2.064  14.176  0.1236 -0.1836 -0.0302
11565W        W27639  10.985  12.199  13.713 -0.2419  0.0854 -0.1950
11566W        W27640  17.399  10.303   4.926 -0.1180 -0.0998 -0.0404
11567W        W27641  17.808  11.351   4.986 -0.0291 -0.0503 -0.5147
11568W        W27642  14.504   1.860   4.963 -0.0483 -0.2594  0.3125
11569W        W27643   4.516  11.491   0.681 -0.4760  0.0451  0.0070
11570W        W27644   4.166  17.684  13.642 -0.0687  0.0077 -0.1191
11571W        W27645   8.901   6.644  13.323  0.0582  0.2112  0.0294
11572W        W27646   2.881  17.287   0.817 -0.0933 -0.0162  0.1313
11573W        W27647   5.179  14.908   3.123  0.0534 -0.2846  0.2353
11574W        W27648   1.376   7.702   3.605  0.3142  0.4093  0.0050
11575W        W27649   0.694   7.591   3.070  0.0366  0.2316 -0.0452
11576W        W27650   7.479   3.922   3.792  0.0838  0.0196 -0.1803
11577W        W27651  11.570   0.145  10.872  0.2560  0.1634 -0.0277
11578W        W27652  10.343  12.087  11.891 -0.0663 -0.1943  0.3001
11579W        W27653  13.897  14.720   5.929 -0.0297 -0.2853 -0.1174
11580W        W27654  14.941   1.013  14.992 -0.0335 -0.0708  0.1131
11581W        W27655  13.578  13.223  15.572  0.0080 -0.1069 -0.2849
11582W        W27656   6.110  16.186   3.221  0.3302 -0.2134  0.3668
11583W        W27657  14.679   9.600  12.854  0.2178 -0.5262 -0.3800
11584W        W27658   5.297   4.910  15.657 -0.1108  0.1058 -0.0734
11585W        W27659   7.037  15.042  14.601  0.0169 -0.0492 -0.0052
11586W        W27660   7.336   4.555   2.909  0.0651 -0.0232 -0.0551
11587W        W27661  16.866  13.556   2.572 -0.1696 -0.0079 -0.0033
11588W        W27662  16.530  10.194  13.979 -0.1450  0.3432 -0.1335
11589W        W27663   6.755  16.406  15.857 -0.1131 -0.0471 -0.1287
11590W        W27664   7.854   0.587   2.284  0.1436  0.0483 -0.1908
11591W        W27665  17.962  17.909  16.269  0.2566 -0.0632  0.0543
11592W        W27666  15.392   5.614  11.502  0.1078  0.0864  0.0345
11593W        W27667  11.022   8.415   4.555  0.0005  0.1373 -0.0774
11594W        W27668   4.647  14.284   3.801 -0.5423  0.2848 -0.0151
11595W        W27669  15.501   1.426   1.614 -0.0189  0.3661  0.3609
11596W        W27670  11.432   9.610  16.199 -0.2974  0.0948  0.0285
11597W        W27671  10.369   3.735   6.038 -0.2545 -0.0142  0.2388
11598W        W27672  13.332   3.941   3.591  0.1101 -0.0058  0.1551
11599W        W27673  10.516  10.294   3.811 -0.1623  0.0418 -0.1854
11600W        W27674   6.410   1.460   3.623  0.1901  0.1112 -0.1418
11601W        W27675   9.604   7.160  11.769  0.1264  0.1992 -0.3074
11602W        W27676   8.215  15.791   4.511 -0.0104  0.0602 -0.0731
11603W        W27677   1.230   6.202   1.099 -0.2490  0.0170 -0.0606
11604W        W27678  11.222  17.858  13.378 -0.1349  0.1675 -0.2229
11605W        W27679   4.371   1.132  12.459 -0.0863  0.0671  0.0655
11606W        W27680  14.130  14.909  11.493  0.2960  0.0014 -0.1727
11607W        W27681  13.256   1.962   4.334 -0.1174 -0.0018  0.0073
11608W        W27682  11.606   0.368  12.098 -0.2980 -0.0137 -0.1488
11609W        W27683   8.939   4.995   1.201  0.2468 -0.2931  0.1889
11610W        W27684  15.849   6.046   2.395 -0.1293  0.1916 -0.0180
11611W        W27685   6.835  12.099  14.361 -0.0763  0.1185 -0.2429
11612W        W27686  13.653  10.107   2.744 -0.4019 -0.0423 -0.0294
11613W        W27687  15.143  10.237   0.017  0.1527 -0.0069 -0.1242
11614W        W27688   3.598   4.184   6.245  0.1986 -0.0755  0.1554
11615W        W27689  17.019  18.140  13.685 -0.0216  0.3041  0.4599
11616W        W27690   2.253  17.490  16.256 -0.4075  0.0360 -0.0625
11617W        W27691   1.827   6.600   5.191  0.1123  0.0137 -0.1321
11618W        W27692  15.543  17.646  15.576 -0.2156 -0.1213  0.1951
11619W        W27693   5.110   1.726   2.587  0.0317 -0.1134 -0.0954
11620W        W27694  16.418   0.277   5.022  0.1109  0.1160 -0.0785
11621W        W27695   9.377   3.382   5.173  0.1807 -0.2766 -0.2513
11622W        W27696  17.169   6.416  13.991  0.1602 -0.2370 -0.0262
11623W        W27697   8.094  13.080   5.416 -0.0158  0.1681  0.2235
11624W        W27698   9.708   8.385  13.731  0.0660  0.5756  0.0302
11625W        W27699   5.143  10.061  12.920  0.0146  0.2456  0.3046
11626W        W27700  13.783   2.759  14.941  0.1657 -0.0257 -0.2570
11627W        W27701   4.736  10.250   0.123  0.0760  0.3187 -0.0578
11628W        W27702   1.937  17.528  11.893  0.0098 -0.0884 -0.0584
11629W        W27703  10.740   4.668   0.519  0.0446  0.0805 -0.1605
11630W        W27704  11.124   6.209   0.619  0.3628  0.1823  0.3426
11631W        W27705   6.644   4.565  15.545 -0.3492 -0.0921  0.3372
11632W        W27706  14.599  15.214  14.693  0.0472 -0.0508  0.2395
11633W        W27707  12.812   3.742  14.839 -0.0124  0.0773  0.0124
11634W        W27708  10.174   8.123  16.395  0.3788  0.0704  0.1353
11635W        W27709   4.897   4.882   3.938 -0.0126 -0.1223  0.2106
11636W        W27710  16.050  15.112  14.035 -0.0569 -0.2423  0.0610
11637W        W27711  11.442   0.373   4.216 -0.2449 -0.1289 -0.1310
11638W        W27712   1.133   2.721  11.740 -0.0562  0.1123  0.3401
11639W        W27713   7.435   5.619  15.924  0.1021 -0.1542  0.2106
11640W        W27714  12.935   7.578  13.165  0.1830  0.1826  0.2203
11641W        W27715   5.023  18.151  15.015  0.1510  0.3070  0.2171
11642W        W27716   5.477   1.419  11.759  0.1660 -0.0355  0.1997
11643W        W27717  10.145   1.050  13.627  0.3819 -0.0837  0.0469
11644W        W27718   2.616  14.974  14.785 -0.0632  0.2071  0.0638
11645W        W27719  15.768  13.250   4.798  0.1513 -0.0588  0.3134
11646W        W27720   5.144  15.391  14.554  0.2890  0.1216 -0.3097
11647W        W27721   9.746  13.546  13.442 -0.1245 -0.0885 -0.0427
11648W        W27722   2.098  11.712   1.007  0.2811  0.2177  0.1709
11649W        W27723  17.596   4.584  12.707 -0.1702  0.3035 -0.0403
11650W        W27724   8.657   0.274   2.304  0.1066  0.0037  0.0213
11651W        W27725  15.841   9.006   2.517  0.0318 -0.1285 -0.0706
11652W        W27726  16.565   2.623  12.858 -0.0634 -0.1592 -0.0766
11653W        W27727   8.990  17.621  11.181  0.2748 -0.3053  0.0406
11654W        W27728   8.107   4.099   5.035 -0.1466  0.2322 -0.1389
11655W        W27729   0.293   7.785   2.763  0.0517 -0.2015  0.0975
11656W        W27730   7.179  17.334  16.128 -0.1068  0.3562  0.0616
11657W        W27731   8.823   2.421   2.133  0.4326 -0.0029 -0.3858
11658W        W27732  13.066  17.886   4.088  0.1814  0.2969 -0.0801
11659W        W27733   3.415   5.942  14.421  0.2571 -0.0377  0.1832
11660W        W27734  17.615  17.808   6.687  0.0527  0.1132 -0.0792
11661W        W27735  12.606  17.668   2.889  0.2734 -0.1840 -0.3216
11662W        W27736  18.331   3.814   0.169 -0.1782  0.2179 -0.3925
11663W        W27737  12.958   0.904   4.355 -0.3994 -0.2365 -0.2942
11664W        W27738   1.111   1.726   0.140  0.1383 -0.0256 -0.3441
11665W        W27739   5.128  12.933   4.206 -0.0617  0.1001 -0.0833
11666W        W27740   3.549  14.930   3.126 -0.1457 -0.0710 -0.0162
11667W        W27741   2.571   8.301  13.593 -0.0074 -0.1456  0.1736
11668W        W27742   2.065   7.292   3.256  0.0848 -0.2848 -0.4507
11669W        W27743   8.510   2.858   1.239  0.1196  0.0334 -0.2352
11670W        W27744   4.031   7.291  14.680  0.2276  0.0873 -0.1363
11671W        W27745  15.982  11.615   4.568 -0.0383 -0.0165  0.2309
11672W        W27746   1.126   8.317   3.194 -0.1157  0.2454 -0.1828
11673W        W27747   1.521   7.753  14.051 -0.1605 -0.1183 -0.1319
11674W        W27748  10.289   2.628  15.794 -0.0887  0.1271  0.0494
11675W        W27749  12.732   8.991  13.176  0.1176 -0.1974 -0.4263
11676W        W27750   1.143  17.908  15.763  0.1129 -0.1258  0.1560
11677W        W27751  16.927  10.222  11.774  0.0227  0.2174 -0.2191
11678W        W27752  14.155  15.247   0.260  0.2573  0.3351  0.0534
11679W        W27753  16.729  17.729  13.596  0.2318  0.4455 -0.1325
11680W        W27754  17.872   6.548   2.765  0.0383 -0.0016  0.1429
11681W        W27755   9.480   1.076  11.786  0.2783 -0.2318 -0.2097
11682W        W27756  10.876   5.150   1.285 -0.1029  0.1194  0.0814
11683W        W27757   2.788   1.779  11.525 -0.0465  0.0154  0.1652
11684W        W27758  10.746  10.826   5.126  0.0901  0.2558 -0.1626
11685W        W27759   0.879   9.427   3.071 -0.0232  0.1522 -0.2088
11686W        W27760  10.284   1.733   5.729  0.0900  0.1341  0.0457
11687W        W27761   9.626  16.398   1.446 -0.4165  0.1751 -0.1265
11688W        W27762  10.634  14.618   4.502 -0.3693 -0.0932 -0.0273
11689W        W27763  10.692  13.210  11.712  0.3067 -0.2946 -0.1734
11690W        W27764  17.299   0.367  13.645  0.0099 -0.1696  0.0365
11691W        W27765   8.868  11.199   0.255  0.0980  0.0394  0.0593
11692W        W27766   5.048   2.976   6.131  0.1475  0.1488  0.1876
11693W        W27767   0.340   4.960  11.404 -0.0482 -0.1357 -0.0643
11694W        W27768   7.949  14.084  14.821  0.1514  0.4385 -0.0479
11695W        W27769  13.745   0.944   5.660  0.0565 -0.3559 -0.0474
11696W        W27770   3.648  10.980   5.238  0.0268 -0.1548  0.0397
11697W        W27771  17.048   2.979   1.126  0.2519 -0.1093  0.1162
11698W        W27772  12.494   7.745   1.949  0.0214  0.3171 -0.1899
11699W        W27773   5.367  10.022  13.836 -0.1326 -0.2199  0.1556
11700W        W27774   7.680  10.250  12.783  0.1495 -0.1429 -0.1089
11701W        W27775  10.723   9.487   5.669 -0.2038 -0.0970  0.0196
11702W        W27776  12.294  15.126   5.167 -0.3614 -0.0351  0.0827
11703W        W27777   5.649   4.660   0.726  0.0332  0.0409 -0.0094
11704W        W27778  12.693  14.946   2.597  0.2592 -0.0872  0.0642
11705W        W27779  14.136  14.869   5.043 -0.1540  0.1643  0.1962
11706W        W27780  12.700   6.884   2.297 -0.2440  0.3855 -0.0029
11707W        W27781   9.813  17.465  13.674 -0.1387  0.1946  0.0536
11708W        W27782   7.729  17.980   1.290  0.3038  0.0660 -0.2661
11709W        W27783  13.780   6.716   0.559  0.0633 -0.0995  0.0826
11710W        W27784   2.621   2.505  11.871 -0.2197  0.2174  0.0036
11711W        W27785   2.000  12.847   2.748 -0.0050  0.0676  0.0370
11712W        W27786   1.311   5.212   6.145  0.3068  0.3515 -0.2361
11713W        W27787  13.947  16.760   1.624 -0.2577 -0.1135 -0.0658
11714W        W27788  12.031  17.989  14.906 -0.0070  0.3071 -0.2162
11715W        W27789  16.663  15.150   4.072  0.2534  0.1825 -0.1968
11716W        W27790   8.050  10.537  12.761  0.2449 -0.0970 -0.0158
11717W        W27791   7.230  10.039   5.096  0.0812  0.1493 -0.0108
11718W        W27792   3.214   7.227  12.645  0.4099 -0.1415  0.0691
11719W        W27793   6.378  10.237   4.668  0.0669 -0.0369 -0.1854
11720W        W27794  10.775  13.909   5.626 -0.1839 -0.0064  0.1508
11721W        W27795  13.403  11.116  14.859 -0.0065 -0.0098 -0.0583
11722W        W27796   4.804   0.534   1.730  0.2183  0.2454 -0.0748
11723W        W27797  16.610   8.966   2.999  0.3265 -0.0097 -0.0925
11724W        W27798   6.926  12.883  15.027  0.1105  0.1805 -0.0102
11725W        W27799   0.950   0.622  15.150 -0.2655  0.0573  0.0082
11726W        W27800   1.139  15.784   3.719  0.0716  0.1995 -0.2520
11727W        W27801   8.069   3.550  11.377  0.1724  0.3964  0.2092
11728W        W27802  15.472   1.565  12.227  0.2073 -0.2931 -0.3446
11729W        W27803   8.685  15.051   5.571 -0.0561  0.0931 -0.1049
11730W        W27804   0.259   1.009  13.689  0.0077  0.0158  0.1189
11731W        W27805   5.017  12.524  16.125  0.2075  0.2328  0.0844
11732W        W27806   7.318  14.347  11.734  0.2365 -0.2888  0.1837
11733W        W27807   1.423   9.896  12.615  0.1837  0.1751 -0.4257
11734W        W27808  11.560   1.587  13.925  0.0465 -0.0997 -0.1616
11735W        W27809   9.919  17.702  10.957 -0.4433 -0.1111 -0.0679
11736W        W27810   0.339   9.552   5.545  0.0376 -0.2266 -0.0778
11737W        W27811  14.586  18.264   1.854  0.0317 -0.3014 -0.0250
11738W        W27812   9.897  16.120   4.645  0.0478  0.4345  0.5139
11739W        W27813  13.729   4.944   1.436 -0.3939  0.0048 -0.1761
11740W        W27814  10.710  17.883  14.561 -0.2004 -0.1651 -0.0263
11741W        W27815  15.382  15.526   0.808  0.0775  0.1094 -0.2161
11742W        W27816   9.686   6.565   4.915 -0.0570 -0.1092  0.3440
11743W        W27817   5.929   7.824   4.164 -0.0877  0.0753  0.3024
11744W        W27818  14.211   2.489  14.227 -0.3601 -0.1539 -0.1707
11745W        W27819   4.480  13.625  15.961 -0.1405  0.0995  0.0540
11746W        W27820  17.551   3.756   3.143 -0.2413  0.0541  0.2280
11747W        W27821   4.787   0.270   4.641 -0.0586  0.3961 -0.0638
11748W        W27822  14.258   6.732   4.310  0.2479 -0.0504 -0.3136
11749W        W27823  10.281  17.385   2.552  0.2549  0.1433 -0.0733
11750W        W27824   5.259  14.957  15.965  0.2110  0.2081 -0.1062
11751W        W27825   4.478   1.385  13.335  0.1598 -0.2300 -0.1245
11752W        W27826   2.464  17.849   4.589  0.1350  0.1883 -0.2848
11753W        W27827   3.252   8.723   0.155 -0.1445 -0.1189 -0.0682
11754W        W27828   2.712  16.580   0.014 -0.2491  0.1625 -0.0831
11755W        W27829   9.963   7.516   3.131 -0.0729 -0.2437 -0.1773
11756W        W27830  17.427  16.780   5.435  0.0582  0.2603 -0.0495
11757W        W27831   2.385  14.913  12.176 -0.1925 -0.0430  0.1265
11758W        W27832   0.404   9.414   6.113  0.3200  0.4101 -0.1780
11759W        W27833  17.139  13.221  12.818  0.1072 -0.2450 -0.1738
11760W        W27834   0.081  11.601  16.112 -0.0573 -0.0503 -0.1934
11761W        W27835   5.085  16.814   2.816 -0.0291 -0.1131  0.2627
11762W        W27836  12.280   5.190   1.510 -0.3077  0.4572 -0.3671
11763W        W27837   4.906   3.734   1.227  0.2098 -0.2718 -0.2708
11764W        W27838  12.093  10.111   3.541 -0.0982  0.0681  0.1148
11765W        W27839  17.068   3.893   3.984 -0.3302  0.0289 -0.0440
11766W        W27840  16.508   4.414   0.672 -0.3064  0.0665 -0.1142
11767W        W27841  15.319  11.752  12.304 -0.2530  0.1146 -0.0467
11768W        W27842  14.683  15.790   5.114  0.1515  0.2386 -0.3006
11769W        W27843  15.165  15.779  14.559 -0.0203 -0.0326  0.1170
11770W        W27844   9.823   6.980  12.753 -0.1970 -0.0031  0.3614
11771W        W27845  12.158   5.088  12.913 -0.3417  0.3573 -0.3006
11772W        W27846   0.413  12.957   3.629  0.1272  0.0350  0.1450
11773W        W27847  11.280   1.219   4.365 -0.1573  0.1663 -0.1584
11774W        W27848  10.950   2.384   3.507 -0.1421 -0.1257  0.2670
11775W        W27849  14.648   6.564  13.182  0.0121  0.1415 -0.0664
11776W        W27850  17.686  17.680   2.455  0.1187 -0.0224 -0.4913
11777W        W27851  15.123  17.278   4.193  0.1814 -0.1327  0.3856
11778W        W27852  12.045   2.714   5.285 -0.2251  0.0569  0.1029
11779W        W27853   9.328   2.867  11.015 -0.0548 -0.0247  0.3042
11780W        W27854   7.024   9.707  16.141 -0.2931 -0.1457  0.1058
11781W        W27855  12.291  16.552  11.732  0.2850  0.2365 -0.2050
11782W        W27856   2.225  16.001  15.557 -0.1007 -0.2055 -0.1036
11783W        W27857   6.248  18.031  12.649 -0.2544  0.1292  0.2276
11784W        W27858   3.299   0.536   5.410 -0.3385  0.1198 -0.2383
11785W        W27859  14.104   8.544  16.161 -0.2343 -0.0508  0.0557
11786W        W27860  17.448  14.237   2.301  0.0259 -0.0333  0.0150
11787W        W27861   7.760  13.207   0.101  0.1317 -0.2044 -0.1520
11788W        W27862   9.752  13.989   0.484 -0.0065 -0.0329 -0.2719
11789W        W27863  11.760   0.839  12.012  0.0033 -0.1310  0.1475
11790W        W27864   6.856   8.012  11.316 -0.0545  0.1697 -0.4813
11791W        W27865  11.042   9.128  16.357 -0.0609 -0.1938 -0.5145
11792W        W27866  12.766   4.118  13.341 -0.3405  0.4121 -0.1501
11793W        W27867   4.709   8.691   3.245  0.0483 -0.1561  0.4961
11794W        W27868   7.372  17.925   3.626  0.1469  0.2923  0.0552
11795W        W27869   0.515  16.966  16.372  0.5252  0.0184 -0.1569
11796W        W27870   3.828  10.575  14.949 -0.0335 -0.1422 -0.1624
11797W        W27871  12.673   8.484   0.185  0.1650 -0.0895  0.3731
11798W        W27872  13.620  12.503   3.789  0.0355 -0.1308  0.0280
11799W        W27873   8.282  17.964  13.125 -0.0617 -0.0180 -0.0845
11800W        W27874   9.551   6.974   5.370  0.1949 -0.1791  0.2227
11801W        W27875   7.050  12.217   6.504 -0.2192  0.2002  0.2002
11802W        W27876  17.675  13.909   5.310 -0.1236  0.2833  0.0500
11803W        W27877  15.216   7.283   5.616 -0.2641  0.3130 -0.3081
11804W        W27878   5.922   7.163   3.255 -0.0831 -0.0338 -0.2138
11805W        W27879   3.822   4.208  12.029 -0.1923  0.1313  0.0972
11806W        W27880   1.848   7.137   1.316  0.1669  0.1382 -0.1011
11807W        W27881  17.549   8.643   4.303  0.1298  0.0432 -0.1029
11808W        W27882   0.401   8.266   1.379  0.1422  0.2088 -0.4765
11809W        W27883   9.085  18.002   1.898  0.1948 -0.4050  0.1576
11810W        W27884  18.035  17.382  12.236  0.1949 -0.5042 -0.0318
11811W        W27885  10.141  12.787   4.031  0.0907  0.0219 -0.0857
11812W        W27886  15.178  14.840  11.674  0.0394  0.2604 -0.2207
11813W        W27887  10.038   2.040  14.502  0.0700 -0.0525 -0.1668
11814W        W27888  16.808   9.601   0.039  0.3306  0.2710 -0.1003
11815W        W27889  17.729   9.810   3.596 -0.1868 -0.1286 -0.1691
11816W        W27890  11.127  14.285   2.259 -0.1079  0.1320 -0.0543
11817W        W27891  15.925   6.655   5.514 -0.4970  0.3126  0.0861
11818W        W27892  11.343  13.304   1.790  0.2642 -0.0085 -0.1099
11819W        W27893   9.304   4.541   5.997 -0.0077  0.4055 -0.0472
11820W        W27894   3.388   8.878  11.561  0.0585 -0.0924  0.1857
11821W        W27895  11.849  16.128   2.683  0.2382 -0.0708  0.2517
11822W        W27896   4.079  14.125   3.126  0.0588  0.0403 -0.0223
11823W        W27897  14.835  16.565   3.069 -0.1116  0.0178 -0.0542
11824W        W27898   6.118  11.857  12.820 -0.2807 -0.2543 -0.5695
11825W        W27899   9.490  17.967  12.357  0.1959 -0.0377  0.0904
11826W        W27900   7.161  12.470  12.444 -0.2934 -0.2587  0.2752
11827W        W27901  10.194   9.506   1.931  0.1330  0.0775  0.3287
11828W        W27902  16.023  12.747  16.094 -0.1194  0.1742 -0.0516
11829W        W27903  13.727   7.830   2.291 -0.2709 -0.2857 -0.1377
11830W        W27904  16.543   0.214   4.546  0.0904 -0.1095 -0.2675
11831W        W27905  11.183  11.377   3.358  0.2949  0.3046 -0.1337
11832W        W27906  13.382   1.014  10.791 -0.1240  0.0045 -0.1000
11833W        W27907  12.045  14.518  14.334  0.0366 -0.0220 -0.3193
11834W        W27908  10.207   7.981  12.998  0.0050 -0.2359 -0.0834
11835W        W27909  14.512  17.565  12.524  0.0685 -0.1973 -0.1630
11836W        W27910  13.196   7.633  14.767 -0.1900 -0.2039  0.3401
11837W        W27911  10.202   8.308  15.236 -0.0921 -0.2207 -0.0882
11838W        W27912   6.478   1.145  13.231  0.0203  0.3356 -0.0321
11839W        W27913   9.396  13.110  13.787  0.3224 -0.3496 -0.1618
11840W        W27914  15.711  18.307  12.750 -0.2311  0.1182 -0.0763
11841W        W27915   8.824   5.854  12.888 -0.2174 -0.0487 -0.0757
11842W        W27916   7.924  13.205  13.743 -0.2697  0.1302  0.1110
11843W        W27917   1.875   9.186  12.264  0.2730  0.0296 -0.2259
11844W        W27918  12.934  17.536  14.717  0.1030 -0.0063  0.0477
11845W        W27919   1.284   8.466   5.312  0.1448 -0.3228 -0.2942
11846W        W27920   7.148  11.436   1.479 -0.0312 -0.1588 -0.2247
11847W        W27921   5.815   3.921   0.483 -0.0047  0.0362 -0.2771
11848W        W27922   5.690  15.640   4.510  0.2390 -0.0521  0.0205
11849W        W27923  16.722  16.298  13.802 -0.1594 -0.0065  0.1435
11850W        W27924  10.065  15.818  13.245  0.0079  0.1851 -0.0803
11851W        W27925  11.048   0.510  13.053  0.2429  0.2497  0.0590
11852W        W27926   0.318  10.545   4.266 -0.0186 -0.1660  0.2342
11853W        W27927   0.812   4.493  15.103 -0.4165 -0.1281  0.1444
11854W        W27928   4.653   5.255  14.383 -0.0995  0.3636 -0.0855
11855W        W27929   5.193  10.861   1.737 -0.1457  0.0190 -0.1250
11856W        W27930  17.652   6.804   1.921  0.0348  0.4095  0.0682
11857W        W27931   6.689   7.880  13.243  0.0640  0.0948  0.1039
11858W        W27932  12.298   3.090   1.219 -0.1988 -0.0278  0.1585
11859W        W27933  13.848  11.496   3.143 -0.1099 -0.2236  0.1434
11860W        W27934   8.439   3.897  11.168  0.1054  0.3138 -0.0219
11861W        W27935  15.393  11.809   5.577  0.2069  0.0449 -0.0989
11862W        W27936   5.662   7.224   1.708 -0.2151 -0.0674 -0.1112
11863W        W27937  10.740   6.587  14.100 -0.0394 -0.2849 -0.1824
11864W        W27938   9.173  14.262  12.890 -0.1389  0.0363 -0.1666
11865W        W27939   6.515   6.462  16.230 -0.3086 -0.1229  0.1473
11866W        W27940   9.200   2.761  11.542  0.1010  0.1917 -0.2124
11867W        W27941  12.667   3.189  11.449  0.4134  0.1760  0.0515
11868W        W27942   3.282  11.992   2.410 -0.1261  0.4914 -0.1702
11869W        W27943   1.696   4.177  11.444 -0.0924  0.1777  0.1241
11870W        W27944  12.937  16.211  13.718  0.0137  0.0160 -0.2248
11871W        W27945   9.384  10.928  14.640 -0.3662 -0.1272 -0.0888
11872W        W27946   3.200  11.186   5.977  0.1980 -0.1223 -0.1186
11873W        W27947  12.346   7.310   5.060  0.0190 -0.2536 -0.5095
11874W        W27948  15.540  16.703   5.461  0.0797  0.0103  0.1403
11875W        W27949   8.224   1.160   4.524  0.0971 -0.0477 -0.0644
11876W        W27950  10.733  15.526   2.824 -0.0803  0.0750  0.1260
11877W        W27951  11.721   7.351  11.435 -0.1000 -0.3643  0.1852
11878W        W27952   0.047   4.466  16.364  0.2318 -0.0260  0.1413
11879W        W27953   0.404  15.486   5.704  0.0199  0.1825 -0.0786
11880W        W27954   5.507   6.177  15.038 -0.1505  0.2866  0.1281
11881W        W27955  14.265  16.908  14.619 -0.2276  0.1778  0.1063
11882W        W27956   8.037   0.579  15.803  0.0102  0.0530 -0.2413
11883W        W27957  11.545   8.968   2.245  0.2391  0.2120 -0.3737
11884W        W27958  14.865  16.433   2.118 -0.0442  0.4000  0.1207
11885W        W27959   8.805  12.643  16.374  0.0783  0.0164 -0.0406
11886W        W27960   9.225   5.572   3.646 -0.0150  0.1326 -0.0977
11887W        W27961  11.833  10.172  13.308  0.2779  0.1501 -0.0813
11888W        W27962  16.646   9.209   4.016 -0.2048  0.2382  0.0837
11889W        W27963   7.973   8.303   3.589 -0.1988 -0.4387  0.0896
11890W        W27964   3.690   6.834   2.057  0.1630 -0.3036 -0.0421
11891W        W27965  18.069  16.978  15.197 -0.1841  0.2471 -0.0491
11892W        W27966   9.637  12.670   5.065 -0.2087  0.1243 -0.0067
11893W        W27967   3.398  13.461  12.716 -0.3993  0.2711 -0.2385
11894W        W27968  17.805  17.258   5.357 -0.2078 -0.1389  0.2173
11895W        W27969   1.729   7.681  16.198  0.4329  0.0776  0.2792
11896W        W27970  15.894  12.970  14.173 -0.1181  0.0761  0.0272
11897W        W27971   7.606   9.374  15.296 -0.2714 -0.0164 -0.0902
11898W        W27972   2.267  17.359   4.722 -0.0092  0.0468 -0.1847
11899W        W27973  16.478  16.674  11.584 -0.2272  0.1021  0.2251
11900W        W27974   0.532   0.199  15.260 -0.3516  0.1353  0.2122
11901W        W27975  11.519  17.553   3.812  0.1183 -0.0228 -0.3911
11902W        W27976  11.826  15.005   3.704 -0.1374  0.2630 -0.1765
11903W        W27977   2.601   3.706   4.472  0.1362 -0.0463  0.2100
11904W        W27978   5.564  14.252  15.546  0.1571  0.1295 -0.2732
11905W        W27979   9.999   7.667   5.366 -0.3033 -0.1065 -0.2658
11906W        W27980   5.300   8.430  15.993 -0.0879  0.0314 -0.0066
11907W        W27981   6.501  16.047  15.202  0.0551  0.1149  0.1101
11908W        W27982  17.972   4.697   3.153 -0.2436  0.3263 -0.2056
11909W        W27983  16.783  11.468   5.673  0.2322  0.2561  0.0694
11910W        W27984   8.835  10.020   4.583 -0.2055  0.2804  0.1429
11911W        W27985  15.194  15.545   4.153  0.2481 -0.0281  0.1113
11912W        W27986  12.569  12.098   3.596 -0.1221 -0.0472 -0.0907
11913W        W27987  13.071  12.149   1.234  0.1038  0.1370  0.3101
11914W        W27988  14.313   9.725  16.097 -0.2549 -0.2020 -0.1010
11915W        W27989   9.755  10.751   1.435  0.2418 -0.2839  0.1722
11916W        W27990   3.546   0.207   3.075 -0.4196 -0.0486  0.0298
11917W        W27991  10.157   2.554   5.459  0.2782 -0.0652 -0.0304
11918W        W27992  13.141   3.410  13.862 -0.1701  0.1168  0.0591
11919W        W27993  15.026   9.198   4.560 -0.1046  0.1192 -0.0397
11920W        W27994   8.530  12.680  15.944  0.1443 -0.2051  0.2736
11921W        W27995   0.621   8.203  13.473  0.1777 -0.3371 -0.1192
11922W        W27996   1.081  10.058  12.300  0.2713  0.1298 -0.0947
11923W        W27997   7.875  11.292  13.836  0.2766  0.0121 -0.0052
11924W        W27998   1.810   6.342   4.740  0.0501  0.0315 -0.3130
11925W        W27999   2.050  12.278  14.675  0.1776 -0.1291  0.2472
11926W        W28000   8.012   5.108  15.609  0.0830 -0.3382  0.1585
11927W        W28001  13.525  13.508  14.676 -0.0836 -0.2999 -0.1727
11928W        W28002   5.372   0.738  15.122 -0.1339 -0.2360 -0.3383
11929W        W28003  10.894   3.350   4.663 -0.1516 -0.1882  0.0913
11930W        W28004  11.299   1.065   4.862 -0.0920 -0.1631  0.2022
11931W        W28005   9.131   0.389   1.253  0.0239 -0.0456  0.0975
11932W        W28006   1.648   1.321  11.968 -0.0688  0.0144  0.0974
11933W        W28007  14.816  11.212   4.386  0.4405 -0.0985  0.1898
11934W        W28008   9.939  17.026  13.531 -0.0420 -0.1284 -0.0525
11935W        W28009  17.617   5.223   4.024  0.0848  0.0855 -0.3059
11936W        W28010  11.018   4.243  14.680 -0.0209  0.0161 -0.1580
11937W        W28011   2.120   8.131   2.465  0.2446  0.0958  0.0362
11938W        W28012  12.076   6.823  14.354 -0.2339 -0.0332  0.1365
11939W        W28013  15.975  16.012   0.163  0.1343 -0.5299  0.1047
11940W        W28014   8.831   1.461   5.352 -0.1916  0.0118  0.1787
11941W        W28015  11.454   9.775   2.829 -0.1725  0.1752  0.0949
11942W        W28016  11.736   2.994  16.170 -0.0003 -0.1663 -0.0476
11943W        W28017  13.004   7.052   3.760  0.2592  0.1107  0.2805
11944W        W28018  10.943  12.311   2.089  0.1303 -0.1599  0.3032
11945W        W28019   3.923   3.881   1.693  0.0413  0.4636  0.2000
11946W        W28020   0.394   1.427   0.507 -0.0364  0.0221  0.0836
11947W        W28021  18.094   6.149  14.939 -0.2226  0.3344 -0.1101
11948W        W28022   6.245   0.215  12.642  0.0536 -0.2389  0.1809
11949W        W28023   4.807  14.058   0.448  0.1378 -0.1377 -0.1987
11950W        W28024   4.253   6.460   2.388  0.0999 -0.1443 -0.0434
11951W        W28025  15.824   8.436  13.260  0.1451  0.3332 -0.0393
11952W        W28026  13.906   0.382   0.720  0.0188  0.0398 -0.2224
11953W        W28027   2.677   4.569   1.915  0.0168 -0.0690  0.0927
11954W        W28028  14.772  10.111  14.903  0.0691 -0.0024  0.2136
11955W        W28029   2.354  10.468   3.924 -0.1542 -0.0136 -0.3127
11956W        W28030  18.099  10.386   3.042 -0.0090  0.2850  0.1211
11957W        W28031   0.966  18.083  14.414 -0.2383  0.1215 -0.2932
11958W        W28032  12.112  12.102   5.239  0.1468 -0.0115  0.2088
11959W        W28033  18.226   3.338  12.606  0.1962 -0.0915 -0.2737
11960W        W28034   8.011  15.245   2.098  0.1414  0.1469 -0.0822
11961W        W28035   4.485   9.409  12.894 -0.0061  0.3468 -0.2643
11962W        W28036   7.278  15.856   4.518 -0.1285 -0.0045 -0.1445
11963W        W28037  18.068  16.347   1.968  0.1920 -0.1774  0.0834
11964W        W28038  12.224  16.469   4.882  0.1596  0.3836 -0.1033
11965W        W28039   2.798   6.378  11.862  0.1450  0.1735 -0.1160
11966W        W28040  10.175   2.213  15.520 -0.0453  0.1378  0.0799
11967W        W28041   0.608   2.071   1.628  0.0298 -0.2297  0.2213
11968W        W28042   0.131  13.109   1.648 -0.2175  0.0995 -0.0518
11969W        W28043  10.877   1.189  11.760  0.3420  0.0141 -0.2296
11970W        W28044   2.553  17.437  13.586  0.1172 -0.1798 -0.2306
11971W        W28045  12.834  10.111  14.196  0.1905 -0.1374  0.4450
11972W        W28046  15.645   6.490   1.045 -0.3337 -0.0255  0.0447
11973W        W28047   7.779   6.921  10.981  0.0010  0.2430  0.1181
11974W        W28048  15.915   9.358  15.261  0.2400 -0.4196  0.3293
11975W        W28049  16.327   2.428   4.893  0.1327 -0.0956  0.0625
11976W        W28050  12.046  11.932  14.541  0.0044 -0.0296  0.0413
11977W        W28051  12.729  11.455  13.598 -0.0215 -0.1109  0.0130
11978W        W28052  11.396   5.652   0.014  0.0903 -0.0628 -0.0465
11979W        W28053   8.868   3.706  11.344 -0.1822  0.1272 -0.0394
11980W        W28054  15.716   9.272  15.725  0.1043 -0.0930  0.0462
11981W        W28055  14.875  12.670  13.954 -0.1049 -0.0487 -0.1363
11982W        W28056  10.594   1.876  10.513 -0.1932 -0.0045 -0.3625
11983W        W28057   3.484   3.430   4.478  0.0591 -0.2214  0.0523
11984W        W28058  11.160   4.928   1.810 -0.0129 -0.2010 -0.3113
11985W        W28059   5.908   9.920   3.467  0.0661 -0.2877  0.0037
11986W        W28060   6.858  18.310  13.335 -0.0304  0.0662 -0.0920
11987W        W28061   8.276   5.477   3.629  0.0404 -0.0349  0.0030
11988W        W28062   2.029  10.023  11.408  0.1639 -0.0610  0.3031
11989W        W28063  18.018  13.756  10.961 -0.0092  0.1063 -0.1712
11990W        W28064   2.734   8.993  14.362  0.0620  0.4583  0.1064
11991W        W28065  13.520   4.115   3.146 -0.1797  0.1533  0.2199
11992W        W28066   1.342   5.576   3.718 -0.1519  0.0321  0.0795
11993W        W28067  13.968  13.817  13.799 -0.0639 -0.0463  0.2936
11994W        W28068   2.635   5.425   0.519 -0.0344  0.0187 -0.0950
11995W        W28069  13.512  12.056  13.930  0.0927  0.1416 -0.2566
11996W        W28070  12.595   1.352   1.896 -0.0695 -0.0297  0.1828
11997W        W28071   3.230   9.583   1.606 -0.0406 -0.0560 -0.0593
11998W        W28072   4.744  15.418   1.757 -0.1005 -0.0968 -0.0130
11999W        W28073   1.886   4.802  14.821  0.1979  0.0234  0.1339
12000W        W28074  12.391  16.169   6.032  0.1112  0.1007 -0.0942
12001W        W28075  12.536  11.249   0.865  0.2005  0.6222 -0.1820
12002W        W28076   1.045  17.310  11.873  0.1474  0.0849  0.1138
12003W        W28077  12.248   0.698  12.814 -0.0480  0.0371 -0.2382
12004W        W28078   1.345   4.516   3.166 -0.1236 -0.0204  0.0766
12005W        W28079   0.938   4.739   2.114 -0.1774  0.1751  0.4165
12006W        W28080   6.466   5.708  14.800 -0.3160  0.5521 -0.1446
12007W        W28081   8.969   9.871   1.293 -0.1367  0.1123 -0.1248
12008W        W28082   3.995   9.435   0.940 -0.1790  0.2467 -0.3296
12009W        W28083   4.067   4.810  13.221 -0.0067 -0.0433  0.0689
12010W        W28084   8.931  15.685  16.103 -0.1242  0.2728  0.0358
12011W        W28085   4.127   0.381   3.777  0.0214 -0.0542  0.1582
12012W        W28086  13.716  12.695  12.163 -0.0647 -0.4211  0.0703
12013W        W28087  10.909  11.934   3.171  0.0590  0.3514 -0.2251
12014W        W28088   5.371  12.410   1.664  0.0898  0.0267 -0.0319
12015W        W28089  12.937  16.401   5.174 -0.0167  0.0003 -0.1559
12016W        W28090   8.759   9.035   1.763 -0.0342  0.0966 -0.0855
12017W        W28091  12.608  13.638   0.537  0.2249 -0.0701 -0.0738
12018W        W28092   9.844   6.694  14.139  0.0516  0.0930 -0.1373
12019W        W28093   9.387   1.805   0.148  0.2449 -0.2549  0.1947
12020W        W28094   5.293   4.801  11.315  0.0231 -0.0350  0.1509
12021W        W28095  12.217   3.238  16.150 -0.0107 -0.1179 -0.0364
12022W        W28096  11.888  14.324  15.384 -0.3279  0.0563 -0.0322
12023W        W28097   5.525  14.622   5.399  0.0079  0.0099 -0.2396
12024W        W28098  14.695   1.386   1.239 -0.1878  0.1056 -0.1007
12025W        W28099  14.900  18.325  15.516  0.1093 -0.4217 -0.5113
12026W        W28100   1.125  11.237  14.322  0.3423  0.0835  0.0323
12027W        W28101   5.212   3.287   4.658 -0.1372 -0.0727 -0.0920
12028W        W28102   4.807  11.614   2.883 -0.2694  0.2349 -0.0491
12029W        W28103  11.113   6.718   0.032 -0.3269  0.0868  0.2160
12030W        W28104  11.660  17.699   3.289  0.0412 -0.0124  0.1627
12031W        W28105  10.550  15.560  12.465  0.1379 -0.0619  0.1254
12032W        W28106   5.071   0.907  15.606 -0.2893  0.1864 -0.0059
12033W        W28107   6.606  13.453   2.611  0.1383 -0.1779  0.0462
12034W        W28108   6.221  17.537  15.783 -0.5529  0.2433 -0.0150
12035W        W28109   6.065   7.715   5.432 -0.0171  0.0848 -0.1003
12036W        W28110   0.021   0.799  14.742 -0.1663  0.2337 -0.1371
12037W        W28111  15.495   9.751   1.992 -0.0933 -0.1734 -0.0133
12038W        W28112   4.933   9.126   0.782  0.0345 -0.4208 -0.3304
12039W        W28113  12.999   7.911  14.417 -0.2099 -0.1930 -0.0631
12040W        W28114  15.692   3.709   3.526 -0.1043 -0.0916 -0.0936
12041W        W28115   2.942  10.089  12.023 -0.2090 -0.4308 -0.1657
12042W        W28116  11.536  11.734  14.327  0.1621  0.0004 -0.1040
12043W        W28117  13.338  16.244   5.435 -0.2486 -0.0672 -0.0225
12044W        W28118   3.087   2.913  12.467 -0.1083 -0.1703  0.2677
12045W        W28119  18.051   6.163   1.929  0.1446  0.2225  0.0653
12046W        W28120  13.606  10.498  12.184 -0.2017 -0.1236  0.0367
12047W        W28121   8.465  15.572  11.899  0.0679  0.2464 -0.0428
12048W        W28122  14.265  13.885  15.048 -0.0727 -0.0542 -0.0148
12049W        W28123  18.084   3.428  13.405 -0.1377  0.2615  0.1213
12050W        W28124  16.786   4.512   4.923 -0.1734  0.3238  0.2131
12051W        W28125   6.857  15.240   1.215 -0.0044  0.3703  0.0289
12052W        W28126  11.488   5.585  15.697 -0.2276  0.1320 -0.0280
12053W        W28127  18.308  14.711  16.237  0.3853  0.4216 -0.1054
12054W        W28128  13.591   2.167  12.857 -0.0552 -0.1576 -0.2951
12055W        W28129   6.125  12.927  16.141 -0.1416 -0.1009 -0.0330
12056W        W28130   6.122  16.447   2.025 -0.1847  0.2355 -0.2511
12057W        W28131  15.505  13.656  12.561  0.2192 -0.0606  0.2119
12058W        W28132   8.846  11.856   0.146  0.1570  0.2715  0.2267
12059W        W28133   5.779  11.248  15.352  0.2192  0.1515  0.1961
12060W        W28134   0.982   1.186  14.605  0.1123  0.1676  0.1014
12061W        W28135  10.853   6.086   9.550  0.0845  0.3451  0.0961
12062W        W28136  12.863   9.896   1.478 -0.3191 -0.0439 -0.1987
12063W        W28137   0.310   5.453  10.588  0.0315 -0.1374 -0.1350
12064W        W28138  10.237   4.222   6.175  0.3370  0.2610 -0.0309
12065W        W28139  13.275  13.935  14.795 -0.0202  0.0898  0.3918
12066W        W28140   6.075  10.448   5.803 -0.1447 -0.0747  0.1050
12067W        W28141  17.526  13.749  15.925 -0.2299  0.1321  0.1238
12068W        W28142  16.720   8.910  12.471 -0.1557 -0.0588  0.3636
12069W        W28143   6.295   1.674   3.120 -0.1556  0.1589  0.1144
12070W        W28144  17.924   2.451   6.577  0.0096  0.0648  0.0552
12071W        W28145   4.701  16.871   1.975 -0.2678  0.0842  0.0287
12072W        W28146  12.806  10.261  15.563 -0.0149  0.0280 -0.0495
12073W        W28147   5.931   9.197  16.092  0.2628  0.0010 -0.1535
12074W        W28148  11.210  13.594   2.342 -0.1106 -0.1592  0.0046
12075W        W28149   4.268   9.697   0.589  0.0503 -0.2679 -0.1088
12076W        W28150  17.146   2.559   0.471  0.2373 -0.0139 -0.0587
12077W        W28151  16.676   4.387  11.557 -0.0857 -0.2617 -0.2279
12078W        W28152   9.889   9.635   1.530 -0.0781 -0.1061 -0.1779
12079W        W28153   6.397  11.206   1.003 -0.1715  0.4590  0.0485
12080W        W28154   2.729   3.047  15.816  0.0896 -0.0777 -0.1142
12081W        W28155   1.011   7.258  14.330 -0.0189 -0.0128  0.1371
12082W        W28156   8.004   2.135   1.299  0.4121 -0.1869 -0.4120
12083W        W28157   8.814  12.472   4.098 -0.3135  0.2401  0.0925
12084W        W28158   1.659   6.645  13.377 -0.0355 -0.4976  0.1647
12085W        W28159   3.349  11.942   1.192  0.2311  0.2180  0.1951
12086W        W28160   8.473  16.817  12.314 -0.0960 -0.0243  0.4177
12087W        W28161   7.620  14.687   3.905 -0.0132  0.1022  0.0691
12088W        W28162   8.900   2.958  10.122  0.0983  0.5434 -0.3496
12089W        W28163  16.020   1.846   2.701  0.0174  0.2252 -0.0457
12090W        W28164   8.007   0.454  14.492  0.0988  0.0775  0.1139
12091W        W28165  17.398   9.095   4.351 -0.2305 -0.1016 -0.3455
12092W        W28166  11.540   6.178  10.832  0.1093  0.1962 -0.0822
12093W        W28167  12.707  13.882  12.986 -0.0743 -0.0931  0.0854
12094W        W28168  15.980  11.950   2.256  0.0070 -0.0617 -0.0013
12095W        W28169  18.183   9.375   4.803  0.1048  0.1363  0.2132
12096W        W28170   7.118   7.330  14.205 -0.2523  0.2659  0.1570
12097W        W28171   7.854  16.783   4.145 -0.1696 -0.0023 -0.3694
12098W        W28172   7.920   0.089   2.429  0.0475 -0.0644  0.2067
12099W        W28173  12.295   8.626   5.757  0.0833  0.2846 -0.0367
12100W        W28174   5.295   9.511   0.918  0.0236  0.2052 -0.0700
12101W        W28175   4.638   4.906  15.069  0.3141  0.1714  0.3210
12102W        W28176  12.138   2.039   2.928  0.2873 -0.1074  0.2541
12103W        W28177  15.720  10.912  11.355 -0.0278 -0.2059 -0.5076
12104W        W28178   0.751  18.229   2.577 -0.0445  0.3080 -0.1900
12105W        W28179  17.842   8.953   3.416 -0.0070 -0.0720  0.2744
12106W        W28180  15.164  10.975  12.629  0.0993 -0.3594  0.2442
12107W        W28181  17.172   6.533   2.040 -0.2914  0.0096  0.1931
12108W        W28182   0.444  10.952   1.724  0.2240 -0.1366  0.1701
12109W        W28183  16.290   2.882   0.563  0.0671  0.3296 -0.1459
12110W        W28184   7.028   9.233  12.150 -0.0685  0.2568  0.3740
12111W        W28185   1.711   3.817   0.605  0.0936 -0.3713 -0.2970
12112W        W28186   2.558   0.233  13.540 -0.1527  0.0225  0.0109
12113W        W28187  16.244   7.846  12.390 -0.2132 -0.1156 -0.2642
12114W        W28188  12.831   0.411  15.908 -0.1224  0.0916  0.0670
12115W        W28189   6.094   9.208   1.607 -0.1273 -0.0388 -0.0470
12116W        W28190  11.231   1.090  13.367  0.1833 -0.0986 -0.0117
12117W        W28191   1.514   4.442   5.743 -0.5170  0.0757  0.1827
12118W        W28192   4.607  17.201   5.136 -0.0070 -0.2252 -0.0806
12119W        W28193  11.302  10.898  13.837  0.0764 -0.0860  0.0844
12120W        W28194  11.809   4.342   5.054 -0.0871  0.0554 -0.0690
12121W        W28195  10.715   4.345   1.087 -0.2906 -0.2030 -0.1809
12122W        W28196  13.234   6.920  13.201  0.0030  0.0735 -0.0170
12123W        W28197   8.616  11.676   0.551  0.2576 -0.2413  0.4837
12124W        W28198   6.978   7.745  12.409  0.0545 -0.2851  0.0815
12125W        W28199   1.394   5.962  14.023 -0.3452 -0.0465 -0.1714
12126W        W28200   5.371   9.666  13.372 -0.0426  0.1408  0.2052
12127W        W28201  17.071   0.342   4.423  0.2511 -0.2255 -0.1229
12128W        W28202  13.000  14.226  13.174 -0.0377  0.0843  0.0430
12129W        W28203   0.381  13.335   0.405  0.1001 -0.1279 -0.2219
12130W        W28204  17.410  18.190  12.781 -0.2415  0.0154  0.2324
12131W        W28205  13.888  11.508  12.782  0.2614  0.0272  0.0916
12132W        W28206  10.899   4.853  12.256 -0.0974 -0.0294 -0.2999
12133W        W28207  17.312   9.578  12.938  0.1246 -0.2569  0.1053
12134W        W28208  15.528  17.167  15.618 -0.0628  0.1628 -0.2884
12135W        W28209   4.546  12.051  13.448  0.0435  0.0544 -0.4808
12136W        W28210   0.796   8.617   3.540 -0.1375  0.0229  0.1428
12137W        W28211  10.695   1.562  14.938 -0.2940  0.1822  0.0604
12138W        W28212  12.624   7.334   0.737  0.1962 -0.1992 -0.2304
12139W        W28213  10.522   9.038   0.147 -0.2998  0.2619 -0.3478
12140W        W28214  13.492   4.269   1.722  0.0295  0.3365  0.0374
12141W        W28215   2.343   8.475   4.060  0.4584  0.0364 -0.4060
12142W        W28216  15.988   1.870  14.082  0.0146 -0.2164 -0.2119
12143W        W28217   6.846  15.816  11.766  0.2049 -0.2204  0.0593
12144W        W28218   5.166  16.391   1.832  0.0231  0.1009 -0.2857
12145W        W28219   1.164  10.074   3.414 -0.2045  0.0329 -0.2293
12146W        W28220   5.700   5.276  15.115 -0.1807 -0.1969  0.2836
12147W        W28221  16.542  16.629   0.294  0.1052  0.0087 -0.2450
12148W        W28222  15.076   4.107   2.855  0.0822  0.2505 -0.0671
12149W        W28223  18.023  12.375   4.507  0.2272  0.2585  0.1522
12150W        W28224  13.768   6.571  14.471 -0.2381 -0.1949 -0.1079
12151W        W28225  11.754   7.974   1.345 -0.0306  0.0548  0.0805
12152W        W28226  16.424   3.766  12.217  0.0794  0.3405 -0.1053
12153W        W28227  13.393   6.065   3.464  0.0836 -0.2508 -0.1781
12154W        W28228   2.193  18.250  13.315  0.0646 -0.2252 -0.0049
12155W        W28229   7.880   0.824   3.257  0.2328  0.3387 -0.1875
12156W        W28230  10.313   2.040  13.719 -0.3815  0.0424  0.1625
12157W        W28231   9.671  16.735  16.071 -0.1922 -0.1284 -0.0090
12158W        W28232   8.301   3.935  15.770 -0.0307  0.3235 -0.1510
12159W        W28233   0.692   9.362  12.783  0.0959 -0.2045  0.0804
12160W        W28234  14.480   6.684   5.329 -0.1467  0.0288 -0.1232
12161W        W28235  15.871   9.058   0.735  0.3072  0.1819  0.2472
12162W        W28236   8.769  10.554   4.470 -0.1149 -0.1038  0.4109
12163W        W28237  12.905  10.904  12.487  0.1270 -0.1440  0.1760
12164W        W28238   0.449   8.619  15.435 -0.2837 -0.2344 -0.2651
12165W        W28239   8.712   6.699   4.329  0.1626  0.1261 -0.2393
12166W        W28240  11.305   4.644  11.361 -0.3540  0.4467  0.0434
12167W        W28241  16.820   0.126   1.962  0.4026 -0.0147  0.3420
12168W        W28242  12.846   4.659  12.139 -0.2293 -0.0946 -0.2055
12169W        W28243   7.468   1.377  13.960 -0.0933 -0.0085 -0.2880
12170W        W28244   8.461   6.939   2.229 -0.0704  0.0808 -0.2039
12171W        W28245  10.408   6.120  15.607  0.1549  0.1252 -0.1041
12172W        W28246  16.236   5.659   4.613 -0.0108 -0.0258  0.2692
12173W        W28247  18.263  10.551  11.867 -0.1555 -0.1220 -0.1507
12174W        W28248   0.611   2.856  11.546  0.1876  0.0737  0.0019
12175W        W28249   8.533   0.644   0.328  0.2085  0.0766 -0.1308
12176W        W28250  14.004   8.860  15.148 -0.3021 -0.4199 -0.0606
12177W        W28251  15.251   4.734   0.339  0.1942  0.2307  0.0019
12178W        W28252   7.227   5.960  14.119  0.2421  0.2239 -0.1977
12179W        W28253  16.047  15.475  12.974  0.2910  0.3038 -0.1466
12180W        W28254  17.701   8.099  12.676 -0.2412 -0.1890 -0.2658
12181W        W28255   0.450   5.984  12.899 -0.1674  0.0688 -0.0663
12182W        W28256  13.823  14.146   1.042  0.0968  0.2697  0.1526
12183W        W28257  17.270  11.099   4.278 -0.2085 -0.0177  0.0940
12184W        W28258  10.851   3.236  10.486  0.1638  0.0013 -0.1705
12185W        W28259   0.549  16.862   0.967  0.0529  0.1131 -0.1696
12186W        W28260  17.771   6.351   3.540  0.0080 -0.2375  0.2352
12187W        W28261   7.467  12.562   1.245 -0.0528 -0.0855  0.2181
12188W        W28262   5.362  17.075   3.991 -0.1852  0.4280 -0.0337
12189W        W28263   7.611  11.263  16.030 -0.1106  0.0210 -0.1117
12190W        W28264   9.921   8.937   3.584  0.2339 -0.1879  0.1447
12191W        W28265   9.669  17.020   5.135  0.2543 -0.2350 -0.1229
12192W        W28266  10.186   9.915  15.768 -0.0583 -0.5491 -0.1734
12193W        W28267  15.732  17.983   5.708  0.1883 -0.0067  0.0072
12194W        W28268  15.756   8.587  12.740  0.4713  0.2738 -0.0459
12195W        W28269   0.320   6.784   2.583  0.3284 -0.0845  0.1510
12196W        W28270  17.630  17.628  14.237  0.1788 -0.1593 -0.1866
12197W        W28271   5.009   4.224  13.211  0.1810  0.1742 -0.1185
12198W        W28272   9.698   3.491   0.436 -0.0086 -0.0402 -0.3168
12199W        W28273   8.894  11.743  13.689 -0.0593  0.1376  0.0335
12200W        W28274  11.558   2.492   2.824 -0.1387 -0.0797 -0.3720
12201W        W28275  13.321  16.255  15.184 -0.0475  0.0483 -0.3654
12202W        W28276   1.161  10.544   0.164  0.2224  0.2674  0.1003
12203W        W28277  12.343  17.687   0.252  0.0147 -0.2898 -0.0931
12204W        W28278  16.882  12.925   3.646 -0.2057 -0.4222  0.2128
12205W        W28279  12.203  11.651  13.462 -0.1697  0.1543 -0.0999
12206W        W28280   5.839  11.868  13.234 -0.0847  0.3600  0.2647
12207W        W28281  15.808  12.390   5.988 -0.2336 -0.0291  0.3463
12208W        W28282   2.897  11.255   0.710 -0.0274  0.0265 -0.1280
12209W        W28283  12.111   9.605  12.260 -0.0306  0.0700  0.5369
12210W        W28284   3.694  14.300   1.287 -0.1752  0.2720 -0.3337
12211W        W28285   0.477   9.860   3.748  0.0507  0.1457 -0.1850
12212W        W28286   6.802  10.886   1.732 -0.0735 -0.3099  0.0323
12213W        W28287  13.709   2.827   1.360 -0.3143  0.0232  0.0498
12214W        W28288   0.644   8.979   1.963  0.0094 -0.1270  0.1251
12215W        W28289  17.209  14.099   5.434  0.1886 -0.0946 -0.2348
12216W        W28290  15.866  18.297  15.355  0.0661  0.5456  0.0615
12217W        W28291   3.194  13.544  11.636  0.1391 -0.0338  0.1954
12218W        W28292   4.890  11.224   4.986  0.4128 -0.0185 -0.2828
12219W        W28293   6.236  17.214   0.268 -0.2805 -0.0473 -0.3748
12220W        W28294   0.930   0.142  12.243 -0.2812 -0.1682  0.0169
12221W        W28295   5.606   6.505   4.021  0.0531  0.2682  0.0035
12222W        W28296   1.254   9.484   4.054 -0.0607 -0.1461 -0.0653
12223W        W28297  13.338   7.573   5.389 -0.1196  0.1589  0.1822
12224W        W28298  13.334   6.772  13.772 -0.1330 -0.0063  0.0374
12225W        W28299   4.073  16.625  11.988  0.2721 -0.2481  0.1424
12226W        W28300   8.287   5.965  15.385 -0.2181 -0.2880 -0.0361
12227W        W28301   4.444  12.990  15.321 -0.0698 -0.2636 -0.1849
12228W        W28302  12.544  12.640   6.698  0.0455  0.1348 -0.0165
12229W        W28303  16.410   0.823  13.543  0.1457 -0.0759 -0.1778
12230W        W28304  11.696  11.206   2.186 -0.1274  0.0515 -0.0990
12231W        W28305  11.210  14.301   3.569 -0.2068  0.0689  0.1407
12232W        W28306  12.596   2.770  14.966 -0.0877  0.1132  0.2215
12233W        W28307   0.867  12.702  13.435  0.1023  0.1853  0.0598
12234W        W28308   3.299   1.054  14.871 -0.1751 -0.1142 -0.0399
12235W        W28309  17.259   1.874   3.879  0.3716  0.0131 -0.1559
12236W        W28310   1.030   4.286  15.953  0.1242 -0.0021 -0.1651
12237W        W28311   6.603   1.043   1.319  0.1433  0.0080 -0.2192
12238W        W28312  17.984  11.131  14.487 -0.2074 -0.0722 -0.1183
12239W        W28313   9.192   1.637  15.597 -0.2970  0.2193 -0.1998
12240W        W28314   9.556   2.186  16.299  0.0753  0.0240  0.0138
12241W        W28315   1.502  17.427   4.471 -0.1518 -0.0553 -0.1650
12242W        W28316   4.403   7.682  15.581  0.1346 -0.0746  0.1003
12243W        W28317  10.825  13.447   2.009  0.2506 -0.2478 -0.1258
12244W        W28318  11.322   3.841  11.881 -0.2047 -0.0308  0.2510
12245W        W28319  17.373  17.349   5.603 -0.0384 -0.3694  0.1937
12246W        W28320  15.030   5.934  15.673 -0.1821 -0.0401 -0.0676
12247W        W28321   8.689   2.665  11.398  0.1529 -0.3421  0.2001
12248W        W28322  12.588   4.805  13.666 -0.1409  0.1717  0.0431
12249W        W28323   6.446   2.436  12.629 -0.0768  0.2304 -0.1403
12250W        W28324   3.242   8.162   1.213  0.1379 -0.3522 -0.1063
12251W        W28325   7.864   6.647  12.567 -0.0363  0.0241  0.3480
12252W        W28326   2.363   9.506   3.332 -0.0851 -0.1039  0.0961
12253W        W28327   8.146  13.593   2.790 -0.0947  0.1248 -0.3490
12254W        W28328  12.949   9.785  15.415  0.0497 -0.0045  0.0008
12255W        W28329  11.062  10.085   2.957  0.5703 -0.0939  0.0602
12256W        W28330  12.557   8.970   2.597 -0.3697 -0.2426 -0.1666
12257W        W28331   0.684   2.479   3.091  0.0462  0.2135 -0.2135
12258W        W28332  13.892  15.739   5.620  0.1423  0.0815 -0.1211
12259W        W28333  16.656   6.413   2.843  0.1842 -0.1136  0.1019
12260W        W28334   8.627  12.098   4.387  0.0937 -0.1897  0.0340
12261W        W28335   3.962   3.298  12.518  0.1433 -0.2526 -0.2594
12262W        W28336  14.567  17.845  13.541 -0.0002 -0.0122 -0.3869
12263W        W28337  12.643  15.775   0.458 -0.1403  0.1785  0.1255
12264W        W28338   3.549   2.831   4.063 -0.2526  0.0515 -0.0017
12265W        W28339   0.211   8.172   0.000  0.3141  0.0518 -0.2166
12266W        W28340   6.146   5.640  13.730 -0.0728 -0.0859  0.1163
12267W        W28341   7.530  13.499   3.589  0.0615 -0.3427 -0.2052
12268W        W28342  12.434  13.059   6.224 -0.1438 -0.3540 -0.0853
12269W        W28343   9.879   4.017  11.170  0.0419  0.2289 -0.1313
12270W        W28344  15.347   4.786  11.960  0.1437  0.0981  0.1413
12271W        W28345   3.938  16.095  15.472  0.0070  0.0890 -0.0386
12272W        W28346  15.043   2.009  15.182 -0.2401  0.0052  0.0738
12273W        W28347  16.074   1.451   2.422  0.3941 -0.4084  0.0688
12274W        W28348   9.911  10.280  14.339  0.0589  0.0126  0.0909
12275W        W28349  13.312   8.247   3.735  0.1084  0.3691 -0.1551
12276W        W28350   2.138   8.580   0.080 -0.1109  0.5283  0.0147
12277W        W28351   4.931   5.658   1.800 -0.1888 -0.2400  0.2421
12278W        W28352   6.037  14.699   1.402 -0.0193 -0.1289  0.1537
12279W        W28353   1.802  17.543  12.411  0.0392  0.1244  0.2144
12280W        W28354   3.316   2.225   0.791  0.2129  0.5409  0.1093
12281W        W28355   7.167   0.930  14.852  0.0608 -0.1457 -0.2015
12282W        W28356  10.231   2.581   4.677  0.0244 -0.0805 -0.0829
12283W        W28357  10.544  17.509   1.030 -0.0461  0.0211  0.0523
12284W        W28358   6.654  12.154   1.133 -0.1200  0.3642  0.1822
12285W        W28359  10.482   4.529   3.068 -0.1131 -0.0428  0.2018
12286W        W28360   5.182   8.037  14.202 -0.4446 -0.2156 -0.0873
12287W        W28361   3.456   0.143   0.411 -0.3168 -0.1517 -0.1816
12288W        W28362  15.385  18.179   5.213 -0.2100  0.0664  0.0690
12289W        W28363   7.728  12.550   0.751 -0.0068  0.3086  0.0323
12290W        W28364   9.189  10.888  16.303  0.1543 -0.0501 -0.2543
12291W        W28365   3.939   2.080  15.270  0.0138  0.0758  0.1741
12292W        W28366  16.178  17.462  11.650 -0.1073  0.0243 -0.0457
12293W        W28367  11.937   9.757   4.951  0.0701  0.2127 -0.1908
12294W        W28368  12.035   9.158   5.749 -0.0246  0.2057  0.0271
12295W        W28369  15.011   5.798  12.123 -0.0440  0.0821  0.0049
12296W        W28370   9.366  13.026  10.675 -0.3225 -0.0015  0.1083
12297W        W28371  13.111  14.348   3.398 -0.0967 -0.1096  0.0222
12298W        W28372  13.978   2.471   2.708 -0.0573  0.0022  0.1577
12299W        W28373  17.130   8.540  14.942  0.2710 -0.1309 -0.2364
12300W        W28374  17.282  10.660  14.116 -0.2181 -0.2675  0.0476
12301W        W28375   2.279   6.701   2.010  0.3639  0.1089  0.3172
12302W        W28376  14.880   0.370   0.099 -0.2284  0.2597 -0.2026
12303W        W28377   3.539   9.065   1.595  0.0617 -0.0097 -0.1363
12304W        W28378   3.246   4.776   4.996  0.1265 -0.2197  0.2150
12305W        W28379  12.167   5.697   2.689 -0.2260 -0.0559 -0.0573
12306W        W28380   5.380  15.576  12.819 -0.4753  0.1413  0.0285
12307W        W28381  12.210   1.493  15.411  0.0607  0.5129 -0.0125
12308W        W28382   8.597  14.553   5.654  0.2250 -0.3191  0.3307
12309W        W28383   3.178   6.562   2.475 -0.0608  0.1180 -0.1040
12310W        W28384  11.713  17.153   3.305 -0.0139  0.1310 -0.0121
12311W        W28385   1.075  10.474   2.829 -0.3847 -0.1437 -0.0590
12312W        W28386   1.979  14.659  14.299  0.0451 -0.0483 -0.2829
12313W        W28387   0.173  16.595  12.655  0.2370  0.0584 -0.0257
12314W        W28388  18.262  17.354  13.192  0.2132  0.2687 -0.1343
12315W        W28389   4.373  17.055   3.246  0.1742 -0.0760  0.2496
12316W        W28390  13.131  15.690   2.009  0.0967 -0.0858 -0.0620
12317W        W28391  13.910   2.133  15.008  0.1993 -0.2224  0.0599
12318W        W28392  11.594  13.698   1.607 -0.1199  0.2361  0.0579
12319W        W28393   4.711   9.808   0.436 -0.0019 -0.0353  0.0466
12320W        W28394   3.149   8.071   3.930 -0.0968  0.1035  0.0232
12321W        W28395   4.595  18.148   2.164 -0.1557  0.2103  0.0653
12322W        W28396   9.920   5.216  14.220 -0.2953 -0.0332  0.0426
12323W        W28397   8.796  12.649   1.050 -0.2900 -0.3489  0.0967
12324W        W28398   1.979   4.505   0.440 -0.1732  0.0766  0.1779
12325W        W28399   9.914  15.562   0.255 -0.0945  0.3340  0.0722
12326W        W28400   8.811  12.918  15.051  0.4194 -0.2910  0.1505
12327W        W28401  10.790   7.833  15.101  0.2440 -0.3097 -0.2655
12328W        W28402  13.535  14.192   4.154 -0.3185 -0.0817  0.0400
12329W        W28403   7.005   5.511  13.978  0.1516 -0.2554 -0.1716
12330W        W28404  16.292  10.140   0.079  0.1710  0.2071 -0.0190
12331W        W28405   4.234   5.663  12.619 -0.0672 -0.6615 -0.0747
12332W        W28406  17.937  11.370   2.899  0.2182 -0.1963 -0.2402
12333W        W28407   9.843  12.173   1.173 -0.2754  0.2293  0.0137
12334W        W28408  13.288   7.757  15.545  0.0849  0.0487 -0.0115
12335W        W28409  16.127  14.839   0.926 -0.0106 -0.1497 -0.1550
12336W        W28410  16.581  11.819   3.845  0.0284 -0.0758 -0.1819
12337W        W28411   8.970   1.678   2.712  0.4491 -0.3923 -0.0398
12338W        W28412   9.816  10.863  14.986 -0.2080 -0.1492 -0.0835
12339W        W28413  15.931  11.670   3.032  0.0629  0.1565 -0.1794
12340W        W28414   7.218   8.466   2.812  0.1069  0.1499  0.0961
12341W        W28415   7.679  10.361   3.824  0.0252  0.1884  0.0866
12342W        W28416   2.760  13.237  16.082 -0.3110 -0.1646  0.0083
12343W        W28417   1.676   6.704  13.893  0.0673 -0.1912  0.3746
12344W        W28418  11.780   8.218   4.579  0.1525 -0.3387  0.2917
12345W        W28419  13.822   6.871  13.015 -0.0984  0.1021  0.1528
12346W        W28420  15.093  10.031  14.253 -0.0732  0.1394 -0.2039
12347W        W28421  17.348  11.917  16.122  0.0367 -0.2870  0.0161
12348W        W28422  14.605  11.932  15.248 -0.1406 -0.0252  0.2332
12349W        W28423  15.624   1.056   2.215 -0.0534  0.0353  0.1290
12350W        W28424   1.421  17.006   3.027 -0.3634 -0.1396 -0.2292
12351W        W28425   3.096  13.380   3.423 -0.4523  0.1351 -0.1161
12352W        W28426   4.689   1.276   1.318 -0.0168  0.1694 -0.2642
12353W        W28427  18.218  15.863   1.754 -0.2091  0.0875  0.2038
12354W        W28428  10.508   0.147  11.058 -0.0756  0.0942 -0.6764
12355W        W28429   1.216  12.850   5.144  0.3616  0.0683  0.0556
12356W        W28430   2.089   7.002   5.294 -0.0494 -0.2319  0.3209
12357W        W28431   4.571  12.100   2.072 -0.1381  0.1545  0.0086
12358W        W28432  17.556   2.277   3.215  0.3414 -0.0389  0.0144
12359W        W28433   6.417   0.667   3.979 -0.1483  0.0122 -0.1858
12360W        W28434   7.308  12.114   4.155  0.1302 -0.0518 -0.0500
12361W        W28435  12.079   4.525  16.278 -0.0565 -0.0590 -0.0180
12362W        W28436   2.775  15.920  14.710  0.2536 -0.0209  0.4139
12363W        W28437   0.789  10.838  14.436  0.0161 -0.1662 -0.3402
12364W        W28438  18.115   7.340  16.350  0.2370  0.2331 -0.0026
12365W        W28439  10.816   6.544  14.621 -0.1435 -0.0178 -0.2853
12366W        W28440   6.108  16.984  15.704 -0.1314  0.1141  0.2842
12367W        W28441  14.369   6.153  12.881  0.0416  0.0070  0.1251
12368W        W28442  13.983   3.251   1.284  0.2835 -0.1809  0.2829
12369W        W28443   2.377   9.814  11.720 -0.0345  0.0527 -0.0212
12370W        W28444   0.109   2.442   2.391  0.3193 -0.3123  0.0775
12371W        W28445   8.360  11.236   3.475  0.1479 -0.3634  0.3859
12372W        W28446   4.934   6.371  12.594  0.0821 -0.0774  0.1363
12373W        W28447   2.370   6.485   5.995  0.2355  0.2914  0.1888
12374W        W28448   4.169  18.139   1.076 -0.0266 -0.0975 -0.2546
12375W        W28449   6.953   6.631   0.614 -0.0506  0.1853  0.2539
12376W        W28450  18.047  14.063   3.981  0.0857  0.0281 -0.0693
12377W        W28451   0.995  10.926   1.770  0.2548 -0.1500  0.0686
12378W        W28452  15.569   0.066   4.357 -0.2343  0.0395 -0.0073
12379W        W28453   3.309   1.874  12.860  0.1043 -0.1467 -0.2575
12380W        W28454   6.683   3.890   0.924  0.0470  0.1674 -0.0508
12381W        W28455  10.289   0.314  15.453 -0.2173  0.0306  0.0565
12382W        W28456   1.861   1.442   1.754 -0.4248  0.3363 -0.2479
12383W        W28457  16.413   1.348  13.366 -0.4249  0.0185  0.0964
12384W        W28458   4.561   9.925  14.490  0.0944 -0.0184 -0.0969
12385W        W28459   0.074   8.466   2.373  0.2740  0.1129 -0.1721
12386W        W28460  12.730  14.220  13.699  0.0080  0.1029 -0.0963
12387W        W28461   1.697  14.664   2.232  0.3481  0.5070 -0.1388
12388W        W28462   0.052   3.004  11.306  0.1753 -0.0428 -0.0247
12389W        W28463   6.069   3.508  10.734  0.3854  0.0193  0.2315
12390W        W28464  12.578   4.766  15.067 -0.2375 -0.1833 -0.1893
12391W        W28465  13.889  15.654   2.908  0.0284  0.0596 -0.0001
12392W        W28466  12.345   8.650   1.287  0.0013  0.0739  0.1790
12393W        W28467  11.466   1.977  13.218 -0.2142 -0.1382  0.3147
12394W        W28468   1.240  12.575   0.379 -0.1116  0.1440  0.0627
12395W        W28469  11.063  14.328  15.943  0.1063  0.1022 -0.0313
12396W        W28470   3.901  14.861   4.100 -0.1511  0.0995 -0.3053
12397W        W28471   9.088  16.305  15.716  0.0250 -0.0502  0.1427
12398W        W28472  10.652   8.676  12.085 -0.4324  0.1874 -0.1502
12399W        W28473   9.382   9.199  13.396  0.1125 -0.0753  0.1537
12400W        W28474   9.579  10.970   3.601 -0.0370 -0.0620  0.1332
12401W        W28475  13.610  18.130   2.491  0.0416 -0.1221  0.0739
12402W        W28476   7.495  18.145  16.265  0.0224 -0.0950  0.3451
12403W        W28477   9.117  17.289  14.621 -0.2319  0.0003 -0.1664
12404W        W28478   1.245  10.981  12.292 -0.0185  0.2135 -0.0850
12405W        W28479  17.304  15.591  13.315 -0.4401 -0.0278 -0.0083
12406W        W28480  17.181   5.775   3.411  0.0550  0.0211 -0.1921
12407W        W28481  13.200  12.760   2.429  0.1393  0.1069  0.1522
12408W        W28482   8.261   0.466   3.223  0.1695 -0.0233  0.0777
12409W        W28483   9.661   4.229   5.833  0.0529  0.2429 -0.0272
12410W        W28484  13.355  12.385  12.065  0.1730  0.3444  0.1221
12411W        W28485  18.019  11.042  14.002  0.0181 -0.0756 -0.0013
12412W        W28486   6.324  13.031   5.107  0.2280  0.1379 -0.3255
12413W        W28487   9.610  13.687   5.094 -0.1483 -0.5525  0.2496
12414W        W28488   8.869   1.898   2.220  0.0440  0.1653 -0.2082
12415W        W28489   4.490  12.397   0.527  0.0678 -0.3243  0.3843
12416W        W28490   4.507   6.301   0.509 -0.0145 -0.1489 -0.0433
12417W        W28491   1.781  11.771  14.112  0.0459 -0.1544  0.0909
12418W        W28492  13.457   0.559   5.674 -0.0506  0.0535  0.3212
12419W        W28493   0.366   0.272   5.125 -0.0004 -0.0652  0.0006
12420W        W28494   3.491  10.725   0.834 -0.1986 -0.0705  0.0453
12421W        W28495  15.095   4.762   3.674 -0.0321 -0.1566  0.3207
12422W        W28496   6.572   1.379  14.257  0.0399 -0.0740 -0.0357
12423W        W28497  16.557  17.824  11.702 -0.0544  0.0310 -0.0089
12424W        W28498  12.845  10.326   2.496  0.0454  0.1348 -0.0943
12425W        W28499   9.519  10.956  11.951 -0.2313 -0.0951 -0.1382
12426W        W28500  16.784  10.603  16.287  0.0995 -0.1753  0.0079
12427W        W28501  10.187  17.102   0.153  0.4095 -0.2704  0.2581
12428W        W28502  10.390   1.038  11.675 -0.0925 -0.1976 -0.0364
12429W        W28503   8.892  14.215   3.883 -0.3219  0.3134 -0.3719
12430W        W28504  12.878  15.296   3.861  0.1113  0.1206 -0.0505
12431W        W28505  14.841   3.256  12.459  0.0704  0.1043  0.0420
12432W        W28506  12.705  14.337   2.829  0.2767  0.4455  0.1830
12433W        W28507  17.246   0.539   5.549  0.0039 -0.0459 -0.3538
12434W        W28508   7.342   3.831  14.355  0.1195 -0.0251 -0.0900
12435W        W28509   6.701   8.387  15.018 -0.1166  0.0427 -0.0492
12436W        W28510  16.160   8.482   1.208 -0.0112  0.1271 -0.1207
12437W        W28511  11.033   2.443   1.584 -0.1188 -0.0166  0.2122
12438W        W28512  13.200  13.610   3.327  0.1037  0.1436 -0.1616
12439W        W28513  13.907   0.969   0.922  0.1573  0.1520 -0.2775
12440W        W28514   0.863   6.551   5.047  0.0696  0.0188 -0.3408
12441W        W28515   3.803   7.038   2.977  0.1611  0.4295 -0.4282
12442W        W28516   4.514  11.540   0.109 -0.2467 -0.0928  0.5773
12443W        W28517   5.647   6.481  15.675 -0.1961 -0.4021  0.0522
12444W        W28518   5.258  14.546  12.794  0.0869 -0.1246  0.0294
12445W        W28519   3.662  13.045   2.267  0.2800  0.1186  0.0522
12446W        W28520   3.338   0.672  13.749  0.3753 -0.2301 -0.2074
12447W        W28521   8.486  13.603   2.443  0.1196  0.0019 -0.0014
12448W        W28522   4.201  17.654   1.432  0.0313 -0.1050  0.0689
12449W        W28523  10.739   8.256  10.955 -0.0834 -0.0145 -0.0963
12450W        W28524  10.442  15.680   1.735  0.0507  0.0191 -0.2531
12451W        W28525   4.393  13.954   2.769 -0.0401 -0.0355  0.2963
12452W        W28526  14.531  16.095  16.181  0.0403  0.1569 -0.0947
12453W        W28527   9.203   1.742  13.468 -0.1506  0.0386  0.1318
12454W        W28528   0.582  18.164   5.252 -0.1548  0.0230 -0.2844
12455W        W28529  12.635  11.482   3.632  0.0338 -0.0367 -0.1547
12456W        W28530  12.787  14.413  15.851  0.1808 -0.1426 -0.0763
12457W        W28531  10.144   0.825  16.255 -0.0184  0.4509  0.1604
12458W        W28532  12.629   8.559  12.204 -0.0986 -0.2671 -0.8394
12459W        W28533   1.260   6.983   4.175  0.1931  0.2594  0.0545
12460W        W28534   3.350   2.969  13.779  0.1790 -0.1417 -0.2556
12461W        W28535  12.960  13.560  14.824  0.1740  0.0151 -0.1607
12462W        W28536  18.065   8.110  16.073 -0.0552  0.0444 -0.1622
12463W        W28537  15.941   4.112   4.699 -0.1800 -0.1192  0.0626
12464W        W28538   6.764   1.591  12.673  0.1466 -0.0353 -0.0702
12465W        W28539  14.946  16.184  10.838 -0.1213  0.0327 -0.2946
12466W        W28540  16.133   9.422  12.297 -0.0245  0.2592  0.0782
12467W        W28541  13.062   4.482  13.704 -0.2576  0.0335 -0.0043
12468W        W28542   0.046   0.331   4.273  0.3542  0.1651  0.2539
12469W        W28543   3.030   5.007  13.396 -0.0905 -0.1820 -0.0349
12470W        W28544   1.783  16.155   3.608  0.5296  0.0245 -0.1357
12471W        W28545   0.169   3.310   0.360  0.0739 -0.0325 -0.0643
12472W        W28546  12.250  10.544   0.459 -0.2222  0.0742  0.1646
12473W        W28547  12.311   6.214   0.466 -0.3199  0.0069  0.3440
12474W        W28548   8.462   5.923  12.058  0.2521 -0.2693 -0.0441
12475W        W28549   4.045   8.664  11.295 -0.0435  0.2350 -0.4313
12476W        W28550   8.365   9.647  15.773  0.4360 -0.1160 -0.0498
12477W        W28551  15.202   1.660   6.151 -0.2386  0.0874 -0.0349
12478W        W28552  13.465   3.001   5.082 -0.3416 -0.1277  0.0532
12479W        W28553  10.761  15.482   4.229 -0.1558  0.1870 -0.1717
12480W        W28554  17.574  14.069  15.232 -0.0458  0.1073  0.1933
12481W        W28555  10.057  16.876   1.925 -0.0046  0.0092 -0.2665
12482W        W28556  10.054  10.084   1.277  0.2352  0.0293  0.4012
12483W        W28557   8.349   0.412   4.534  0.1767  0.1563 -0.2592
12484W        W28558   3.541  17.598  15.753  0.0481 -0.0277 -0.0823
12485W        W28559  15.411  13.490   4.288  0.1621  0.2983  0.2599
12486W        W28560  12.648   3.644  16.292  0.1049  0.1152  0.0774
12487W        W28561   3.619  16.275   0.510  0.0533 -0.0136  0.1558
12488W        W28562   6.212   4.169   3.038  0.0539 -0.0189  0.0899
12489W        W28563   6.695   4.491  14.404 -0.1845 -0.1590  0.3778
12490W        W28564   4.911   5.855  12.532 -0.3338  0.0291 -0.3660
12491W        W28565   4.793  16.555  15.339  0.4561  0.0922 -0.1546
12492W        W28566  10.260   0.162  13.192 -0.0145  0.1991  0.0855
12493W        W28567  16.342  10.987   1.476  0.1469 -0.0570 -0.2929
12494W        W28568   6.624  14.187  16.351 -0.0556 -0.2385  0.0484
12495W        W28569   7.184   6.696  13.410 -0.3478  0.3456  0.0314
12496W        W28570  12.622  16.718   4.820 -0.1374 -0.0572 -0.1826
12497W        W28571  14.324  17.841   3.104  0.2772  0.2817  0.2172
12498W        W28572   3.922   3.413   2.428 -0.0318 -0.1980 -0.3848
12499W        W28573   0.105   1.537   1.615 -0.0436  0.1028 -0.1709
12500W        W28574  17.145   5.597   1.690  0.0528 -0.1149  0.3083
12501W        W28575  16.647  11.784  11.391 -0.2979  0.0646 -0.1478
12502W        W28576  10.817  16.832  15.136 -0.0348 -0.1165  0.0598
12503W        W28577  15.500  17.079  14.535 -0.1057  0.1576 -0.0582
12504W        W28578   0.154  12.194  14.686 -0.1362 -0.1259  0.2114
12505W        W28579   8.274  13.443   3.324  0.0291 -0.3752 -0.2610
12506W        W28580  11.018   4.359  13.822 -0.1569 -0.0857  0.6968
12507W        W28581  15.917   7.849   0.405  0.1960 -0.0080 -0.2881
12508W        W28582   4.692  15.405  14.951  0.1631  0.2371  0.4159
12509W        W28583  10.251  10.628   1.148 -0.0592  0.2272  0.0115
12510W        W28584  13.003  12.592  14.499 -0.0594  0.0734 -0.0366
12511W        W28585  16.152   4.851  11.395  0.1538  0.1423 -0.1245
12512W        W28586   3.652  15.626  12.721 -0.4453 -0.1678  0.1416
12513W        W28587   7.344  16.971  15.832  0.2349 -0.0038  0.1934
12514W        W28588  14.420  16.907   1.665  0.2690  0.1070  0.0132
12515W        W28589  12.266   9.863  13.340  0.2821 -0.0335 -0.1214
12516W        W28590  15.342   5.988   1.979  0.0435  0.3768 -0.1356
12517W        W28591   5.294   7.123  15.551  0.0017 -0.1665  0.2527
12518W        W28592   8.417   4.031   4.104 -0.3116 -0.1787  0.3038
12519W        W28593   6.123   2.466  12.239  0.0610  0.1545  0.1116
12520W        W28594   6.115  13.673   1.178  0.0408  0.3069 -0.0284
12521W        W28595   5.552   7.144  14.586 -0.1406  0.0337  0.2290
12522W        W28596   8.921   6.831   2.922 -0.0084 -0.2135  0.0036
12523W        W28597   0.613   6.458   0.529 -0.1303 -0.1578 -0.3197
12524W        W28598   1.432  12.949   1.339  0.0811 -0.0091  0.0141
12525W        W28599  17.271   5.988  14.228 -0.0271 -0.0922  0.0221
12526W        W28600   2.707  17.799  15.612 -0.0838 -0.0358  0.0554
12527W        W28601  10.342  12.301   4.418 -0.0360 -0.1681 -0.5435
12528W        W28602   8.579   0.730   4.767  0.1086  0.0545 -0.2721
12529W        W28603   0.798  13.589   5.788  0.3079 -0.0486  0.0239
12530W        W28604  17.143   4.449   2.132 -0.3055  0.2350 -0.0034
12531W        W28605  16.783  12.198   4.185  0.0976  0.0834 -0.0203
12532W        W28606  15.130   3.388   2.085 -0.0575 -0.0198 -0.0142
12533W        W28607  14.982   9.658  10.424 -0.2717  0.2148  0.4096
12534W        W28608   7.916  14.635   4.397 -0.4086 -0.1887  0.0110
12535W        W28609   8.895   6.519  14.278 -0.3312  0.0219 -0.2640
12536W        W28610   2.779   1.357   4.850 -0.0479 -0.1611  0.3061
12537W        W28611   0.321  11.941   2.844  0.4180 -0.0121  0.0661
12538W        W28612  11.570  15.972   5.310  0.0153 -0.0626 -0.1062
12539W        W28613  10.247  12.503  14.365 -0.0173  0.2978  0.4674
12540W        W28614  16.630  13.492  15.070  0.1340 -0.3154 -0.2346
12541W        W28615  14.733   8.278   2.826 -0.2792 -0.1334 -0.2844
12542W        W28616   7.940   5.687   0.347  0.4086  0.1596 -0.0402
12543W        W28617   2.776   0.714   4.226  0.2585 -0.1107 -0.1826
12544W        W28618   5.496  10.505  12.931  0.1322 -0.2210 -0.1451
12545W        W28619   7.878   6.473   1.733 -0.0057  0.0053  0.2519
12546W        W28620   5.165   8.536   4.469 -0.0727  0.3604  0.0657
12547W        W28621   1.671  15.824   4.619  0.3716  0.2807 -0.0555
12548W        W28622  18.099   0.076   3.258 -0.3175  0.3308  0.1976
12549W        W28623   6.480   5.127   4.810 -0.0258 -0.0190 -0.0773
12550W        W28624   8.202  15.925   4.029  0.2325  0.0255  0.1557
12551W        W28625  10.978  16.031  15.685 -0.0982 -0.2813 -0.0228
12552W        W28626  14.576  13.184   0.887  0.1644 -0.0590 -0.1292
12553W        W28627   1.712  18.291   4.947  0.0639  0.1281  0.1779
12554W        W28628  13.740   6.463   3.121 -0.0412 -0.3534 -0.0407
12555W        W28629  15.820  16.391  16.200 -0.1728  0.4244  0.0388
12556W        W28630  10.591   3.125   5.894  0.0167  0.2341 -0.0330
12557W        W28631   7.284   2.835  10.098 -0.0196 -0.0642  0.0574
12558W        W28632   4.275  11.023   0.604 -0.2092 -0.2758  0.1481
12559W        W28633   6.606   1.366   2.361 -0.0562  0.0583 -0.1738
12560W        W28634   8.305  12.702   1.425  0.2078 -0.2180  0.3867
12561W        W28635   6.966   0.369  14.690 -0.0437 -0.1172 -0.0185
12562W        W28636   8.260  16.276  16.105 -0.1009 -0.0743  0.0163
12563W        W28637  12.881   7.308   1.861 -0.3315 -0.1411 -0.2066
12564W        W28638   5.626   7.352  13.989 -0.1664 -0.2078  0.0131
12565W        W28639   7.793  16.329   3.394  0.0772  0.1571 -0.0818
12566W        W28640   2.586  17.264  15.857 -0.1258  0.2600 -0.0794
12567W        W28641   7.193   8.887  11.657  0.2131 -0.0258  0.0793
12568W        W28642   3.013  12.796  16.224 -0.0303 -0.0349 -0.1711
12569W        W28643  16.370   9.919  11.808 -0.0844  0.2100 -0.0244
12570W        W28644  15.473   6.753   5.259  0.3798  0.0597 -0.2046
12571W        W28645   3.864   0.511   2.708 -0.0184  0.1443 -0.1066
12572W        W28646  10.624   9.833   2.800  0.1983  0.0204 -0.2803
12573W        W28647  16.343  12.152   1.899  0.0803 -0.0087 -0.0852
12574W        W28648   7.218  17.040   3.425  0.1460 -0.0809  0.0042
12575W        W28649  14.729  13.422  12.182 -0.4053  0.0330  0.1899
12576W        W28650   1.138  12.520  13.775  0.1530 -0.0558  0.0279
12577W        W28651  11.758   3.757   3.864  0.1145 -0.2114 -0.1673
12578W        W28652  15.629   4.174   0.414 -0.3898 -0.1346  0.0858
12579W        W28653  16.077   6.906   3.608 -0.0637  0.0181  0.0015
12580W        W28654  13.707   3.427   1.802  0.1422 -0.4331  0.2576
12581W        W28655   7.833   2.229   2.339 -0.0360  0.0209 -0.1376
12582W        W28656   7.146  17.628  11.301 -0.0198 -0.3680 -0.1701
12583W        W28657   9.786  11.189  15.353 -0.0172 -0.1822  0.2380
12584W        W28658   6.273   3.075   1.404  0.0429  0.1102 -0.1928
12585W        W28659  10.751   1.310   4.197 -0.2303 -0.0820  0.3021
12586W        W28660  15.557   9.044   0.358  0.2955 -0.0675  0.2305
12587W        W28661  10.484   4.569  15.589 -0.1212 -0.3526  0.1909
12588W        W28662   3.334   2.072  15.843 -0.0808 -0.0845  0.1039
12589W        W28663  10.530   7.341   0.008 -0.0618 -0.0173 -0.2699
12590W        W28664   4.652   2.408   2.370 -0.0354 -0.0405 -0.1505
12591W        W28665  17.503  15.452  12.113  0.6211  0.0819  0.0856
12592W        W28666   6.911  17.625  13.947  0.1155 -0.3859 -0.2431
12593W        W28667   9.099  10.291   4.157  0.1225  0.2499 -0.0925
12594W        W28668   4.744   4.010   2.867 -0.0238  0.2556  0.3063
12595W        W28669   6.354  14.051   1.901 -0.1402  0.0314 -0.0968
12596W        W28670   1.525   6.649   1.079 -0.0180 -0.3726 -0.1008
12597W        W28671  10.325   8.705   1.729  0.1255 -0.2706  0.1282
12598W        W28672  14.475  17.434   0.727 -0.3328 -0.0698  0.0509
12599W        W28673  14.619   2.802   1.091 -0.1297  0.2845 -0.1173
12600W        W28674   5.542   7.833  11.985  0.2991  0.1290 -0.1343
12601W        W28675  10.116   6.086  15.167 -0.2023 -0.3361  0.0327
12602W        W28676   6.494   2.286  11.974 -0.1063 -0.2589 -0.0767
12603W        W28677   0.990   2.877   5.369  0.1297 -0.3541 -0.2532
12604W        W28678   3.566   5.714  13.566 -0.1561  0.3274 -0.1585
12605W        W28679  18.177   7.837   1.039  0.0021  0.0190  0.1693
12606W        W28680   6.013  12.351   4.738 -0.0710  0.3274 -0.0301
12607W        W28681  10.871   5.330   1.732  0.1611 -0.2271  0.0301
12608W        W28682  12.123   6.928  13.264  0.0972 -0.0058 -0.1338
12609W        W28683   1.939   0.112  11.683  0.1393  0.1714  0.1656
12610W        W28684  12.629   9.349   3.211  0.0684 -0.1814  0.0863
12611W        W28685   1.562  13.757  11.709 -0.3195 -0.3624  0.3311
12612W        W28686   0.693  17.194  12.243  0.1036  0.0621  0.0016
12613W        W28687   0.085   3.316  11.702 -0.0788 -0.0243 -0.3059
12614W        W28688   5.901   0.390  15.737  0.0344 -0.1990 -0.3033
12615W        W28689   7.112  14.658   1.799  0.0336  0.1814 -0.2905
12616W        W28690  10.809  11.360   2.970 -0.1891 -0.2331  0.0213
12617W        W28691   8.658   6.207  12.477 -0.0990  0.2305 -0.0572
12618W        W28692  12.309  13.840  11.697 -0.3506 -0.3210 -0.0707
12619W        W28693  13.773   6.648  13.943 -0.0544  0.0560  0.0816
12620W        W28694  14.489  16.933  13.097  0.2663 -0.0537 -0.0041
12621W        W28695   9.549   4.226  16.105 -0.3349 -0.5178 -0.1299
12622W        W28696   6.682   7.199   0.737  0.2623  0.1766  0.0104
12623W        W28697  10.022   0.972   2.245  0.0393 -0.4338 -0.3087
12624W        W28698  17.122  17.456  16.375 -0.2611  0.0419 -0.2401
12625W        W28699   3.607   4.406   1.173 -0.3824  0.0872  0.0482
12626W        W28700  15.518   3.764   0.646  0.0543 -0.1475  0.1337
12627W        W28701   6.800   9.616   0.170 -0.1916  0.0608 -0.4226
12628W        W28702  10.744   9.815  14.042 -0.1207 -0.2741  0.2277
12629W        W28703   1.809  11.267   1.825 -0.2195 -0.0742  0.1718
12630W        W28704  18.064   9.257  13.382  0.1282  0.0245 -0.6052
12631W        W28705   8.067   6.472  11.201 -0.2698 -0.0569  0.0503
12632W        W28706  13.292  13.729   2.653  0.1391  0.1188 -0.0311
12633W        W28707  16.063   6.410   3.816 -0.1578 -0.2306  0.3563
12634W        W28708  11.915  18.252   2.552 -0.1517 -0.3403  0.1752
12635W        W28709  13.105  16.210   2.017 -0.0211 -0.2422 -0.2745
12636W        W28710  12.266   0.292   4.756  0.1176 -0.0679  0.0932
12637W        W28711   1.121  17.327   3.911 -0.2949  0.0617 -0.2412
12638W        W28712  11.366  11.888  12.945  0.1037  0.1602 -0.1780
12639W        W28713  14.760   1.245  16.270  0.0214 -0.0097  0.1387
12640W        W28714   5.085   6.843   4.396  0.0711 -0.0973 -0.2182
12641W        W28715  17.478   1.076   6.729 -0.2532  0.4206 -0.2041
12642W        W28716   7.508   1.837  11.769  0.0287 -0.2872  0.0690
12643W        W28717   6.896   7.383   5.910 -0.2759  0.2751  0.0627
12644W        W28718  14.131  13.763  16.050 -0.2427 -0.1461  0.1160
12645W        W28719   1.291  10.098   5.428 -0.1220  0.2310  0.0509
12646W        W28720   5.954   4.884  14.925  0.1758 -0.0650  0.2495
12647W        W28721   6.562   5.339  13.749 -0.0494  0.4193  0.0723
12648W        W28722   5.879  10.563  15.898  0.2273  0.0456 -0.1338
12649W        W28723   1.746   5.132   2.490  0.1789 -0.0056 -0.2697
12650W        W28724   6.227  11.460   0.058 -0.0813 -0.2263  0.0096
12651W        W28725  17.472   2.634   5.950  0.0983  0.3817  0.0880
12652W        W28726  13.509   0.067  13.725  0.2253  0.0249 -0.2475
12653W        W28727  10.343   1.549   3.196  0.2054 -0.0528  0.0874
12654W        W28728   4.277  12.222   0.014  0.1057  0.2112  0.0609
12655W        W28729  15.191   5.871  10.657 -0.1534  0.3012  0.1288
12656W        W28730   0.844   4.156  15.459 -0.1070 -0.1567 -0.2418
12657W        W28731   8.583  17.043   3.596  0.2848  0.0254  0.2310
12658W        W28732  18.167   3.770   5.053 -0.3624 -0.0013 -0.2025
12659W        W28733  16.029   4.320   2.317  0.1831 -0.1131 -0.0335
12660W        W28734   8.991  16.381  13.918 -0.0802 -0.0150 -0.3256
12661W        W28735  16.539  15.749   5.236  0.0315 -0.0420  0.3740
12662W        W28736  17.257   9.372  12.240  0.2284  0.0314  0.0797
12663W        W28737   0.057  17.842   1.972  0.1803  0.1839 -0.0004
12664W        W28738  16.530  18.197   0.361 -0.2827 -0.0250 -0.1930
12665W        W28739  10.041   1.416  11.226 -0.1018  0.2903 -0.2062
12666W        W28740  16.723   2.904  16.129 -0.0212  0.1671 -0.2649
12667W        W28741   2.922   3.798   1.732 -0.0383 -0.4568 -0.0918
12668W        W28742  15.107   2.992   3.379  0.2330 -0.2192  0.1453
12669W        W28743  13.413  17.148   3.022 -0.1180  0.1276  0.4260
12670W        W28744   0.587  17.401   3.093  0.0557  0.0106  0.1508
12671W        W28745  15.927  10.123   1.353  0.0179  0.3721 -0.3249
12672W        W28746   8.598  11.723   2.241  0.0628  0.0170  0.0555
12673W        W28747  16.763   6.796  14.354 -0.2704 -0.1005 -0.3402
12674W        W28748   3.701   1.523  15.560 -0.1428 -0.2100 -0.0751
12675W        W28749  11.225  14.908  11.399  0.0512 -0.2154  0.1716
12676W        W28750   2.727   2.063   3.896 -0.2477  0.2381 -0.2473
12677W        W28751   5.486  18.125  10.926 -0.2608 -0.2180  0.3003
12678W        W28752  12.068  11.268  14.864 -0.1212  0.0114 -0.0255
12679W        W28753   7.501   8.611  12.401  0.0219 -0.0996 -0.0123
12680W        W28754  15.566   4.100   2.170  0.1485  0.0428  0.2013
12681W        W28755  18.036   1.859   1.559  0.0031  0.1481  0.2140
12682W        W28756   8.275  15.231  11.547  0.5154 -0.0176 -0.1012
12683W        W28757   8.713   7.265   1.507  0.3870 -0.3779  0.0661
12684W        W28758  18.332   2.742  15.077 -0.1085 -0.1868 -0.0830
12685W        W28759  16.697  15.094  12.555  0.2221 -0.0908  0.2170
12686W        W28760  15.861   8.090  12.431 -0.0223 -0.1878  0.1953
12687W        W28761  11.511  15.730   1.036  0.1046 -0.3699 -0.1069
12688W        W28762   8.297  10.076  14.933 -0.3501  0.0703  0.0222
12689W        W28763   8.938  15.984   4.585  0.0017 -0.1472  0.0557
12690W        W28764   9.650   2.817  15.492  0.2921  0.0977  0.0366
12691W        W28765  11.078   0.003   5.456 -0.1722  0.1261 -0.3479
12692W        W28766  11.672  13.556   0.618 -0.3276  0.0354  0.1134
12693W        W28767   9.060   0.359  12.633  0.2973 -0.0818 -0.2966
12694W        W28768  10.811  12.380   4.650  0.1667  0.1742  0.1363
12695W        W28769  17.084   7.245   2.138 -0.3197  0.1038 -0.1207
12696W        W28770  15.133   3.504  11.616  0.0189 -0.0794 -0.0231
12697W        W28771   5.549  12.667   4.674 -0.0005  0.1122 -0.2402
12698W        W28772   7.863   9.261   1.600 -0.0642 -0.2647 -0.0970
12699W        W28773   5.619   6.790   3.513 -0.2556  0.1930 -0.1541
12700W        W28774  17.276   5.535  14.344 -0.0720 -0.0309 -0.0128
12701W        W28775  13.738  15.122  11.810  0.1470 -0.1667 -0.1821
12702W        W28776  10.551   8.280  14.824  0.0785 -0.0486  0.0219
12703W        W28777   9.107  11.514  10.818  0.1400  0.0046  0.0394
12704W        W28778  16.642   6.480  12.315 -0.2235 -0.1137  0.0733
12705W        W28779   5.172   3.059   0.146  0.2587  0.0902  0.0332
12706W        W28780   7.590  10.480   6.618  0.4624 -0.1664 -0.2037
12707W        W28781  12.089  13.638   0.320 -0.1656 -0.3607  0.2048
12708W        W28782   0.249   3.345   4.869 -0.1239  0.0747  0.0021
12709W        W28783  13.209  11.567  15.944 -0.1118  0.1346 -0.0258
12710W        W28784   6.477  10.223   5.630  0.1552 -0.2545  0.0068
12711W        W28785   3.976   9.734   3.311 -0.0939  0.0482 -0.0069
12712W        W28786   0.901   2.184   6.109 -0.3084  0.1272  0.1305
12713W        W28787  14.148   5.279  12.401 -0.0807  0.0346 -0.2305
12714W        W28788   8.993  12.373  11.437  0.0854 -0.2317 -0.1281
12715W        W28789  11.160  11.857  13.389 -0.0738 -0.1935 -0.2325
12716W        W28790  18.066  17.071   0.230 -0.0461  0.0621  0.0425
12717W        W28791   0.326  15.500  15.620 -0.0079  0.2663 -0.0088
12718W        W28792   3.388  12.585   3.105 -0.0342  0.1840  0.2070
12719W        W28793  10.492  14.504   2.933 -0.1443  0.0723  0.1027
12720W        W28794   2.957  16.382   1.134 -0.3350 -0.0740 -0.0436
12721W        W28795   4.195   6.215  15.489  0.2472 -0.0897  0.3747
12722W        W28796   8.607  13.840   5.220 -0.1777 -0.2920  0.2921
12723W        W28797  17.725   7.730  16.065  0.4145  0.0236  0.2972
12724W        W28798   7.142   1.702  12.198 -0.1309 -0.2608  0.0639
12725W        W28799  17.638   7.067  11.878  0.1260  0.0554  0.0001
12726W        W28800  15.319   1.660   1.185 -0.0703 -0.1398  0.2643
12727W        W28801   1.125   7.499   2.684 -0.1146 -0.3073  0.0637
12728W        W28802  13.913  13.865   4.295 -0.0177 -0.0765  0.2244
12729W        W28803  18.210   7.235  11.784 -0.0985  0.0413 -0.1558
12730W        W28804  15.605   8.781  15.871  0.0418 -0.1095 -0.2014
12731W        W28805   4.373  17.124   4.703  0.1160  0.0858  0.0236
12732W        W28806  13.722  13.414   2.798 -0.3541  0.0298 -0.0500
12733W        W28807  13.067  14.729  14.243  0.2533 -0.1680 -0.1500
12734W        W28808   4.964   4.001   2.433 -0.0052  0.2563  0.0829
12735W        W28809  14.797  16.565  15.182 -0.0129  0.0887  0.1993
12736W        W28810   6.664   2.524   2.949  0.0089  0.1937  0.1978
12737W        W28811   4.526   0.063   3.605 -0.2130 -0.4397  0.2803
12738W        W28812   8.752   2.038  13.254 -0.1794  0.2163  0.1999
12739W        W28813  10.967   8.246  11.448  0.0716  0.2629 -0.1098
12740W        W28814   9.449  12.624   6.406 -0.0470 -0.1071  0.2313
12741W        W28815   3.914   4.607  13.924  0.1746  0.1144  0.0562
12742W        W28816   4.338   0.968  12.985  0.0394 -0.1855  0.0610
12743W        W28817   5.598   8.166   1.821  0.1998  0.1268  0.1658
12744W        W28818   1.468  10.755  13.716  0.0796 -0.3771  0.1006
12745W        W28819  16.635  11.085  13.485 -0.0463  0.0845  0.0978
12746W        W28820   7.905   4.956  16.190  0.0408  0.1732  0.2352
12747W        W28821   1.523  16.682  12.277  0.1092  0.1406  0.2535
12748W        W28822  10.909  15.130   0.576 -0.4011 -0.0775 -0.3823
12749W        W28823  12.365  16.127  15.318 -0.2562  0.0642  0.1093
12750W        W28824  16.641   8.456   0.878  0.2840  0.1136 -0.3477
12751W        W28825   6.141  10.165   5.094 -0.1344 -0.0286  0.3039
12752W        W28826   4.957   5.976   3.745  0.2984 -0.1957  0.1252
12753W        W28827   2.448  10.929   1.450  0.2095 -0.1096 -0.1384
12754W        W28828   2.316  17.793  12.008  0.1328 -0.0223  0.1676
12755W        W28829  17.825  10.029   2.781 -0.1291 -0.1778 -0.1789
12756W        W28830  10.327  13.395   4.416  0.0685 -0.1799 -0.1837
12757W        W28831  16.777   6.043  12.455 -0.1031  0.1725 -0.0053
12758W        W28832   0.657   4.335   2.217  0.0361 -0.0642  0.2463
12759W        W28833   1.413  16.210   0.801  0.2449  0.1788 -0.0718
12760W        W28834  12.590   2.640   1.009  0.2880 -0.1792 -0.1484
12761W        W28835   8.385  17.364   2.856 -0.2050 -0.1319  0.0186
12762W        W28836   3.321   5.912  14.913 -0.2559 -0.2845 -0.0043
12763W        W28837  11.698   9.759   0.595  0.2252  0.0388  0.0074
12764W        W28838   9.514   8.199   2.870 -0.0806 -0.1491 -0.0673
12765W        W28839   4.160  18.209  13.863  0.0159 -0.0288  0.1040
12766W        W28840   7.866   1.437  14.789 -0.1873 -0.0668  0.0601
12767W        W28841   8.773  14.414  14.815  0.0783 -0.1146  0.0614
12768W        W28842  14.853   4.599   2.615 -0.3656  0.0212 -0.0268
12769W        W28843  18.037   3.345   2.497  0.0096  0.1376  0.0708
12770W        W28844  13.754   9.114   1.267 -0.2468 -0.0691 -0.0184
12771W        W28845  14.073   1.607  12.920 -0.1920  0.2195  0.0744
12772W        W28846  14.881   2.669  14.451 -0.0382 -0.0836 -0.0188
12773W        W28847  13.079   4.218  12.267 -0.3008 -0.0188  0.1131
12774W        W28848  10.343   2.296   4.286  0.1163  0.1731  0.1597
12775W        W28849   1.362   4.841  14.970 -0.1501 -0.5597  0.0155
12776W        W28850  17.055   6.789   4.897  0.0616  0.0500  0.0258
12777W        W28851   6.826   6.310  14.958 -0.0168 -0.0374 -0.0183
12778W        W28852  17.194  17.214   1.817 -0.1346  0.0298  0.3331
12779W        W28853  14.095  15.756   0.575  0.2480 -0.0149 -0.0963
12780W        W28854   8.064   5.869  13.246  0.3017  0.1584  0.0182
12781W        W28855   6.835  10.589   4.984  0.1355  0.0424  0.0214
12782W        W28856   7.689   2.086  12.256 -0.1981  0.0733  0.0902
12783W        W28857  16.083   6.700  13.218  0.1533  0.1488  0.0545
12784W        W28858   1.276  12.925  12.224  0.1913 -0.0891  0.1019
12785W        W28859  10.039  15.753  11.996 -0.0845  0.0256 -0.1524
12786W        W28860   4.648   6.024  14.866 -0.0793  0.0293  0.1308
12787W        W28861   4.229  16.202   0.667  0.1763 -0.2243 -0.3630
12788W        W28862   0.459   4.176  14.948 -0.3018  0.3185  0.0812
12789W        W28863  15.373  11.558  13.748 -0.1387 -0.0115  0.2854
12790W        W28864  15.933  10.105   1.893  0.2255 -0.0194  0.0372
12791W        W28865   7.432   9.024   1.431  0.0676  0.0708  0.1053
12792W        W28866  17.918  15.690   4.714  0.1899 -0.2231 -0.0011
12793W        W28867  10.738  17.210  12.618 -0.0069  0.1004 -0.0915
12794W        W28868  13.227   4.280  13.263 -0.2341 -0.0413 -0.1230
12795W        W28869  12.146  10.884  12.813 -0.1019  0.1641 -0.2425
12796W        W28870  12.518  17.975  13.618 -0.1623 -0.0622 -0.1134
12797W        W28871   5.406  14.155   1.342 -0.0853  0.1579  0.3181
12798W        W28872  13.742  11.824   2.699 -0.4360 -0.1940 -0.2546
12799W        W28873  14.348  15.427  15.560  0.0581 -0.0447 -0.0462
12800W        W28874  11.542   9.527   4.670  0.0482  0.1213  0.1040
12801W        W28875   7.882  11.415   2.902  0.1965  0.0605  0.0098
12802W        W28876   0.271   6.184   1.066 -0.1222  0.0076  0.1321
12803W        W28877   0.809  10.623  11.599 -0.4309 -0.1391 -0.0622
12804W        W28878   2.188  17.904   0.281  0.0003 -0.2729  0.2842
12805W        W28879   0.052   2.558  14.265 -0.3442  0.3006 -0.0492
12806W        W28880  13.029  15.534   5.386 -0.2541  0.0224 -0.0802
12807W        W28881  11.785  15.500  12.510  0.2825 -0.3619  0.5499
12808W        W28882  12.692  10.357  13.737 -0.2679  0.0657  0.0889
12809W        W28883  10.521  10.166   1.157 -0.2640  0.4548 -0.3187
12810W        W28884  12.617   6.973   4.815  0.0963 -0.1247 -0.1187
12811W        W28885  16.776  13.555   6.153 -0.1298 -0.1317 -0.1870
12812W        W28886   5.827   1.801   4.604 -0.0681 -0.0705 -0.0795
12813W        W28887   5.209   3.177   2.644 -0.0860  0.0048  0.4613
12814W        W28888   8.009  17.870  14.132 -0.0069  0.0962  0.2957
12815W        W28889  16.965   7.440  11.231 -0.0618  0.2579  0.4512
12816W        W28890   3.419   6.167  12.067 -0.1142  0.1646  0.1174
12817W        W28891  18.136   1.831  12.066 -0.2679  0.1479  0.1194
12818W        W28892   1.332  11.310   1.793 -0.1571 -0.0586  0.1570
12819W        W28893  14.033   6.465  13.195  0.3821 -0.0869  0.0924
12820W        W28894   8.542  16.261  13.621 -0.1289  0.3150  0.1045
12821W        W28895   7.335  18.237   4.566 -0.1141 -0.0807  0.0177
12822W        W28896  11.178  15.460   2.107 -0.1176 -0.0331  0.2055
12823W        W28897   6.430   2.010  14.569 -0.0323  0.0378  0.1078
12824W        W28898  13.810   1.647   2.026  0.0409  0.2045  0.0654
12825W        W28899  12.231  12.708  12.255  0.4120  0.4651 -0.0595
12826W        W28900   2.401   0.418   1.905 -0.1752  0.3967  0.0240
12827W        W28901  18.206   9.788   3.767 -0.1044  0.1249  0.5584
12828W        W28902   5.717   0.005   0.738 -0.1743  0.2587 -0.2769
12829W        W28903  11.086  10.080  15.202  0.1561  0.2186  0.5468
12830W        W28904   2.215   0.170  12.453 -0.1870  0.1521 -0.0390
12831W        W28905  17.222   4.270  14.277 -0.1983  0.0977  0.0891
12832W        W28906  11.123   1.181   0.489  0.1642  0.2950 -0.0627
12833W        W28907   5.621  18.256  14.609  0.2686 -0.0584  0.3206
12834W        W28908  12.875  15.919   2.360  0.1039  0.0593 -0.1816
12835W        W28909  16.989  18.012   3.945  0.1470  0.1621  0.1207
12836W        W28910   4.174  13.219  12.933  0.4833 -0.1814 -0.0191
12837W        W28911   8.238   6.140   3.799  0.2195  0.1943 -0.1136
12838W        W28912   4.732   3.320  12.847  0.2123 -0.0557  0.1422
12839W        W28913  17.842  15.165   4.602 -0.2805 -0.3001  0.1317
12840W        W28914   5.183   5.982  11.371  0.0547  0.0003  0.4239
12841W        W28915  17.751   6.082   3.056  0.4061 -0.0971  0.1455
12842W        W28916   9.313  13.918   2.266  0.1059 -0.2453 -0.0137
12843W        W28917   4.150   2.730  14.189 -0.3798 -0.1497  0.0294
12844W        W28918   9.381   4.631  13.967  0.2510 -0.1490 -0.0664
12845W        W28919  14.734  17.908   4.594 -0.1884 -0.0834 -0.1453
12846W        W28920  12.588   7.660  14.795  0.0670 -0.2315 -0.1991
12847W        W28921  16.908   0.039   3.552  0.1091 -0.0502  0.3087
12848W        W28922   9.418  14.411   4.695 -0.3140  0.1433  0.1434
12849W        W28923   0.373  14.320   2.028  0.4849  0.4409  0.2292
12850W        W28924   7.550  17.255   3.724 -0.2441 -0.1394  0.0719
12851W        W28925  12.550   5.143   5.033  0.2052  0.0230  0.2700
12852W        W28926   4.752  10.126   1.112  0.1986  0.0573  0.0141
12853W        W28927   0.361   1.903  15.942  0.0152 -0.0994  0.0946
12854W        W28928   1.240   2.496   1.275  0.0895 -0.0499  0.0088
12855W        W28929  16.323  15.644   3.341 -0.1059  0.1565 -0.1994
12856W        W28930   9.634   8.025   0.702 -0.1864 -0.0418  0.1827
12857W        W28931  12.675   5.666  13.340 -0.1007  0.1886  0.0518
12858W        W28932  16.311   8.341  11.543 -0.4912 -0.0353 -0.1739
12859W        W28933  16.033   7.619  13.198  0.0660 -0.1675 -0.0878
12860W        W28934   3.756   9.065  12.551 -0.0090 -0.1676  0.1756
12861W        W28935   4.349   8.785   4.399 -0.1708 -0.1126 -0.5849
12862W        W28936   0.722   6.365  13.155 -0.0283 -0.2118 -0.2530
12863W        W28937   1.222  11.779   1.795 -0.1191  0.1873  0.0626
12864W        W28938   0.649   3.630   5.084  0.2439 -0.1323 -0.1005
12865W        W28939  14.369   7.668   5.786 -0.2695  0.1753  0.2443
12866W        W28940   1.068   9.480  11.487 -0.3025  0.0659  0.0274
12867W        W28941  17.884   0.076   5.143 -0.2050  0.2392 -0.1490
12868W        W28942   6.812  13.098  13.677 -0.0893 -0.2353 -0.1149
12869W        W28943  14.104   8.196   3.484 -0.0746 -0.1203  0.0147
12870W        W28944   9.846   6.556  10.275 -0.0778  0.0057 -0.0350
12871W        W28945   7.127   1.478  11.631 -0.0805 -0.1296  0.0831
12872W        W28946  16.242  15.949   1.004 -0.2271 -0.2891 -0.2673
12873W        W28947  14.928   7.458   5.241  0.0841  0.0928  0.0213
12874W        W28948   2.935  11.129   4.399 -0.0977 -0.0465 -0.1338
12875W        W28949  17.915   6.638   3.915  0.1263 -0.0237  0.2856
12876W        W28950  12.648  11.577  13.128 -0.0443 -0.2281  0.1501
12877W        W28951   4.638  13.525  13.059 -0.0985  0.2833  0.1418
12878W        W28952  17.679  12.906   1.333  0.1597 -0.0762  0.4443
12879W        W28953   3.608   1.680   3.315 -0.0040  0.2081 -0.0705
12880W        W28954   3.144   9.255   3.722 -0.1663 -0.0400  0.0197
12881W        W28955   5.140   7.362   3.035 -0.2851  0.3690 -0.0932
12882W        W28956  17.503  15.388  12.738  0.3259  0.0863  0.0050
12883W        W28957  14.151  10.409  14.395 -0.1581 -0.4658  0.0868
12884W        W28958  17.928  12.536  11.373  0.2186  0.1955 -0.0346
12885W        W28959  13.853  11.007   6.238  0.2655  0.2787 -0.2126
12886W        W28960  11.304   0.339  14.892 -0.0108 -0.0405  0.0164
12887W        W28961   8.129   2.039  12.475  0.2333  0.0551  0.0997
12888W        W28962   6.895  14.756   4.059  0.0323 -0.1629  0.2263
12889W        W28963  17.974  12.784   3.746 -0.0533 -0.2578  0.3636
12890W        W28964  14.264   4.058  14.888 -0.2347 -0.2097  0.1802
12891W        W28965   7.714   7.938   1.082 -0.1743  0.5152 -0.0559
12892W        W28966   5.361   1.946   3.230  0.0345 -0.5340 -0.1176
12893W        W28967   1.560   4.118  14.136  0.0411  0.0909 -0.1003
12894W        W28968  17.303  10.092   0.572 -0.1103  0.1292  0.2295
12895W        W28969  16.208  16.139   3.284 -0.0684 -0.2686  0.1660
12896W        W28970   6.454   7.892  15.804 -0.1675 -0.2115 -0.1259
12897W        W28971  12.085  15.785  13.422 -0.1343 -0.2659  0.0391
12898W        W28972   7.042   7.455  13.673  0.1521  0.1622  0.3190
12899W        W28973   5.067  17.162   2.255 -0.1653 -0.2416  0.2677
12900W        W28974  14.153   5.968  11.498 -0.0030  0.1138 -0.3481
12901W        W28975   9.009   1.388   2.204 -0.0275 -0.0324 -0.4434
12902W        W28976  14.383  14.935  15.765 -0.2647 -0.4076  0.2165
12903W        W28977   9.100   4.600   1.462  0.1479  0.0005  0.0450
12904W        W28978  16.435  14.100   0.730  0.0214  0.1792 -0.1137
12905W        W28979  11.823  12.876  13.109 -0.0540  0.1651  0.1017
12906W        W28980   5.593   3.206  15.398  0.0128  0.0357 -0.0685
12907W        W28981   3.773   2.547   1.744  0.1698 -0.1741  0.0699
12908W        W28982  16.653  11.183   5.203  0.2634  0.2270 -0.1507
12909W        W28983   1.403  11.327   4.721 -0.2108 -0.3135 -0.1633
12910W        W28984   0.996   9.619   4.575  0.3133  0.0232  0.1170
12911W        W28985   6.610  16.853  13.471  0.1722 -0.0590  0.2438
12912W        W28986   6.821  11.180  14.495 -0.0216  0.2036  0.1075
12913W        W28987  12.706   8.948  11.895  0.3614 -0.1676  0.1108
12914W        W28988   8.364  14.506  12.928  0.1208  0.1048 -0.1979
12915W        W28989   5.786  18.320   5.540 -0.2197 -0.1891 -0.1106
12916W        W28990   3.437   5.811   0.022  0.1262 -0.2035 -0.1242
12917W        W28991   4.066  14.224   6.290  0.1929 -0.2038 -0.1056
12918W        W28992   4.335   7.623  12.815 -0.3376  0.3905 -0.4490
12919W        W28993  11.860   3.155   5.494  0.0218 -0.3884 -0.0248
12920W        W28994   6.164   2.318  15.885 -0.4333 -0.0493 -0.3656
12921W        W28995  14.978   1.771   4.986 -0.2184  0.0249 -0.0162
12922W        W28996  12.275   5.848  11.462 -0.1394 -0.0842 -0.2491
12923W        W28997   5.862   5.165   4.544 -0.1607 -0.0492  0.1067
12924W        W28998  10.073   0.136   1.642 -0.1796 -0.0112  0.1293
12925W        W28999  13.408  16.271   4.941  0.1103  0.6202 -0.0161
12926W        W29000  11.522   8.522  13.713 -0.3221  0.0259 -0.1438
12927W        W29001   8.881  10.531   2.487  0.0222 -0.0208  0.0301
12928W        W29002   1.192   2.324  13.107 -0.2566  0.0800 -0.0952
12929W        W29003   1.705  15.609  13.632 -0.2870 -0.0915 -0.0888
12930W        W29004   6.684   8.330  12.001  0.1600  0.2108  0.0007
12931W        W29005   4.441   1.067  11.938 -0.0974  0.1504  0.1114
12932W        W29006   3.312   0.638   3.756  0.0512  0.1077 -0.1493
12933W        W29007  15.671  15.223   4.549  0.0066  0.3320  0.3462
12934W        W29008   7.954  16.361  15.245  0.2320 -0.1915  0.3618
12935W        W29009  11.315   4.236   1.288  0.0673 -0.0701 -0.2651
12936W        W29010   3.225  14.899  14.538  0.0674 -0.2581 -0.2246
12937W        W29011   7.522   5.327   0.707 -0.2248  0.1999  0.2153
12938W        W29012   0.352   8.320   5.978  0.0574  0.1800  0.0813
12939W        W29013   0.619   9.957  12.099  0.1786 -0.0146  0.1458
12940W        W29014   1.528   7.874   6.213  0.2836 -0.0280  0.0346
12941W        W29015   6.896   8.669  15.806 -0.0733 -0.0625 -0.0878
12942W        W29016   3.667  16.476   4.432  0.2514 -0.0406  0.3622
12943W        W29017  16.759  12.227  11.349  0.0713  0.0712  0.5569
12944W        W29018  12.526   1.736   4.469 -0.2323  0.3708 -0.0065
12945W        W29019   5.200   9.234   1.608  0.1681  0.1426  0.0350
12946W        W29020  18.018   1.444   5.506 -0.3349  0.3405 -0.0541
12947W        W29021  13.320   6.527  14.787  0.0856 -0.0214  0.1009
12948W        W29022   6.359  12.076   3.646 -0.1462 -0.0505 -0.3208
12949W        W29023   6.535   8.804   6.155  0.1821  0.3509  0.4760
12950W        W29024   7.065   8.977   2.762  0.1232  0.1802 -0.0931
12951W        W29025   8.929   9.813  11.288  0.1328 -0.1732 -0.0444
12952W        W29026   2.267  11.680  14.115  0.0875 -0.2132  0.1616
12953W        W29027  12.063   1.236   3.005 -0.0079  0.1443  0.3273
12954W        W29028   5.562  10.941  16.332 -0.0012  0.0596  0.0137
12955W        W29029  13.562  10.300  13.445 -0.1153  0.0984  0.0189
12956W        W29030  12.036   7.004   0.100 -0.0806  0.1566  0.0573
12957W        W29031   9.986   4.234   0.544 -0.2534  0.2510 -0.1621
12958W        W29032   9.978  10.781  15.582  0.0070 -0.3135  0.2936
12959W        W29033   9.121  15.537   4.739 -0.0775 -0.2245 -0.1931
12960W        W29034  13.859  14.449   3.022  0.0412  0.2138  0.1999
12961W        W29035  11.797  14.057  12.858 -0.1570  0.1609  0.2712
12962W        W29036  17.530  12.999   4.093  0.0004  0.0564  0.2736
12963W        W29037  13.319  17.215  12.857  0.2360 -0.3620 -0.0916
12964W        W29038  17.853   8.194   1.861  0.2368 -0.0967  0.2956
12965W        W29039   5.762   9.984  14.731  0.0581  0.1322  0.0877
12966W        W29040   9.432   9.148  15.245 -0.1189  0.3213  0.1290
12967W        W29041   0.856   9.976   1.767  0.1596 -0.3113  0.1195
12968W        W29042   4.045   0.434   3.274  0.0974 -0.0231  0.0435
12969W        W29043   3.332   4.771   0.715  0.1121  0.0511 -0.2401
12970W        W29044   6.394   3.234   0.076 -0.3314 -0.0116  0.2071
12971W        W29045  12.130  16.310  16.016 -0.2044  0.0785  0.0179
12972W        W29046  11.123  11.700  11.965 -0.2517 -0.2123  0.0689
12973W        W29047  12.897  12.556   1.011  0.3127 -0.0608  0.2936
12974W        W29048   4.750   7.945  12.887  0.1681  0.0386  0.1450
12975W        W29049   0.863  17.338   5.298  0.0989 -0.1261  0.0128
12976W        W29050  14.474  12.418  14.250 -0.0045  0.0975 -0.0683
12977W        W29051   4.156   2.417   3.024  0.1299  0.0587 -0.0087
12978W        W29052   2.682   9.748  15.236 -0.0466  0.0056 -0.2509
12979W        W29053  12.373   1.213  11.930  0.0285  0.0190  0.2301
12980W        W29054   9.919   9.104   4.106 -0.0619  0.0548 -0.1750
12981W        W29055  17.578   4.765   4.791  0.0124 -0.3721  0.1216
12982W        W29056   2.774  13.612  13.525 -0.1238  0.1976  0.1084
12983W        W29057   4.119   5.008  16.221 -0.2204 -0.1150  0.0692
12984W        W29058  17.999  13.752   1.338  0.0873 -0.1090  0.1690
12985W        W29059   8.607   4.009  11.851 -0.0156 -0.0367 -0.0587
12986W        W29060   5.469   1.634   4.221  0.0537  0.0512 -0.1004
12987W        W29061   6.322   4.033  14.573 -0.0884 -0.0431  0.2921
12988W        W29062  10.791   6.403   0.245  0.2604 -0.2493 -0.1674
12989W        W29063   9.494   8.752   2.722  0.0037 -0.1960  0.3632
12990W        W29064  11.266   3.604  15.407 -0.0042  0.1420 -0.2977
12991W        W29065  11.432   2.870   2.403 -0.0259 -0.2510  0.2726
12992W        W29066  15.912  11.209   2.866 -0.1741 -0.0111 -0.0975
12993W        W29067   7.696   8.719  13.743 -0.0525  0.0738 -0.2351
12994W        W29068   3.647   5.337  15.591  0.2545  0.0578  0.2913
12995W        W29069   0.977  10.173   2.408 -0.2934  0.2770 -0.1197
12996W        W29070   6.884  17.899  12.956  0.3743 -0.2770  0.0243
12997W        W29071   6.291   9.618   0.083 -0.1481  0.0355  0.3462
12998W        W29072   8.104   1.829  14.552  0.2175 -0.2442 -0.1229
12999W        W29073   0.227  13.817   2.507  0.0467 -0.0078  0.2587
13000W        W29074   8.899   4.835   3.004 -0.1042  0.1191  0.1646
13001W        W29075   7.565   9.012  13.360 -0.0505  0.2574 -0.1425
13002W        W29076   9.393   4.779  12.785  0.7854 -0.1168 -0.1400
13003W        W29077  17.827   8.618   5.342 -0.0491 -0.0816  0.0463
13004W        W29078  12.741   0.243  11.634 -0.1214  0.1680 -0.1152
13005W        W29079   0.902  11.709   2.796  0.2074  0.2269  0.1183
13006W        W29080  15.452   3.772  14.697  0.0316 -0.2039  0.4854
13007W        W29081  11.895  11.424   1.327  0.0331 -0.1229 -0.0384
13008W        W29082   5.343   5.991   2.448 -0.0029  0.1245 -0.1479
13009W        W29083   7.174   2.793   0.144 -0.0656  0.0256  0.1912
13010W        W29084   9.819   5.716  14.245  0.1554  0.0773  0.0461
13011W        W29085   0.570   1.299  13.222 -0.1571 -0.2282  0.0408
13012W        W29086  16.185  14.179  11.922 -0.2353  0.1366 -0.1484
13013W        W29087  14.930   8.196   1.959  0.4319 -0.0883 -0.0109
13014W        W29088   5.226   1.928  14.223  0.1447  0.1854  0.2022
13015W        W29089  18.196  18.321  16.207  0.3367  0.1697 -0.1114
13016W        W29090   7.498   2.110   2.719  0.0323 -0.1866 -0.0445
13017W        W29091  12.241   7.357  10.769  0.3486 -0.1650  0.1606
13018W        W29092   3.945   2.756   5.487 -0.1027 -0.1131  0.0376
13019W        W29093   4.956  14.732   4.011  0.3954  0.1769 -0.0773
13020W        W29094  12.439  11.405   1.500  0.5250 -0.1622 -0.0828
13021W        W29095   0.901   4.422  11.858  0.1591  0.0493 -0.0805
13022W        W29096   4.835  10.820  15.504  0.0217  0.1739  0.0571
13023W        W29097   4.763  10.684  16.270  0.3111 -0.2030 -0.1598
13024W        W29098  12.262   6.108   5.885 -0.2132 -0.0484  0.0216
13025W        W29099   6.487  15.045   0.426 -0.1197  0.3395  0.2207
13026W        W29100  15.187   3.781   2.411 -0.1807 -0.1634  0.2747
13027W        W29101   2.167   0.746   2.228  0.1524  0.1450  0.0935
13028W        W29102  10.271   5.440  11.228  0.0835  0.0504 -0.1463
13029W        W29103  11.645  12.177   5.050  0.0372 -0.2915 -0.1783
13030W        W29104   9.556  14.882   3.718  0.0734 -0.1448 -0.1452
13031W        W29105   6.900  14.765   0.494 -0.0599  0.1154 -0.1126
13032W        W29106   5.896  12.620  15.819 -0.0863 -0.3649 -0.2083
13033W        W29107   7.231   4.890   4.571  0.0058  0.0137 -0.0064
13034W        W29108  16.991   3.965  15.507  0.0021  0.1861 -0.0341
13035W        W29109  15.295  12.894   5.129  0.0459 -0.1137 -0.1602
13036W        W29110   6.163   2.552   1.248  0.1340 -0.1557 -0.2097
13037W        W29111  12.403  13.599   4.094 -0.4935 -0.1356  0.0922
13038W        W29112  14.689   3.079  14.647 -0.1521 -0.3799 -0.1075
13039W        W29113  18.155  11.466  15.348 -0.0257  0.2583  0.1075
13040W        W29114  13.244   5.106  12.111  0.2280  0.2555  0.1633
13041W        W29115  11.497   4.913  14.999  0.1322  0.0622  0.0039
13042W        W29116  12.050   7.025   4.815  0.1268  0.0040  0.0739
13043W        W29117  13.887  13.059   4.950  0.0924  0.1562  0.0865
13044W        W29118  10.086   4.954  11.077  0.1149  0.0267 -0.3685
13045W        W29119   4.508   8.201  12.555  0.1445 -0.1101 -0.3226
13046W        W29120  15.668  12.409   2.086 -0.3769 -0.0118  0.0577
13047W        W29121   7.459  10.135   4.252  0.0163  0.0226 -0.0138
13048W        W29122   5.288   3.786   0.747  0.0581  0.3073 -0.1676
13049W        W29123   2.859   7.763   5.942  0.2254 -0.0977 -0.2252
13050W        W29124   6.597  18.105   5.285  0.1766  0.0546 -0.1070
13051W        W29125  15.261  15.726   1.351  0.1364  0.1562  0.0399
13052W        W29126   1.826  12.997  15.039  0.1060 -0.1116  0.2234
13053W        W29127   0.479   2.284   3.498 -0.0744 -0.2051  0.1163
13054W        W29128  13.815   7.731   4.115 -0.0942 -0.3843 -0.1727
13055W        W29129  12.660  14.200   4.377 -0.1498 -0.3351  0.2816
13056W        W29130  15.139   7.140  10.926  0.2464  0.0195  0.0262
13057W        W29131   4.924   3.468  13.294 -0.3202  0.2185  0.0859
13058W        W29132  15.864  14.411   1.754 -0.0968 -0.1551  0.4361
13059W        W29133  14.208   0.442   2.123 -0.1512  0.0337 -0.3026
13060W        W29134   8.654  14.091  12.979  0.0292 -0.2015  0.3662
13061W        W29135   3.150   0.689  14.333  0.0053 -0.0025  0.1571
13062W        W29136  13.860   3.823  14.683 -0.1398 -0.0997  0.0422
13063W        W29137  16.377  15.165   0.421 -0.1677  0.4013  0.0603
13064W        W29138   5.858   0.259  14.887  0.2667  0.1220  0.1445
13065W        W29139   5.464   1.966   3.746  0.0977  0.1629  0.1089
13066W        W29140   0.634  17.132  15.411  0.1128  0.2903  0.0129
13067W        W29141   1.615   5.013  15.379 -0.1818 -0.2354 -0.3580
13068W        W29142  12.198  14.204  13.128  0.0901 -0.0819  0.0330
13069W        W29143  12.410   3.074   5.513  0.1529  0.1702 -0.1149
13070W        W29144   5.845   3.415  10.211  0.2049  0.2657 -0.0561
13071W        W29145   0.547   5.874   4.367  0.0748 -0.1263  0.1174
13072W        W29146   7.270   9.594  15.621  0.3404 -0.1745 -0.0627
13073W        W29147  14.487   8.140   0.479 -0.1465 -0.2078  0.0843
13074W        W29148   6.188  11.404  14.129 -0.0221 -0.0804 -0.0723
13075W        W29149   8.813  11.654   4.601  0.1124 -0.0115  0.0791
13076W        W29150  17.498   8.158   2.205 -0.2557 -0.0316 -0.0068
13077W        W29151   0.427  15.222  14.371 -0.0794  0.0665 -0.2327
13078W        W29152  11.526  16.621  15.424 -0.1327  0.0669 -0.0240
13079W        W29153   2.820   1.773   1.212 -0.2089 -0.0223 -0.2049
13080W        W29154  11.876   8.894   3.444 -0.5293  0.4372 -0.1109
13081W        W29155  10.165  16.668   3.653  0.1739 -0.0923  0.1353
13082W        W29156  12.604   1.558  14.540  0.1419 -0.0669  0.2315
13083W        W29157   2.682   0.772   0.948 -0.2354  0.0062 -0.1365
13084W        W29158  14.189  11.268  11.938  0.2544 -0.2022 -0.1287
13085W        W29159   5.326  11.038   5.009 -0.0040 -0.4061  0.2831
13086W        W29160   5.114   1.058   1.294  0.1370 -0.0255 -0.0921
13087W        W29161   5.297  17.508  11.361  0.1444  0.3267 -0.2031
13088W        W29162  14.058  11.023  13.081  0.0298  0.0524  0.2526
13089W        W29163   1.072   8.702   0.131  0.0816  0.1007 -0.0069
13090W        W29164   4.444  13.113  14.680 -0.0138 -0.4319  0.0480
13091W        W29165   6.771  12.924   4.914  0.0978  0.1316 -0.0194
13092W        W29166  10.763  12.495   4.178  0.3995  0.4478  0.2324
13093W        W29167   9.848   5.353   3.970 -0.0060  0.3849  0.0640
13094W        W29168  13.195  14.936   3.603  0.0032  0.1310 -0.1722
13095W        W29169   0.133  12.327   1.266 -0.1313 -0.2314  0.1091
13096W        W29170   2.270   8.726   1.138  0.0362 -0.0710  0.0901
13097W        W29171   6.086   9.313  12.396 -0.2188  0.0216 -0.2719
13098W        W29172  16.284  16.588   4.724  0.0178  0.2164  0.0431
13099W        W29173  10.214  16.386   0.102 -0.0179  0.0799  0.0979
13100W        W29174   7.558   2.178  16.088 -0.1044  0.0284 -0.0567
13101W        W29175   9.948  17.959  12.800 -0.1455 -0.3425  0.0015
13102W        W29176  15.681   2.729   1.759 -0.2305  0.0189  0.0422
13103W        W29177   9.134  15.583   4.059 -0.1737  0.2828  0.0763
13104W        W29178  15.109  13.845  14.240 -0.0025 -0.2281 -0.3152
13105W        W29179   8.561  13.016   5.704 -0.1746  0.2212  0.0549
13106W        W29180  16.478  13.062  14.304 -0.0508  0.0922 -0.2308
13107W        W29181   4.231  16.995   1.885 -0.0992 -0.1966 -0.2274
13108W        W29182   1.934   1.954   4.877  0.1333 -0.2802  0.0305
13109W        W29183   2.752   0.447  15.177 -0.3839  0.3452  0.1030
13110W        W29184   3.324  15.850  14.866 -0.0073 -0.0150  0.0022
13111W        W29185  10.937   8.053   5.557 -0.1384 -0.0211  0.1052
13112W        W29186   3.692   5.545  12.166 -0.2441 -0.0648 -0.2347
13113W        W29187  17.725  12.868  14.345 -0.1004 -0.0122  0.0788
13114W        W29188   7.049   4.946   3.834 -0.2734 -0.2151 -0.2861
13115W        W29189   2.633   8.820   0.805 -0.1276  0.1550  0.1877
13116W        W29190   2.785  10.281  13.852  0.1017  0.0135  0.0074
13117W        W29191  14.655   3.599  14.900 -0.2629 -0.1843 -0.2312
13118W        W29192   6.583   3.537   0.491 -0.0146  0.0822 -0.0986
13119W        W29193   8.353   6.867   4.698  0.2094 -0.2023  0.1611
13120W        W29194   4.472  12.725   2.583 -0.0329  0.3472 -0.0147
13121W        W29195   6.420   8.682   3.989  0.2974  0.3290  0.1648
13122W        W29196   1.014  12.689  14.606 -0.2289  0.1456 -0.0977
13123W        W29197  12.631  15.203   3.390 -0.0226  0.2300 -0.1351
13124W        W29198   4.067   9.204  16.240  0.0182  0.3384  0.0539
13125W        W29199   4.131  11.319   4.118 -0.1608 -0.0290  0.0970
13126W        W29200   4.518   7.466  14.661  0.1047 -0.3101 -0.4593
13127W        W29201   1.927  12.160  12.397 -0.0331  0.0903 -0.4258
13128W        W29202   1.482  14.113   3.139 -0.0953  0.1851  0.1012
13129W        W29203   7.012   7.677   9.969  0.0510 -0.1077  0.1822
13130W        W29204  15.373  11.381  16.099  0.0699  0.1445 -0.1685
13131W        W29205  16.544   9.395  12.544 -0.0699  0.1762  0.1021
13132W        W29206   4.036  18.199  14.461 -0.0689 -0.1050  0.2423
13133W        W29207  17.177   8.957  14.343  0.1385  0.2219 -0.0370
13134W        W29208  10.273   3.486  15.984 -0.1016  0.1392 -0.1349
13135W        W29209  16.476   8.130   2.227  0.0934 -0.4828  0.0320
13136W        W29210   6.214  17.209  13.165 -0.1257  0.0331  0.2638
13137W        W29211  15.730   1.928   1.554  0.0194 -0.0378  0.0358
13138W        W29212   0.244  10.211  12.701 -0.0229 -0.2093 -0.2576
13139W        W29213  14.352  15.396   5.668 -0.1095  0.1682  0.0702
13140W        W29214   7.164   2.365  10.805 -0.1931 -0.0596  0.3972
13141W        W29215   2.177   6.126   4.399 -0.3450 -0.0545 -0.2076
13142W        W29216  12.146   9.696   2.454 -0.4040  0.3697 -0.2711
13143W        W29217  14.651  16.210   0.281 -0.1047  0.3107  0.0976
13144W        W29218  13.910  10.332  11.802  0.2077  0.4122 -0.0070
13145W        W29219  14.563   1.634   5.830 -0.3681 -0.4838  0.0131
13146W        W29220  14.718   6.265   1.363 -0.0144 -0.1700 -0.0558
13147W        W29221   6.367   3.761  14.972  0.1671 -0.2440  0.1489
13148W        W29222   3.742   3.802   4.686 -0.0186 -0.2179 -0.1021
13149W        W29223  12.681  12.261   6.396  0.1339  0.0244  0.1546
13150W        W29224   3.657   6.845   5.483  0.0025  0.0095  0.1524
13151W        W29225  13.933   3.092  15.332 -0.0267 -0.2700 -0.0606
13152W        W29226  13.297   8.782   1.522  0.1470  0.0621  0.0515
13153W        W29227   0.861  18.286  13.479 -0.1706  0.1255 -0.0871
13154W        W29228  17.736  15.901   3.411  0.3351  0.2626 -0.0301
13155W        W29229   0.759   9.091   3.784 -0.0855  0.0257 -0.0202
13156W        W29230  17.330   6.273   3.299  0.3168 -0.0066  0.0639
13157W        W29231   8.386   6.355   1.000  0.2228 -0.3170  0.5128
13158W        W29232   7.039  14.388  14.074 -0.1605 -0.0168  0.1085
13159W        W29233  16.326   1.795   5.678 -0.0207 -0.1764  0.2820
13160W        W29234   7.486  16.322   4.211  0.2880  0.1751  0.1620
13161W        W29235  13.510   7.353  15.237  0.1577  0.0944 -0.2516
13162W        W29236  12.153   0.747   0.932  0.2412  0.0497  0.0560
13163W        W29237  13.390  11.487  12.559 -0.1543 -0.0826  0.0910
13164W        W29238   4.346   0.268  14.458 -0.0947  0.1663  0.2551
13165W        W29239  15.584  15.104   3.635  0.3127 -0.0048  0.3188
13166W        W29240   9.516   7.423  16.301  0.1718 -0.0935 -0.0056
13167W        W29241  16.187  18.069  14.125 -0.3249  0.0465  0.2064
13168W        W29242   8.879   2.631  12.411  0.1392  0.0329 -0.0971
13169W        W29243  15.010  18.287   2.458 -0.3775  0.1612  0.3517
13170W        W29244   5.299   1.283  15.257 -0.0010 -0.2634  0.1137
13171W        W29245  16.681   9.311   5.431  0.0304  0.0791 -0.2546
13172W        W29246   8.849   2.551   0.009  0.2610  0.3564  0.2157
13173W        W29247   6.048  10.101   0.978 -0.1233 -0.0878  0.1085
13174W        W29248  16.435   3.441   3.136  0.0752  0.2579 -0.0074
13175W        W29249  12.645   3.708  15.287  0.1324 -0.3446  0.2439
13176W        W29250   8.371  12.153  16.053 -0.2353 -0.2192  0.0926
13177W        W29251   9.258  16.585   0.090  0.1810  0.0008 -0.1327
13178W        W29252   9.926  14.081   5.353 -0.0921 -0.1309 -0.0070
13179W        W29253  18.128  17.400  15.584 -0.0240 -0.2583 -0.3954
13180W        W29254  13.909  13.488   5.220  0.1221 -0.0981  0.0607
13181W        W29255   3.371   0.638   0.403  0.1411  0.0768  0.1066
13182W        W29256   3.496   0.200   3.591  0.0343 -0.2531 -0.2913
13183W        W29257   1.386  13.315  15.735 -0.0176  0.4830  0.0273
13184W        W29258   9.152   5.264   2.080  0.0436  0.0655 -0.1677
13185W        W29259   1.661  16.759   4.967  0.0762  0.3658 -0.4485
13186W        W29260   2.176   6.641   4.530 -0.1470 -0.1425  0.2188
13187W        W29261   7.508   5.454   1.219 -0.1125 -0.0839 -0.0731
13188W        W29262   1.135  16.177  14.241 -0.0145  0.0834  0.0366
13189W        W29263  12.455   6.643  12.136 -0.1154  0.0720  0.0782
13190W        W29264  17.648   2.299   4.582  0.3934  0.4384 -0.2445
13191W        W29265   1.128   3.982  11.933 -0.0741 -0.0619  0.0223
13192W        W29266   0.034   4.782  13.460  0.0001  0.0158  0.0248
13193W        W29267   3.054   9.122   1.403 -0.0106 -0.0527  0.0114
13194W        W29268  15.783  14.203   2.417 -0.1492  0.0473 -0.0181
13195W        W29269  13.592  13.387  13.998  0.0978 -0.0144  0.2269
13196W        W29270  14.004  13.035  14.901 -0.0880 -0.4242  0.1405
13197W        W29271  10.302   2.827  14.343  0.0778 -0.4079 -0.1288
13198W        W29272   6.242  10.134   2.230  0.0795  0.0415 -0.2723
13199W        W29273  12.106   8.964  16.157  0.2176  0.1511 -0.0604
13200W        W29274  11.846  15.059  14.259  0.1959  0.1618  0.1559
13201W        W29275   5.993  14.889  12.301 -0.0016  0.1766  0.1895
13202W        W29276  14.075   5.635   4.402  0.0003 -0.3471 -0.3761
13203W        W29277   1.691  13.661   3.095 -0.0360  0.0498 -0.1936
13204W        W29278  14.948  15.304   5.326 -0.1579 -0.3247 -0.0317
13205W        W29279   4.014   5.399  14.379 -0.2570  0.2115  0.0320
13206W        W29280  16.461   9.838  14.435 -0.1405 -0.1323 -0.2999
13207W        W29281   1.432   8.777  12.173 -0.0008 -0.1998 -0.0147
13208W        W29282   7.779   4.205  10.907 -0.3229  0.1166 -0.1627
13209W        W29283   2.413   5.057  15.453  0.1232 -0.0047  0.0078
13210W        W29284   4.215  13.951  15.643  0.0325 -0.1408 -0.2326
13211W        W29285   8.363   6.553   3.058  0.3136  0.1094 -0.1504
13212W        W29286   6.706   8.227   0.212  0.0471 -0.1591 -0.1977
13213W        W29287  17.306   8.087   3.105  0.1942  0.0975 -0.2827
13214W        W29288   8.633  13.859   2.870 -0.2667 -0.0189 -0.3139
13215W        W29289  10.529  10.434   1.705 -0.0496 -0.3151 -0.0268
13216W        W29290  13.761   4.367   2.723 -0.0918 -0.2130  0.0437
13217W        W29291  15.087  17.892  10.542  0.0770 -0.0299 -0.0895
13218W        W29292  16.196   5.319  13.541 -0.1552 -0.4026 -0.0019
13219W        W29293   1.538  11.153   1.365 -0.1470 -0.0580 -0.1243
13220W        W29294  16.784   7.968   0.317 -0.1294  0.1224 -0.0928
13221W        W29295  13.166  12.597  13.983  0.2163 -0.0292  0.0536
13222W        W29296   7.420   1.302  12.045 -0.3328 -0.0075  0.0286
13223W        W29297   3.596   6.371  14.235 -0.0207 -0.1329 -0.0085
13224W        W29298  10.896   7.920   1.769 -0.2200  0.3480 -0.2000
13225W        W29299   6.931  11.683  13.307 -0.0579  0.0408  0.1717
13226W        W29300  15.975  16.358  11.744  0.1128  0.4286 -0.0785
13227W        W29301  15.768   6.727  16.000  0.0320 -0.0300 -0.0549
13228W        W29302   8.494   4.693   2.238 -0.0977 -0.3019  0.0253
13229W        W29303   8.630   8.138   3.270 -0.0693  0.0744 -0.1108
13230W        W29304   5.600  11.087   3.137  0.0298  0.2290 -0.1063
13231W        W29305  11.458  12.334   2.089  0.0938  0.1901 -0.0875
13232W        W29306   0.126  10.477   4.804  0.1945  0.1486 -0.0941
13233W        W29307   9.325   8.321   0.209  0.2464 -0.2122  0.0083
13234W        W29308   3.657   6.553  15.802  0.2729 -0.2442  0.0204
13235W        W29309   2.085   1.486   3.487  0.1177  0.0422  0.1450
13236W        W29310  14.117   4.767  12.201 -0.0381  0.0391 -0.2336
13237W        W29311   8.356   9.680   4.045  0.6116 -0.0449 -0.0688
13238W        W29312  10.010  10.617   4.276  0.1191 -0.3497  0.0762
13239W        W29313   1.971  12.223   1.896  0.1025 -0.2808 -0.0369
13240W        W29314   0.505  14.324  11.508  0.3483  0.0464 -0.0051
13241W        W29315   3.414  17.080   3.789 -0.1402  0.0816 -0.0104
13242W        W29316   5.671   2.643   4.588  0.3422  0.0192 -0.0140
13243W        W29317  14.005  11.967  14.122 -0.4120 -0.3259 -0.1639
13244W        W29318   4.209  13.383   5.442  0.1112 -0.0698 -0.0260
13245W        W29319   8.676   0.695  11.550 -0.3905  0.2799  0.0483
13246W        W29320   2.614   7.637  14.927  0.1260  0.2497 -0.2353
13247W        W29321  13.386  17.582   5.876 -0.0226  0.0838 -0.1563
13248W        W29322  12.704   5.408  12.897  0.1669 -0.0942  0.2455
13249W        W29323  11.080  15.762  11.709 -0.1296  0.1122  0.0089
13250W        W29324   8.769  11.237  13.012  0.1694  0.3371  0.1353
13251W        W29325  17.113  13.952   2.055  0.2324 -0.0516  0.0225
13252W        W29326  12.068   8.316  12.945 -0.0278  0.4369  0.0875
13253W        W29327  10.565   8.794   3.385 -0.2318  0.0494  0.3872
13254W        W29328  17.264  12.163   3.049 -0.0561 -0.0586 -0.0599
13255W        W29329   5.501   0.288   4.637 -0.1372  0.2954  0.0983
13256W        W29330   7.369   9.769   0.290  0.2668  0.0271 -0.1697
13257W        W29331   4.957   1.653   4.489 -0.2411  0.2734  0.0149
13258W        W29332  11.307   2.876   3.486 -0.3931 -0.1401  0.2785
13259W        W29333   6.036   6.956   5.896  0.1020  0.0948  0.1936
13260W        W29334   4.293   8.396  14.659 -0.1753  0.3041  0.5568
13261W        W29335  16.729   4.551  14.936 -0.1333  0.5040  0.0655
13262W        W29336   9.840   3.616  14.965  0.0190 -0.1133  0.2390
13263W        W29337   3.635  16.951   1.634 -0.1808  0.3438 -0.0962
13264W        W29338   9.241   6.502  12.353 -0.0498 -0.1371 -0.0255
13265W        W29339  16.036  17.401  12.656 -0.1683  0.0305  0.3297
13266W        W29340  15.053   5.971   5.510 -0.2719  0.1717 -0.0135
13267W        W29341  11.767   0.849  10.389  0.2336  0.5027  0.2789
13268W        W29342   8.864  13.145  11.919 -0.0988 -0.0990  0.0125
13269W        W29343  16.723  13.421   3.278 -0.0137  0.0459  0.2991
13270W        W29344  13.511   8.980   0.273 -0.1746  0.2388 -0.0972
13271W        W29345   0.186  14.406  12.727 -0.0251 -0.0724  0.0307
13272W        W29346   6.676   9.429  13.989  0.1244 -0.3074  0.0833
13273W        W29347  12.326  15.467   0.039  0.1893  0.1816  0.0795
13274W        W29348  18.073  10.734   4.965 -0.1099 -0.1383  0.1403
13275W        W29349   9.896  11.879  13.200  0.1291 -0.0596  0.1700
13276W        W29350  17.333   1.844   3.002 -0.2890 -0.2035  0.0290
13277W        W29351   8.715  14.858   6.115 -0.0785 -0.1394  0.1682
13278W        W29352  13.437   5.807   4.905 -0.0383 -0.0588  0.0181
13279W        W29353  17.869   0.686  14.636 -0.1285  0.2913 -0.3879
13280W        W29354  14.028  13.689   0.220 -0.2510  0.0313  0.2118
13281W        W29355   4.812  10.403   5.165  0.0850 -0.1487 -0.1613
13282W        W29356   5.699   7.168   0.109 -0.1440 -0.2320  0.3349
13283W        W29357   6.868   7.966   4.252  0.1574  0.3461 -0.5083
13284W        W29358   8.384  13.421  11.947  0.4420 -0.1836 -0.4699
13285W        W29359   4.596   9.834  11.654  0.4874 -0.1100 -0.0823
13286W        W29360   7.953   2.691  10.992 -0.0360  0.0482  0.0841
13287W        W29361  15.542   9.953  16.316  0.0745  0.2656  0.0808
13288W        W29362  10.277   8.916  15.375  0.1995 -0.1283  0.1970
13289W        W29363  17.400   9.396  16.135 -0.0823  0.1200  0.1180
13290W        W29364   8.168  12.895   1.890  0.0882 -0.0149 -0.6790
13291W        W29365   7.953   8.738   0.324 -0.1632 -0.0393  0.1270
13292W        W29366  14.165  16.174  12.302  0.1528  0.0700  0.0243
13293W        W29367  11.648  15.641   2.903 -0.2360 -0.0340  0.3419
13294W        W29368   0.099  15.650   2.758 -0.1034 -0.1211 -0.0540
13295W        W29369   9.793   7.045   2.938  0.1669  0.0401  0.2814
13296W        W29370  11.077  13.269   2.877  0.3263  0.3429  0.2346
13297W        W29371  16.470  10.857   4.731 -0.2517  0.1321 -0.1597
13298W        W29372   0.487  15.106   4.899  0.1761  0.0507 -0.0896
13299W        W29373   6.821   6.832   1.902  0.2668  0.4170 -0.2313
13300W        W29374   0.993  15.386   1.732  0.0077 -0.3744  0.3195
13301W        W29375  16.413   6.356  13.269  0.2449 -0.1684  0.1623
13302W        W29376   9.132   0.952  12.545 -0.1082  0.2165 -0.1874
13303W        W29377   6.791   3.193  13.085 -0.1870  0.1362 -0.1164
13304W        W29378   9.037   3.327  15.237  0.4098 -0.1929  0.1744
13305W        W29379   1.619  10.964  11.445  0.1427  0.1968 -0.1694
13306W        W29380   8.564   4.241  14.309  0.0451  0.0053 -0.2369
13307W        W29381   0.840   5.341   3.171  0.0282  0.1311 -0.0164
13308W        W29382  15.039  11.818   5.903 -0.3134 -0.0021 -0.0224
13309W        W29383   1.167   0.623  15.958  0.2329 -0.0478  0.0380
13310W        W29384  13.227  12.643  14.975  0.2381 -0.3718  0.0945
13311W        W29385   5.284   9.618  15.900 -0.1160 -0.2203 -0.1648
13312W        W29386   7.003  14.704  12.183 -0.1405 -0.1856  0.1250
13313W        W29387   0.875  18.219   5.675  0.0502 -0.2735 -0.2489
13314W        W29388  11.774   9.029  15.487  0.3144  0.1439  0.0948
13315W        W29389   7.360   8.455   3.287  0.0589 -0.3593  0.2032
13316W        W29390   0.606  13.695  16.079 -0.1109 -0.0297  0.0006
13317W        W29391   6.066   3.798   2.447  0.2407  0.2827 -0.2311
13318W        W29392  10.663  16.360  14.856 -0.1250 -0.0463 -0.4459
13319W        W29393   0.741   6.021  15.915 -0.1328  0.0433 -0.3432
13320W        W29394   5.326  12.153  12.452 -0.5189 -0.2641 -0.1858
13321W        W29395   3.677   0.627   1.252  0.0084  0.1436  0.1482
13322W        W29396   5.467   9.436  13.857  0.0618  0.0260 -0.0166
13323W        W29397   7.161   3.055  11.399  0.0661 -0.2208 -0.1272
13324W        W29398   1.303  10.081  14.983 -0.1241  0.2460 -0.3738
13325W        W29399  11.588   4.573   1.725  0.0641  0.0408 -0.2195
13326W        W29400   9.432   5.402  14.241  0.0100  0.2052  0.3138
13327W        W29401   4.270   6.831  14.552 -0.1313  0.1950 -0.2944
13328W        W29402  10.525   2.854   0.312  0.2568 -0.1405 -0.1311
13329W        W29403  11.661  16.343   4.938  0.2301  0.0916  0.2317
13330W        W29404  13.929   8.907   2.069 -0.0209 -0.1478 -0.2030
13331W        W29405  10.429  14.680  14.042  0.1031  0.1071 -0.2922
13332W        W29406  11.243   4.737   0.439  0.0344 -0.2697  0.0256
13333W        W29407   1.783  15.729  12.223 -0.1368 -0.0020 -0.1042
13334W        W29408  10.477   7.517  12.930  0.0891 -0.3345  0.1598
13335W        W29409  12.969  15.022  11.724 -0.0603  0.0261 -0.2798
13336W        W29410   8.479   9.172  11.607 -0.4745 -0.0952  0.1552
13337W        W29411  10.510  12.500   0.147 -0.3159  0.0284  0.0269
13338W        W29412   3.247  18.187   2.106  0.6748 -0.0280  0.2499
13339W        W29413   2.322  12.942  15.950  0.0525 -0.1061  0.1872
13340W        W29414  14.645   1.463  11.926 -0.2156  0.0342 -0.0403
13341W        W29415   6.105  15.284  14.947 -0.1055 -0.1603 -0.0839
13342W        W29416  14.926   1.099   4.303  0.2117 -0.1073 -0.3485
13343W        W29417   6.143   2.990  12.327  0.3326 -0.2081 -0.5030
13344W        W29418   6.945   4.362   2.551 -0.0474  0.3498  0.3079
13345W        W29419  16.613   7.426  13.180 -0.1792 -0.0810 -0.3135
13346W        W29420  15.714  11.628   2.563  0.0033 -0.0366  0.2040
13347W        W29421  16.319   6.329  14.416  0.0886  0.0587 -0.0597
13348W        W29422   6.020  12.777  12.607 -0.1172  0.1183  0.2528
13349W        W29423  10.782  14.935   3.529 -0.0042 -0.1778 -0.0426
13350W        W29424   3.101  17.571   1.236  0.0455 -0.1427  0.0360
13351W        W29425  11.851  17.484  14.844  0.0285  0.0706  0.0165
13352W        W29426  13.569   7.634   3.247  0.4962 -0.0206  0.0526
13353W        W29427  17.149   1.946  11.700  0.2030 -0.0219  0.0479
13354W        W29428  11.317   7.402   0.268  0.2015  0.1309 -0.1369
13355W        W29429   0.638  18.132  13.034 -0.0305 -0.1215  0.2073
13356W        W29430   2.024   4.045   0.272  0.0266 -0.0907 -0.2281
13357W        W29431  18.087   9.709   0.978  0.1294 -0.1996 -0.2198
13358W        W29432  17.920  15.373   1.826  0.0654 -0.0463  0.0501
13359W        W29433   8.573   9.896   3.279  0.0091 -0.1697 -0.2299
13360W        W29434   8.101  12.497  10.976 -0.0264 -0.0577  0.4101
13361W        W29435   1.822  15.607   1.550  0.0199  0.1135 -0.1106
13362W        W29436   8.945   7.792   4.872 -0.1630 -0.1010  0.1501
13363W        W29437  14.240   3.748   1.120  0.3089 -0.1246  0.1316
13364W        W29438   3.398   9.779  13.156 -0.0206 -0.0821  0.0363
13365W        W29439   1.584  13.852   4.962 -0.3964 -0.2725 -0.0020
13366W        W29440   7.135   8.217  15.169  0.1986 -0.1854 -0.0710
13367W        W29441   5.868   8.134   2.272 -0.0309  0.0985  0.1725
13368W        W29442  16.969  10.797   0.344 -0.3554  0.0140  0.4188
13369W        W29443   5.809  10.838   3.935  0.3080 -0.3305  0.1363
13370W        W29444  18.245   0.395   5.190 -0.4639  0.0333 -0.2573
13371W        W29445   9.254   8.588   3.139  0.0885 -0.4331 -0.0126
13372W        W29446   2.784   7.309  15.359 -0.1464 -0.0860 -0.3499
13373W        W29447   9.526  15.869  14.554 -0.1380  0.1076 -0.1014
13374W        W29448  12.851   5.706   1.285 -0.1707 -0.1835  0.0587
13375W        W29449   9.047  12.100  12.814 -0.0362 -0.0332 -0.0163
13376W        W29450   5.764  12.959   1.017 -0.0477  0.2272 -0.1223
13377W        W29451   3.248   4.326  13.737 -0.0853 -0.2015 -0.1106
13378W        W29452  13.652   4.000   5.166 -0.2358  0.0700 -0.0181
13379W        W29453  10.547   5.170   3.202  0.2176 -0.2205  0.0002
13380W        W29454  13.185   0.924  14.079  0.1745 -0.3736  0.1929
13381W        W29455   5.241  14.209   4.787  0.0574 -0.0408 -0.2564
13382W        W29456   0.406  11.269   4.560  0.1236 -0.3090 -0.3601
13383W        W29457  17.692   8.901  14.531  0.0429  0.2619 -0.1651
13384W        W29458  11.867  16.687   3.695 -0.3476  0.1994 -0.2092
13385W        W29459   7.415   4.928   0.040  0.3088  0.0971  0.3576
13386W        W29460   9.519   7.007   4.359  0.0193  0.1093  0.2158
13387W        W29461   5.224  10.572   0.036  0.0344 -0.0059  0.1287
13388W        W29462   4.055   3.510   0.823  0.0095  0.1917 -0.2671
13389W        W29463  16.259  18.133   4.704  0.0134 -0.1965 -0.0904
13390W        W29464   4.822  13.063  11.511 -0.1463  0.1354 -0.0002
13391W        W29465   1.507  10.843   1.781 -0.0642 -0.0975 -0.0214
13392W        W29466  17.242   0.511  13.135  0.4240  0.1819  0.2859
13393W        W29467  16.656  16.010  12.714 -0.1233 -0.2176  0.0998
13394W        W29468   7.779  14.419   0.027 -0.1808  0.0453  0.0328
13395W        W29469   7.051  10.164   0.954 -0.3956 -0.1315 -0.0795
13396W        W29470   5.714  12.499  13.483 -0.0041 -0.0051 -0.1572
13397W        W29471  13.377  16.767   1.106  0.0307 -0.2265 -0.3043
13398W        W29472   1.746  10.561   2.724  0.0842  0.2073  0.0279
13399W        W29473  10.007  12.711   1.630 -0.1958 -0.0502  0.0343
13400W        W29474   0.979  10.495   3.388 -0.1041 -0.0738  0.1579
13401W        W29475  17.052   3.862  12.527  0.1485  0.0234 -0.1916
13402W        W29476  17.949  12.098  15.991  0.0173 -0.3202 -0.1197
13403W        W29477  11.909  15.176   0.389 -0.0023  0.1571  0.2144
13404W        W29478   8.008   2.372  15.236 -0.1697  0.1912 -0.5340
13405W        W29479  14.161  13.786   6.073 -0.0688 -0.0851 -0.1046
13406W        W29480   8.633  16.643  12.772  0.1661 -0.1939  0.0962
13407W        W29481  14.589   7.124  11.358  0.0198  0.0112  0.2468
13408W        W29482  13.929   8.761  12.127  0.1771  0.0223  0.1025
13409W        W29483  14.445  11.455   3.878 -0.1778 -0.1469  0.2141
13410W        W29484   9.038  18.013   4.363  0.2329  0.3326 -0.0816
13411W        W29485   9.544   1.830   3.688  0.3141  0.2710  0.0914
13412W        W29486  15.687   1.701  16.215  0.3448  0.1820 -0.1119
13413W        W29487   0.590  13.934  15.596 -0.2821 -0.0327  0.0157
13414W        W29488  16.461  15.596   1.764  0.1361  0.2396 -0.2120
13415W        W29489   6.221  12.570   0.480 -0.2082  0.0102  0.1968
13416W        W29490  10.286   6.374   1.145 -0.1500  0.2324 -0.1559
13417W        W29491   1.699   3.478   0.963  0.0414  0.0916  0.2746
13418W        W29492   1.776   3.658   4.367 -0.1607 -0.0788  0.3170
13419W        W29493   8.529  12.253   0.106 -0.3015 -0.1893  0.3730
13420W        W29494  10.211  10.238  13.387 -0.1830 -0.3264 -0.2973
13421W        W29495   9.106  17.932   0.405  0.1103 -0.1254 -0.0196
13422W        W29496  17.263  11.519  13.999  0.3118  0.0770 -0.1510
13423W        W29497   2.755   3.736  15.090  0.1440 -0.0468  0.1083
13424W        W29498  16.399  11.757  12.667 -0.2427 -0.0005  0.0379
13425W        W29499  16.279   0.914   5.627 -0.3438  0.0397  0.1173
13426W        W29500  14.740   6.540  11.956 -0.2418 -0.0642  0.0622
13427W        W29501  15.401   7.643   4.226  0.2402 -0.1007  0.3303
13428W        W29502   4.521   2.235  15.582 -0.0200  0.2436  0.0415
13429W        W29503   5.129   1.171   5.344 -0.0364 -0.0537 -0.2919
13430W        W29504  14.199  11.101   3.405 -0.0892  0.1213 -0.0102
13431W        W29505   3.226   8.311   3.492 -0.1210  0.0075 -0.0218
13432W        W29506  13.994   1.198   2.166 -0.0713  0.2227 -0.1753
13433W        W29507  15.713   1.171  16.117 -0.1355  0.2030  0.2223
13434W        W29508   8.234  12.761  15.503 -0.1584 -0.0890  0.0961
13435W        W29509  12.930  14.719  15.501 -0.0188 -0.0113 -0.0690
13436W        W29510  18.008   2.264  14.253  0.3943 -0.0500  0.3062
13437W        W29511   4.039  12.744  11.284  0.0470 -0.3603  0.0372
13438W        W29512  11.082   4.754   5.535  0.1114  0.0051 -0.4201
13439W        W29513   7.825   1.515  13.597 -0.2513 -0.2071  0.0456
13440W        W29514  11.471   3.142   1.453  0.1559 -0.3796  0.0721
13441W        W29515   9.633   0.868   1.867  0.0597 -0.1669 -0.1108
13442W        W29516  14.073  12.882   3.589  0.0494 -0.1191  0.0420
13443W        W29517  10.216  13.782   0.643 -0.0992 -0.1119  0.1220
13444W        W29518  10.073  17.962   1.422  0.1701  0.2012  0.0537
13445W        W29519  14.950   1.963   3.171  0.0112 -0.2362 -0.0818
13446W        W29520   1.613   9.376  15.575  0.0515  0.1536 -0.2848
13447W        W29521  15.985   2.313  13.657  0.0630 -0.0008  0.0297
13448W        W29522  12.229  15.386  12.710 -0.1294  0.0499  0.0976
13449W        W29523  16.124  14.805   3.716 -0.0425 -0.0228  0.3192
13450W        W29524   7.860  11.158   3.325 -0.1764 -0.4228  0.0386
13451W        W29525   1.044   6.519   5.811  0.0800  0.1416 -0.1773
13452W        W29526   3.253   7.100   3.696  0.1403  0.0905  0.1357
13453W        W29527   5.193  13.220   0.233 -0.0593  0.1428  0.1131
13454W        W29528  17.641  13.321  12.446  0.2583 -0.1244 -0.1115
13455W        W29529   5.391   3.802   1.235  0.0374 -0.1336  0.0132
13456W        W29530   4.465   7.194  10.387 -0.3496  0.0698 -0.1105
13457W        W29531   6.618   6.465   5.232  0.0920  0.1841 -0.4509
13458W        W29532   4.413  12.556  13.278  0.1528  0.0743  0.0040
13459W        W29533   4.203  12.958   2.196  0.0644 -0.0375  0.1844
13460W        W29534  18.018   0.410  14.020  0.0198  0.1264  0.2305
13461W        W29535   0.903   2.690  15.635  0.1231 -0.0926 -0.0485
13462W        W29536   5.817   3.266   2.271  0.1437 -0.1092  0.1283
13463W        W29537   9.718  16.075  13.711  0.0985 -0.1339 -0.0300
13464W        W29538   6.645   6.001  11.417 -0.2404  0.2567 -0.0860
13465W        W29539   7.970   5.840   3.445  0.5571  0.0103 -0.0249
13466W        W29540  10.580   2.963   4.692 -0.1121  0.1782 -0.0442
13467W        W29541   2.722   7.994   4.603  0.2979  0.0948 -0.1724
13468W        W29542   0.849  10.720  16.254 -0.0598  0.0217  0.3575
13469W        W29543   5.437  16.190   1.421 -0.3231  0.1035  0.0875
13470W        W29544  16.502   7.277  16.179 -0.0112  0.3716  0.3539
13471W        W29545  15.322   1.460  13.657  0.1479 -0.0059 -0.2072
13472W        W29546   8.153   8.952   5.085 -0.2304  0.1119  0.2930
13473W        W29547   7.936  11.655   0.963 -0.1127  0.2544  0.2789
13474W        W29548   4.008   9.208  12.106  0.4860 -0.4302  0.3297
13475W        W29549   7.326  13.180  16.289 -0.5833 -0.1143 -0.2065
13476W        W29550   3.341   6.470   1.980 -0.2167 -0.0788  0.1049
13477W        W29551   9.941  17.433   5.099 -0.0651 -0.0789 -0.1872
13478W        W29552  15.249  14.718   4.992  0.1929 -0.0527 -0.1449
13479W        W29553  10.230   0.078  12.701 -0.2943  0.0474  0.0654
13480W        W29554  14.692   7.341   2.129  0.0074 -0.1549 -0.0532
13481W        W29555  13.611  12.407  12.540 -0.1811 -0.0452 -0.0999
13482W        W29556   1.248   2.306   5.741  0.0956  0.0431  0.1270
13483W        W29557   9.201   4.689  12.322  0.4458  0.0802  0.1013
13484W        W29558  18.045   2.455  12.929  0.0060  0.3649  0.1219
13485W        W29559   6.306  12.845   3.485 -0.0281  0.0724 -0.2258
13486W        W29560  11.182   7.222  13.380 -0.0169 -0.1126 -0.1710
13487W        W29561   5.193   3.962  11.829  0.0786 -0.1465  0.2840
13488W        W29562  11.009   0.340   1.543  0.1351 -0.0500  0.0540
13489W        W29563  17.237   5.903   6.023  0.2229  0.2263 -0.0976
13490W        W29564   6.166   5.583   3.869 -0.0824  0.2357  0.0097
13491W        W29565   5.204   2.779  12.061  0.1956 -0.0541  0.3951
13492W        W29566   0.110  12.591   4.544  0.0422 -0.1411  0.0257
13493W        W29567  12.944  14.009  14.395 -0.0345  0.0818 -0.0324
13494W        W29568   5.000  14.983   2.510  0.0549 -0.2592  0.1843
13495W        W29569   4.528   8.171   2.049 -0.1819 -0.4050  0.0907
13496W        W29570   7.317   3.966  15.041  0.0368 -0.2783 -0.0517
13497W        W29571   4.010  12.306   3.826  0.1036  0.0029 -0.2080
13498W        W29572   7.315  13.223   3.074 -0.1400  0.1896 -0.2244
13499W        W29573   0.081   6.332   2.598 -0.4416 -0.0553  0.0181
13500W        W29574   7.619  14.857   1.171  0.0963 -0.2820  0.3636
13501W        W29575  18.013  14.768  14.669 -0.0299  0.2482 -0.3028
13502W        W29576  16.584  15.358   2.988 -0.2124 -0.1122  0.0212
13503W        W29577  10.344   0.672  13.283  0.0197  0.0585  0.2046
13504W        W29578   8.632   0.070  12.243 -0.0209  0.0922 -0.2263
13505W        W29579  12.439   2.664  16.349  0.0730  0.1845  0.0108
13506W        W29580   6.202  11.956  15.075  0.1118  0.1537  0.0048
13507W        W29581   0.322  17.331  15.761 -0.2859  0.1182  0.0174
13508W        W29582  15.015   4.536  14.251  0.1801  0.1142  0.0940
13509W        W29583  17.647  14.460  11.078  0.1756 -0.1566  0.0772
13510W        W29584   2.858   5.749  12.120  0.2371 -0.0789  0.1356
13511W        W29585   5.573   9.259  12.430  0.0061 -0.0280 -0.0984
13512W        W29586   8.881   7.911  10.889  0.0503  0.0232 -0.2932
13513W        W29587  11.256   0.103  13.300 -0.3102  0.2277  0.1175
13514W        W29588  12.988   5.265   1.626  0.0588 -0.0141  0.1276
13515W        W29589   0.815  13.697   3.760  0.0884  0.2134 -0.0892
13516W        W29590  11.887   9.883  10.751 -0.3094  0.0879 -0.2687
13517W        W29591   1.380   2.385   1.993 -0.1134  0.0628  0.0193
13518W        W29592   4.106   3.962   4.935  0.0931 -0.2446  0.0529
13519W        W29593   7.385  12.170   4.979  0.0201 -0.1703 -0.1100
13520W        W29594  11.604   8.534   6.020 -0.1371 -0.0402  0.0755
13521W        W29595   2.310  10.619   1.842  0.3839 -0.0544 -0.0033
13522W        W29596   0.324   9.778   0.974 -0.2026 -0.2900 -0.2598
13523W        W29597   4.381   5.266  15.275  0.6193 -0.3921  0.2225
13524W        W29598  16.815  10.195   0.374 -0.0272  0.2458 -0.2027
13525W        W29599  14.135   1.414  12.500 -0.0269  0.0759  0.0362
13526W        W29600  14.967   4.169   3.780 -0.0005  0.1891 -0.3312
13527W        W29601  16.752   0.252   6.471 -0.1622  0.3058 -0.1594
13528W        W29602   2.262  15.200   6.312  0.2904  0.0646  0.1719
13529W        W29603   9.876   3.995   2.032 -0.0447 -0.0720  0.2425
13530W        W29604  14.173   4.474  10.661  0.0380  0.4136  0.2245
13531W        W29605   0.645  15.169   3.128 -0.0222  0.0009 -0.1272
13532W        W29606   6.259   4.163  13.593 -0.1032 -0.1914  0.1212
13533W        W29607  16.869  13.599   5.627 -0.0810  0.0718  0.1544
13534W        W29608  17.600   4.076  14.582 -0.1611 -0.0137  0.1048
13535W        W29609   8.290   8.930  14.034  0.0086  0.0798 -0.1756
13536W        W29610   2.432   8.958   0.405  0.1055  0.0629  0.1532
13537W        W29611  12.821   3.141   1.082  0.0153  0.2048  0.1595
13538W        W29612  18.274   6.366   3.776 -0.4005 -0.0302  0.2178
13539W        W29613   9.694  14.088   5.949 -0.3410  0.0096 -0.2268
13540W        W29614   3.430  18.170   4.209  0.1306 -0.1190 -0.2680
13541W        W29615   4.781   0.057   1.730 -0.0438  0.0803  0.0323
13542W        W29616  10.819   9.927   5.235  0.1880  0.1150 -0.2798
13543W        W29617  13.594   7.859   4.731  0.1308 -0.5428 -0.0203
13544W        W29618   5.365   0.291  14.859 -0.0125  0.1330 -0.0386
13545W        W29619  17.829   5.337  13.529  0.0530  0.0153  0.0221
13546W        W29620   2.654   3.959  14.658 -0.1215 -0.0599 -0.0802
13547W        W29621   1.779   6.535  11.987 -0.2875 -0.1794 -0.0116
13548W        W29622   3.463  15.788   5.674 -0.1101  0.5423 -0.0221
13549W        W29623   1.282  11.459   5.794 -0.4864  0.1780  0.0958
13550W        W29624   8.344  14.329   4.691 -0.2619 -0.1816  0.1484
13551W        W29625   1.287  15.479   3.302  0.0363  0.1669 -0.2498
13552W        W29626   4.480   6.004   3.606  0.2043 -0.0690 -0.0013
13553W        W29627   9.713   1.945   9.863 -0.0092 -0.2737  0.0314
13554W        W29628   3.868   1.484  11.575  0.2262  0.0450 -0.2007
13555W        W29629   7.319   8.903  12.860 -0.1843  0.0188  0.1052
13556W        W29630  12.668  10.393  16.122  0.2373 -0.1903  0.0437
13557W        W29631   4.067   2.316  11.443  0.1692  0.0686 -0.1993
13558W        W29632   6.068   3.047  16.173 -0.3114 -0.0434  0.3264
13559W        W29633  10.761  12.510  14.683 -0.1953 -0.0761 -0.0857
13560W        W29634   9.928  18.226  12.409  0.1865 -0.1620 -0.0377
13561W        W29635  11.618  17.610  13.205 -0.2346  0.0018  0.0320
13562W        W29636  11.175   4.099  14.214  0.0130  0.3741  0.0649
13563W        W29637   4.706  13.024  14.273  0.0097  0.3026  0.1193
13564W        W29638   4.129  16.421   1.884 -0.1994 -0.2566 -0.1688
13565W        W29639  18.004   0.759  12.918  0.0060 -0.0426 -0.0793
13566W        W29640  11.537  13.199  14.490 -0.2180 -0.0210  0.2016
13567W        W29641   1.392   6.549   3.981  0.3332  0.1776 -0.0718
13568W        W29642   1.501   3.823   3.924 -0.1413 -0.0066 -0.2017
13569W        W29643   1.549  18.136   4.015 -0.0566  0.0504  0.0811
13570W        W29644  10.530   5.368  15.272  0.0322 -0.1138 -0.0451
13571W        W29645  10.046  12.928   4.485 -0.2720  0.0678 -0.2287
13572W        W29646  10.466  12.651   4.906 -0.1625  0.2746  0.1007
13573W        W29647  13.912  14.706  14.592  0.1784 -0.2209  0.1154
13574W        W29648  16.791   5.726  13.959  0.3947 -0.1062 -0.0053
13575W        W29649   9.802   8.783  11.347 -0.1113 -0.0312  0.1053
13576W        W29650   2.099   1.923   4.330  0.2879 -0.0761 -0.0062
13577W        W29651   7.237  17.257  13.072 -0.0708  0.1793  0.4396
13578W        W29652  15.550   1.208  14.498  0.0455  0.1932 -0.0647
13579W        W29653   4.890   8.142   5.970  0.0683  0.1984  0.0992
13580W        W29654  10.069  12.484  11.735 -0.1780 -0.0968  0.0314
13581W        W29655   1.418   4.138   0.382 -0.1309  0.2692  0.3473
13582W        W29656   7.885   8.806   1.327  0.0683  0.0761  0.1572
13583W        W29657   1.433   3.496  15.343 -0.1783 -0.1185 -0.1014
13584W        W29658   2.300   0.764  13.678 -0.1413  0.0901 -0.0508
13585W        W29659  16.337  16.260   5.184 -0.0761 -0.1617 -0.1116
13586W        W29660   6.400  14.568  14.671 -0.2124  0.3047  0.0220
13587W        W29661  15.561   2.878   3.517  0.3397 -0.3608 -0.3956
13588W        W29662   0.804   2.178  15.831 -0.0182  0.0590 -0.1117
13589W        W29663  12.596  18.150  12.445  0.0586  0.0561 -0.0034
13590W        W29664   9.697  12.522   3.772 -0.4362 -0.0196 -0.2871
13591W        W29665  15.998  15.591   4.555 -0.0428  0.0413 -0.0595
13592W        W29666  14.902   4.418  12.819 -0.2793 -0.2307 -0.0680
13593W        W29667  14.551  11.097  13.894  0.0205  0.1423  0.2632
13594W        W29668   5.304  12.576  14.749 -0.0143 -0.5052  0.1068
13595W        W29669   3.400  10.639  11.442  0.2434 -0.0863  0.0636
13596W        W29670  13.324   2.776   5.544  0.1558  0.3176  0.4206
13597W        W29671   5.678   9.121   0.839 -0.3503  0.0838 -0.1142
13598W        W29672   5.070  15.338   4.913  0.0760  0.1895  0.0676
13599W        W29673   3.098   8.272  12.265  0.2191 -0.0010  0.0835
13600W        W29674  11.012   9.933   6.234  0.0604 -0.2877  0.2868
13601W        W29675   6.214   5.514   4.641  0.4388 -0.0213 -0.0318
13602W        W29676  16.185  10.913   1.008  0.1798  0.0011 -0.0587
13603W        W29677   4.762   4.644   0.495  0.0600  0.3527 -0.0894
13604W        W29678   1.288  12.398   3.641 -0.1165  0.0683 -0.1253
13605W        W29679   7.339  10.546   1.547  0.0037  0.1860 -0.0875
13606W        W29680  14.112   7.814   4.872 -0.1655 -0.3056 -0.1250
13607W        W29681   6.742   9.202   4.811  0.1378 -0.1930 -0.3186
13608W        W29682  15.050  17.846   5.102 -0.1172 -0.0011 -0.0267
13609W        W29683   2.515  11.364  16.045 -0.0508  0.3069  0.0779
13610W        W29684   5.553  17.951  13.106 -0.1579  0.1483 -0.0658
13611W        W29685  16.446  15.709  13.221  0.1779  0.5484  0.2490
13612W        W29686   5.284  15.365   3.527  0.2052 -0.1441  0.0422
13613W        W29687  11.486   6.506   0.408  0.0416  0.0810 -0.0223
13614W        W29688  15.283  13.979  12.817 -0.0237  0.3567 -0.0980
13615W        W29689   7.152   0.928  11.809 -0.0536  0.3584 -0.0797
13616W        W29690   3.298  16.950   2.489  0.0812 -0.0516 -0.0089
13617W        W29691  18.175   7.620   2.936  0.1955 -0.3264 -0.0615
13618W        W29692  10.695   7.791   1.356 -0.0564 -0.2887  0.3973
13619W        W29693  13.034   8.733   3.757  0.0349  0.1202 -0.2526
13620W        W29694   8.287   0.922   2.963  0.2306  0.2141 -0.1917
13621W        W29695   7.840   3.916   1.437  0.0730 -0.0345  0.0525
13622W        W29696  14.411   4.048  13.630  0.1589  0.1270  0.1398
13623W        W29697  14.372   7.476   1.754 -0.0334 -0.0738  0.3123
13624W        W29698  14.861   5.646  16.149  0.0160 -0.2616 -0.1828
13625W        W29699   8.144  10.413  11.305 -0.2283 -0.1932 -0.3552
13626W        W29700  14.848   5.957  13.655 -0.1307 -0.0180  0.2749
13627W        W29701   5.734   3.927   1.620 -0.0608  0.1056  0.2957
13628W        W29702   2.587   7.995   4.076 -0.2121 -0.0079 -0.1524
13629W        W29703   0.735  13.391   4.385  0.0760 -0.1312 -0.0505
13630W        W29704   2.479  10.827  15.963 -0.2853 -0.0080 -0.1904
13631W        W29705   8.894   3.086  10.612 -0.0838  0.1611 -0.0693
13632W        W29706   7.133   3.276   0.915  0.1820  0.1491 -0.2239
13633W        W29707  14.411  13.199   1.362  0.2233 -0.0314  0.1103
13634W        W29708   2.847   1.904   3.091  0.2066 -0.1493 -0.2621
13635W        W29709  18.013   9.384   0.430  0.0007 -0.0257 -0.0177
13636W        W29710  14.829   6.856  16.253 -0.0536  0.5863 -0.0325
13637W        W29711   0.764  10.493   1.000  0.0003 -0.0009 -0.1587
13638W        W29712   5.816  14.052   1.878 -0.2502  0.0816  0.0342
13639W        W29713  17.841  15.644  13.275  0.1950  0.3272  0.0404
13640W        W29714  14.075   8.079   5.603 -0.2550 -0.1342  0.0404
13641W        W29715   0.461  12.299   4.206  0.0396  0.3085  0.1491
13642W        W29716   7.481  17.653   4.037  0.0946 -0.1031  0.3032
13643W        W29717   2.564   3.482  12.211  0.3191  0.3344 -0.2129
13644W        W29718   2.831   3.030  13.715 -0.0340  0.0673 -0.3665
13645W        W29719   5.277  11.890   2.703 -0.0253 -0.3871 -0.2013
13646W        W29720   7.590  16.448  12.802 -0.1431 -0.0597  0.1973
13647W        W29721  15.476  11.029   0.195 -0.0693  0.2772  0.0901
13648W        W29722   3.040  17.203  14.494 -0.2478 -0.0434  0.2020
13649W        W29723   7.994  11.424  14.283  0.1695  0.1311  0.1528
13650W        W29724  15.934   5.136  14.119  0.0508  0.0132  0.0383
13651W        W29725  15.840  16.359  15.261 -0.0412 -0.2773  0.0846
13652W        W29726  16.142  14.908   5.852  0.2767 -0.1349  0.0634
13653W        W29727  13.045   1.125   5.805 -0.0391  0.0168 -0.0474
13654W        W29728  17.702   5.745  14.276  0.5960 -0.2792 -0.1328
13655W        W29729   0.658  13.398   1.692  0.1989 -0.0683 -0.1725
13656W        W29730  10.360  16.195   3.220  0.2127 -0.0961  0.3638
13657W        W29731  17.751  17.793  15.799  0.0217  0.0206 -0.1209
13658W        W29732  11.557  16.846  11.991 -0.4417 -0.0547  0.2517
13659W        W29733   5.881  14.761   5.004  0.1079  0.1530 -0.1776
13660W        W29734   6.024  13.347  12.410  0.3169 -0.1406  0.1991
13661W        W29735   2.781  13.879   5.915  0.0305  0.0010  0.1835
13662W        W29736  15.171  13.850   3.525  0.0857 -0.3965  0.3296
13663W        W29737  14.328   1.126  16.041  0.2814 -0.2453  0.0161
13664W        W29738   7.942   9.490  14.864  0.1358 -0.1251  0.1182
13665W        W29739   4.018   8.806  14.832  0.1160 -0.3907 -0.1003
13666W        W29740   3.421  15.443   3.203 -0.2129  0.1530 -0.1858
13667W        W29741  12.283   1.679   1.150  0.0938  0.2134  0.0217
13668W        W29742   4.096  10.200  12.266 -0.1192 -0.4110  0.0146
13669W        W29743   0.439   6.336   3.843  0.0094 -0.4484  0.1633
13670W        W29744  15.307   3.047  13.747  0.2886 -0.1336 -0.0685
13671W        W29745   2.604  13.499   3.654  0.0612 -0.0657 -0.1785
13672W        W29746   4.605  13.085  15.906  0.0851  0.2715  0.0317
13673W        W29747   1.268   6.729  12.057  0.4009  0.1080  0.0338
13674W        W29748   4.705  13.438   5.633  0.0007  0.1697 -0.1096
13675W        W29749  10.515   5.558  15.770 -0.0721 -0.0490  0.1350
13676W        W29750  12.498  17.642   4.991  0.1260 -0.2715 -0.1904
13677W        W29751  17.681   1.782  16.202  0.1601  0.3833  0.0800
13678W        W29752   9.573   3.717   2.642  0.1488 -0.0316 -0.0605
13679W        W29753   6.702  10.817  10.945  0.0308 -0.0378 -0.2191
13680W        W29754  17.793   5.791  13.376  0.2419  0.2963 -0.2234
13681W        W29755  15.864   8.943  13.220 -0.1060 -0.2075 -0.0172
13682W        W29756  10.711   1.220   3.049  0.0074 -0.0358 -0.2307
13683W        W29757   4.118   5.143   1.931 -0.3026  0.0414 -0.0199
13684W        W29758   9.711   2.550  15.028 -0.2532 -0.0823 -0.1139
13685W        W29759   6.953   1.416   1.469  0.2294  0.0136  0.1529
13686W        W29760   7.519  14.454  14.001 -0.0956  0.0674  0.2625
13687W        W29761   0.931   8.140  13.988  0.0905  0.0419  0.1388
13688W        W29762   5.432   0.875  11.652 -0.1582 -0.0760  0.1059
13689W        W29763  12.391   5.305   4.038 -0.1814 -0.0705  0.0290
13690W        W29764  11.818   4.617   2.631  0.0721 -0.0988  0.1810
13691W        W29765  15.544  15.540  12.790 -0.2211  0.5142 -0.0511
13692W        W29766  12.601   3.031  13.314 -0.0050 -0.0645 -0.2248
13693W        W29767   6.663   1.667  11.393 -0.4034  0.1792 -0.0001
13694W        W29768  15.603   7.728   2.321  0.3325  0.2117  0.1444
13695W        W29769  12.779   0.277   5.053  0.0948  0.0447 -0.1984
13696W        W29770   0.508   7.465   4.718 -0.0588  0.0183  0.1228
13697W        W29771  12.496  15.017  13.002  0.0076 -0.0980  0.0223
13698W        W29772   7.255   1.444   4.743 -0.2221  0.1972 -0.0234
13699W        W29773   5.768  15.320  13.368 -0.0542  0.0709  0.2502
13700W        W29774   4.655  15.089   4.277 -0.0302  0.0096 -0.1484
13701W        W29775  15.722   2.340  13.244 -0.1129 -0.4762  0.1004
13702W        W29776   1.988   7.979  12.195 -0.0832 -0.3662  0.0409
13703W        W29777   2.754   4.731  12.223  0.0240 -0.0742 -0.1628
13704W        W29778  18.024  17.581   2.899  0.2405  0.1390  0.0262
13705W        W29779  11.672   8.049  13.343 -0.4647  0.0828 -0.3705
13706W        W29780   2.376  17.232   0.920 -0.0556  0.0615  0.1000
13707W        W29781   6.215   8.014  11.131 -0.1571  0.0932  0.0017
13708W        W29782  13.602   5.549   4.511 -0.1774 -0.0729 -0.0456
13709W        W29783   8.027   5.537   1.802 -0.0649  0.0829  0.4263
13710W        W29784  15.777   9.902   5.026 -0.2459  0.1582  0.0964
13711W        W29785   7.512   4.718  13.748 -0.0445 -0.1053  0.0414
13712W        W29786   7.541  16.233   5.870 -0.0064  0.0104  0.2705
13713W        W29787  15.807  11.023  16.201 -0.0010  0.0304 -0.0623
13714W        W29788  16.814  12.786   5.131  0.1535 -0.1134 -0.0200
13715W        W29789  14.711  10.037  16.254  0.3183  0.4156  0.0467
13716W        W29790  12.826   8.291   3.611 -0.1223  0.1940  0.2082
13717W        W29791   9.284   1.247   5.346  0.0466  0.0822 -0.2119
13718W        W29792  15.010   8.514  12.013  0.0997  0.0607 -0.0928
13719W        W29793  17.425   1.496   1.936 -0.2480  0.2071  0.1061
13720W        W29794   9.038   7.774  13.495  0.1462  0.3872 -0.2701
13721W        W29795   2.233  15.642  13.523 -0.3619  0.2013 -0.1039
13722W        W29796   2.423   3.391   6.026  0.1697 -0.3472  0.1365
13723W        W29797  14.935   8.858  13.639 -0.1545  0.0325  0.1639
13724W        W29798   3.567   9.541   0.553  0.1470 -0.2469  0.0689
13725W        W29799   8.983  18.018  12.087  0.3707  0.1548  0.3729
13726W        W29800   4.317   9.750  13.223 -0.1541 -0.2460  0.1541
13727W        W29801   9.782  17.404  10.510  0.0248 -0.0776  0.0397
13728W        W29802   9.800  14.553  15.154 -0.0435  0.1585 -0.0440
13729W        W29803  10.774  16.025  13.851  0.0124  0.2612 -0.3139
13730W        W29804   8.119   5.755   4.559  0.1331 -0.3311  0.2421
13731W        W29805   5.318  14.157   0.797  0.0101 -0.2372  0.0508
13732W        W29806  15.078  15.733  10.647 -0.0156  0.0263 -0.0340
13733W        W29807   6.688   4.209  14.857 -0.2168  0.1508 -0.0785
13734W        W29808  14.396   0.863  15.656 -0.1781  0.0038  0.0223
13735W        W29809   0.991  15.847  11.820 -0.1892 -0.1925 -0.1795
13736W        W29810   2.547  14.496   1.998 -0.1115 -0.1071 -0.2543
13737W        W29811   9.486   9.582  15.475 -0.1231  0.0324  0.0569
13738W        W29812   8.420   0.191   5.417 -0.2483  0.1049 -0.1449
13739W        W29813   1.123   3.549  13.646 -0.1378 -0.2745  0.0981
13740W        W29814  14.359  13.860   3.826 -0.0482  0.1014 -0.0362
13741W        W29815  11.635  15.991  14.141  0.1486  0.2082 -0.0498
13742W        W29816  11.139   6.472   2.102  0.1081 -0.1326 -0.0260
13743W        W29817   0.299   3.464   0.903  0.1638 -0.0149  0.2580
13744W        W29818  13.537  14.257   2.532  0.2308  0.2130 -0.0199
13745W        W29819  12.436  12.280   2.420  0.0740  0.0963 -0.2082
13746W        W29820  13.557   3.286   9.977 -0.1519 -0.1226 -0.2773
13747W        W29821   0.727  18.030   1.437 -0.0302  0.0772  0.3367
13748W        W29822   4.956  10.501  13.098 -0.3291 -0.2003 -0.0075
13749W        W29823   7.045   8.824   3.278 -0.0909 -0.0499  0.3189
13750W        W29824  11.633   5.891  12.001  0.1292  0.1825 -0.2247
13751W        W29825  18.285  12.852  11.563 -0.0034 -0.1237 -0.1322
13752W        W29826   2.495  15.973   5.154  0.0405 -0.2425 -0.2264
13753W        W29827   8.812   5.824   0.225  0.0773 -0.2092  0.3277
13754W        W29828   2.791   8.876  11.009 -0.2215 -0.0443 -0.2186
13755W        W29829  10.419  12.698   3.132 -0.1686 -0.1387 -0.1596
13756W        W29830   4.009   0.909   4.236  0.0262 -0.1804  0.0559
13757W        W29831   6.992   5.514   0.738 -0.1398 -0.2672  0.3015
13758W        W29832  14.024  14.378   4.357 -0.1255  0.2261 -0.1454
13759W        W29833  17.288  10.453  13.011  0.0539 -0.2131  0.0806
13760W        W29834  13.535  10.641   4.779  0.1156 -0.3862 -0.0774
13761W        W29835   4.523   4.129  16.178 -0.0484  0.4355  0.0532
13762W        W29836  12.113   6.236   4.373  0.2516 -0.2576  0.3450
13763W        W29837   5.100  15.052   1.502  0.1963  0.0895  0.1240
13764W        W29838   8.192   7.224  15.688  0.0254 -0.0702 -0.0732
13765W        W29839  11.211  16.815  14.249  0.1051  0.0718  0.3062
13766W        W29840  12.996   9.093   4.198 -0.2791 -0.2305 -0.1105
13767W        W29841   7.445  17.295   1.719  0.1485 -0.1669 -0.0642
13768W        W29842  18.116   3.853  13.797  0.1248 -0.1550  0.0492
13769W        W29843   3.907  10.463   0.522  0.0415  0.2479  0.1257
13770W        W29844   6.214   9.126   2.110 -0.1995  0.3277 -0.1792
13771W        W29845  12.191   1.879  14.804 -0.1367 -0.1958 -0.0516
13772W        W29846  14.911  10.450  13.189 -0.0529  0.2215  0.1371
13773W        W29847   0.498  10.635  13.482 -0.4086  0.0427  0.2903
13774W        W29848   9.032  14.717  11.424 -0.0312  0.0844  0.2356
13775W        W29849   0.504  13.770   4.794  0.0572 -0.4624  0.0280
13776W        W29850  14.685  14.800   0.173  0.0497  0.1314 -0.1303
13777W        W29851   7.172  13.011   4.123  0.0542  0.1637 -0.2246
13778W        W29852  15.655  11.634  12.857  0.1922  0.3897  0.0275
13779W        W29853  17.569   2.652  15.465  0.0140 -0.2944 -0.3415
13780W        W29854  14.752   9.989   0.381 -0.3236 -0.0453  0.2032
13781W        W29855   7.698  16.211   2.899 -0.1357 -0.0838  0.2938
13782W        W29856  13.419   8.660  13.971 -0.5543 -0.0804 -0.1551
13783W        W29857  12.342   6.830   5.195  0.0082  0.0944 -0.0225
13784W        W29858  10.428  12.843  15.884  0.0152 -0.3276 -0.3137
13785W        W29859  11.850   3.953   1.127  0.2774  0.0520 -0.1498
13786W        W29860   0.387   9.207  11.319  0.1824 -0.0606  0.0171
13787W        W29861  17.091   7.681   2.955 -0.0487  0.0597 -0.3752
13788W        W29862  14.117   6.756   6.178  0.2424  0.2187  0.0918
13789W        W29863   7.945  12.908  16.060 -0.4893  0.0896 -0.2260
13790W        W29864  14.217   5.631  16.388 -0.0233 -0.0033  0.2028
13791W        W29865   1.428   6.454  15.848  0.1766  0.2901 -0.0341
13792W        W29866   3.869  14.640   0.945  0.2662  0.4475 -0.1593
13793W        W29867   5.728   0.551   0.673 -0.0209 -0.1115  0.0115
13794W        W29868   0.919   1.417  12.004  0.1138 -0.1647 -0.2676
13795W        W29869   2.084   1.819   2.044 -0.1667 -0.0348  0.0558
13796W        W29870   5.354  10.318  14.841 -0.0124 -0.0741  0.1864
13797W        W29871  18.229  10.864  11.429 -0.0649 -0.1395 -0.0091
13798W        W29872   1.853   8.287  13.976 -0.1225  0.0856 -0.1255
13799W        W29873  14.029   7.018   2.652 -0.0867 -0.2353 -0.0562
13800W        W29874  14.952   4.990   1.250  0.5082  0.0659  0.0313
13801W        W29875   0.688   7.252   2.672 -0.0550  0.1401  0.2485
13802W        W29876   7.890  11.420  11.127  0.1531  0.1276 -0.1468
13803W        W29877  10.271   6.004   3.135  0.1149  0.1409  0.1684
13804W        W29878  16.391  14.421   5.435  0.0831 -0.1216  0.0431
13805W        W29879  13.249   1.093   1.125 -0.1388 -0.1662 -0.3189
13806W        W29880   8.916  10.487  13.525 -0.0760 -0.1054 -0.2717
13807W        W29881   5.267   2.378  13.939  0.0244 -0.0186 -0.0890
13808W        W29882  12.232  17.031  14.725  0.4250  0.2182  0.2235
13809W        W29883   2.627   0.243   4.116 -0.0624 -0.0517  0.0382
13810W        W29884   9.770   8.428  11.666  0.0311 -0.1233  0.0795
13811W        W29885   3.606   0.054  11.677 -0.1385 -0.3597  0.1339
13812W        W29886  17.396  17.906  16.252 -0.0734 -0.1118 -0.2451
13813W        W29887   2.618   2.188   5.244 -0.0592  0.1274 -0.1914
13814W        W29888  12.169  17.286  12.672 -0.1670  0.0931  0.1867
13815W        W29889   0.220  18.260   6.475 -0.0064 -0.1848 -0.1000
13816W        W29890  13.946   7.929   3.093  0.1005  0.0503  0.2611
13817W        W29891   0.528   1.727  13.063 -0.0580  0.1544 -0.1474
13818W        W29892  11.698   0.858   5.134 -0.0141  0.1940 -0.0925
13819W        W29893   1.584  11.777   3.938 -0.2777  0.1130 -0.3118
13820W        W29894  11.574  15.942   5.977  0.2863  0.0864  0.4105
13821W        W29895  12.080  14.691  12.979  0.0585 -0.0525  0.0209
13822W        W29896  18.293  14.577   1.834  0.0367  0.3198 -0.0720
13823W        W29897  11.305   1.313   9.800 -0.2027 -0.2557 -0.1654
13824W        W29898  16.673  14.034   6.008 -0.1896 -0.5187 -0.1504
13825W        W29899   4.805  12.429   3.985 -0.0493  0.3667  0.0723
13826W        W29900  12.590   1.530   6.100  0.0702 -0.1707 -0.0797
13827W        W29901  12.222   2.422  13.508  0.2226 -0.1548 -0.0789
13828W        W29902  13.217   2.290  13.078 -0.2526 -0.1320 -0.4682
13829W        W29903   4.202   1.006  15.931 -0.1049  0.1299 -0.0793
13830W        W29904  16.455   0.707   2.199  0.1091 -0.0198  0.2206
13831W        W29905   4.378  17.256  11.775 -0.0860  0.2755 -0.3726
13832W        W29906  17.258   3.903   4.539 -0.2859  0.0903 -0.2631
13833W        W29907  17.691  10.455  16.087 -0.0666  0.0590  0.1543
13834W        W29908  16.031   4.050  13.195 -0.3796  0.0706 -0.2241
13835W        W29909  16.443   4.010  14.650 -0.0817  0.1285  0.0750
13836W        W29910   4.817   9.135   1.326  0.3236  0.0712 -0.0376
13837W        W29911   5.380   0.174   5.196 -0.2540  0.2849 -0.1521
13838W        W29912   7.891   4.683  11.742 -0.0843  0.0685 -0.2226
13839W        W29913   4.908   2.682  14.161 -0.1954  0.2085 -0.1337
13840W        W29914  14.624   4.865   3.590  0.2321 -0.3245  0.2200
13841W        W29915   7.469  16.611   3.189 -0.2841  0.3888  0.2660
13842W        W29916  14.271  13.399   2.926 -0.0892 -0.1332 -0.1798
13843W        W29917   6.964   0.274   4.606  0.0064  0.0850  0.1138
13844W        W29918  11.009   4.496   3.007  0.5579 -0.1564  0.1097
13845W        W29919   3.441  17.744   3.834  0.0788 -0.2096  0.0140
13846W        W29920  17.269   8.286   4.637 -0.3352 -0.0515  0.0434
13847W        W29921  13.357  16.746  15.048 -0.1455 -0.2146 -0.1259
13848W        W29922  16.292   2.348   0.535 -0.0350  0.2850 -0.1648
13849W        W29923  16.893   7.539  14.811 -0.0453  0.1075  0.1900
13850W        W29924   8.691   3.226  14.247  0.3569  0.0952 -0.2006
13851W        W29925  18.328   3.074  16.248  0.1019  0.0704  0.2678
13852W        W29926   7.663  13.845   0.022  0.0788 -0.0082  0.0236
13853W        W29927  11.689   6.309   1.658  0.1802  0.4251 -0.0432
13854W        W29928   1.011   8.821  10.601  0.0154  0.3572  0.0599
13855W        W29929  11.707   8.095  12.653 -0.0378  0.0023  0.0818
13856W        W29930  13.084  17.728   5.525  0.1314  0.0347 -0.2799
13857W        W29931   3.321  13.007   4.725 -0.3813  0.1566  0.2621
13858W        W29932   0.935  15.252   4.809  0.2285  0.0901  0.3596
13859W        W29933  12.991   3.327   1.940 -0.1878 -0.0640 -0.0160
13860W        W29934  15.342   2.172  13.013  0.0493  0.0001  0.0595
13861W        W29935   0.007   9.238   2.623 -0.2293  0.0559  0.0931
13862W        W29936  18.003   7.149   3.800  0.2123 -0.3012  0.3216
13863W        W29937  12.009  16.026   4.733  0.0818 -0.1970 -0.0969
13864W        W29938   7.864   1.745  11.352 -0.3126 -0.0603  0.1702
13865W        W29939   2.908  16.242   5.011  0.1057 -0.4454 -0.2111
13866W        W29940   5.955   2.660  12.717 -0.0647 -0.1447 -0.0715
13867W        W29941   1.193   7.997   5.271  0.2246  0.0836  0.0656
13868W        W29942  12.332  13.715  15.622  0.1887  0.1155 -0.0108
13869W        W29943   3.518  17.173  12.703  0.1986 -0.2788 -0.2204
13870W        W29944   3.589  15.469  13.228  0.0303  0.0679  0.1985
13871W        W29945  12.592   8.005  11.258 -0.0547 -0.1634  0.0332
13872W        W29946   6.229   1.973   4.806 -0.0266 -0.2353 -0.4327
13873W        W29947   8.690   4.227  13.271 -0.2219  0.1215  0.0459
13874W        W29948   2.383  16.561   4.332  0.1217  0.1266 -0.0802
13875W        W29949   0.164  13.756  15.835  0.0036  0.1259 -0.1897
13876W        W29950  17.275   3.825   1.656 -0.0726 -0.2135 -0.4001
13877W        W29951   0.396   8.309   2.726  0.0047 -0.0211  0.4492
13878W        W29952   4.682   5.679  12.127  0.0644  0.0206 -0.1723
13879W        W29953  12.471  15.574  12.084  0.0948  0.0180  0.0356
13880W        W29954   7.449  10.626   2.435 -0.0308 -0.1764  0.1651
13881W        W29955   8.791   1.011   5.621  0.3399  0.0231  0.1170
13882W        W29956   4.615  14.887  11.647  0.0317  0.0636 -0.0337
13883W        W29957  17.566  18.327  13.664  0.2230  0.1302 -0.0170
13884W        W29958   3.668   3.392   5.052  0.0980  0.0194 -0.0018
13885W        W29959   1.253   8.638   3.618  0.1733 -0.2779 -0.0109
13886W        W29960  15.215   0.860   4.016  0.0798  0.2530  0.1640
13887W        W29961   4.998   7.871  11.996  0.1202  0.2443 -0.0756
13888W        W29962  10.329   2.820  12.760  0.3649 -0.0126  0.1629
13889W        W29963   3.775  15.782   5.236  0.1122 -0.1296  0.1049
13890W        W29964  13.686   6.759  15.318  0.0517 -0.3200  0.1263
13891W        W29965  16.922   4.663  13.983 -0.0717  0.3142 -0.0096
13892W        W29966   6.182   1.848  13.003  0.0815 -0.1576  0.0170
13893W        W29967  15.881  11.965   1.742 -0.3316 -0.3864 -0.1148
13894W        W29968   5.522  15.083   5.229 -0.4626  0.0482 -0.1454
13895W        W29969   2.313   4.831  13.865  0.1170 -0.0379  0.1414
13896W        W29970   3.328  14.105   4.546  0.0218 -0.0609  0.0641
13897W        W29971  12.192  16.593   0.140  0.2683 -0.3697 -0.2180
13898W        W29972   8.330   8.717  15.162  0.0714  0.0268 -0.4162
13899W        W29973   7.286   0.766  14.431 -0.0440  0.1726  0.5594
13900W        W29974  16.412   2.118  13.951  0.2946 -0.0724 -0.4381
13901W        W29975  15.553   0.901  15.730  0.0244  0.0119  0.1350
13902W        W29976   5.481  16.626   3.074 -0.4022  0.1945  0.0089
13903W        W29977  12.990   3.668   3.299  0.0492 -0.1221  0.2043
13904W        W29978   8.101  12.675  13.751 -0.2958 -0.0530 -0.1527
13905W        W29979  15.427   6.965   4.640  0.1027  0.1559 -0.2857
13906W        W29980   1.162  15.873   2.882  0.0994 -0.0488 -0.1716
13907W        W29981   6.327   1.970   3.621 -0.3361  0.1758  0.0293
13908W        W29982  12.851  12.477  16.165  0.1051  0.0375 -0.1991
13909W        W29983   4.745   0.265   5.179  0.0491  0.2006  0.3195
13910W        W29984  15.434  12.324  13.458  0.3279  0.1197  0.3819
13911W        W29985  15.074   8.085   1.499 -0.1350  0.3111  0.0966
13912W        W29986   4.317   8.760   0.366 -0.0269 -0.0057  0.3094
13913W        W29987  12.971   4.672   4.438  0.0343  0.1308  0.0256
13914W        W29988  15.809  17.443   0.341 -0.2762  0.0135  0.2680
13915W        W29989  17.965   1.012   5.136  0.0035  0.0700 -0.3819
13916W        W29990  15.043  12.821  12.440  0.0311  0.1249  0.7046
13917W        W29991  16.057   2.000   0.205 -0.4269  0.3668 -0.0891
13918W        W29992   9.633  15.753   2.699  0.1602  0.1097  0.0309
13919W        W29993   0.771   3.599  12.164 -0.3555  0.1744  0.1985
13920W        W29994  13.322  11.685   4.560  0.2949  0.1755 -0.3473
13921W        W29995  15.680  14.962  11.563 -0.0504 -0.2906 -0.1316
13922W        W29996  12.736   2.424   0.277 -0.1182 -0.1793  0.0116
13923W        W29997   8.122   7.207  14.150  0.1163  0.2993  0.0144
13924W        W29998  17.595  15.260  11.671  0.1007 -0.0174 -0.0868
13925W        W29999   3.083   8.715   3.769  0.0575 -0.3240 -0.1677
13926W        W30000  11.947  15.862  12.203  0.3266 -0.2171  0.0297
13927W        W30001  12.916   7.177   5.297  0.0272  0.0316  0.0794
13928W        W30002  11.156  12.121   4.943 -0.0045  0.2702 -0.0653
13929W        W30003   8.479   1.461   2.953 -0.2200  0.2522 -0.0535
13930W        W30004  12.155  14.249   5.356  0.1035 -0.1360  0.2481
13931W        W30005   6.244   6.563   5.545  0.1084  0.1286 -0.2965
13932W        W30006   3.254  12.913  11.926  0.3433  0.1248 -0.1583
13933W        W30007   6.495  12.144   4.747  0.3981 -0.1415  0.2356
13934W        W30008  10.316  11.549   0.373  0.1411 -0.2660  0.0856
13935W        W30009   2.367   8.879  10.831 -0.2337  0.0038  0.3058
13936W        W30010  16.755  15.764  13.699 -0.2469 -0.3945  0.1548
13937W        W30011  14.777   8.617  13.198  0.2834  0.1271  0.3506
13938W        W30012  11.929   8.194  13.999 -0.2049  0.1226  0.0556
13939W        W30013   8.231   8.079  14.022  0.1393  0.1598  0.1716
13940W        W30014  11.801   0.502  15.044 -0.0598 -0.0945 -0.0538
13941W        W30015   0.307  16.440   5.332 -0.2374  0.1261 -0.5156
13942W        W30016  18.136   8.080   3.660 -0.2466 -0.2210 -0.1050
13943W        W30017   8.727   0.316   5.034 -0.1517 -0.2384  0.1174
13944W        W30018  13.956   1.113  14.977  0.0908 -0.3027  0.1525
13945W        W30019  15.581   9.140   4.592 -0.4958  0.3017 -0.0549
13946W        W30020   0.883   5.551   2.519 -0.1507 -0.4298 -0.1213
13947W        W30021   1.823  13.625   0.635 -0.2487  0.2804  0.4048
13948W        W30022   1.310  11.796  12.998  0.0725  0.0902  0.1001
13949W        W30023  13.708   2.145  13.604  0.0122  0.1030 -0.2114
13950W        W30024  15.884  17.480   3.388 -0.2205  0.4969 -0.0806
13951W        W30025   5.234   0.056   0.994 -0.0587 -0.1371 -0.1135
13952W        W30026   7.649   3.342   0.809  0.2436  0.2510  0.0438
13953W        W30027   3.990  17.955   0.505 -0.0555 -0.2253  0.0732
13954W        W30028  14.448  16.655   0.087  0.5383  0.3494  0.1015
13955W        W30029   3.392  15.241   0.045  0.1063 -0.0475 -0.1315
13956W        W30030  11.443  16.236   0.880 -0.1825  0.1927  0.2424
13957W        W30031  14.549  17.432  15.489 -0.0286  0.1618 -0.2110
13958W        W30032   9.219  14.023   0.569  0.0211 -0.2739 -0.1137
13959W        W30033   3.128   1.102   0.324  0.1211 -0.1358  0.0318
13960W        W30034   7.888   0.335  13.983  0.1502  0.0840 -0.0086
13961W        W30035  15.039  11.177  13.543 -0.1449 -0.1665 -0.0417
13962W        W30036   5.547   1.942   0.834 -0.0128  0.2818  0.0687
13963W        W30037   1.764   0.015   0.324 -0.0642 -0.0756 -0.1918
13964W        W30038  18.062  10.750   1.775  0.1415 -0.1752 -0.1962
13965W        W30039  10.488   4.795  10.602  0.3329  0.4061  0.0426
13966W        W30040   9.982   3.159  12.972 -0.2127  0.0313  0.0632
13967W        W30041   6.932   6.768  12.461 -0.0476 -0.1678  0.1128
13968W        W30042  10.208   5.024  14.582  0.0717  0.0890 -0.1626
13969W        W30043   2.554   7.704  13.246  0.2944 -0.2596  0.0695
13970W        W30044   4.102   2.159   1.983 -0.3439 -0.1746 -0.1936
13971W        W30045   4.153   6.412   0.880 -0.0622  0.1632 -0.2547
13972W        W30046   0.821   5.284   0.118  0.0351 -0.2330  0.3127
13973W        W30047  16.328  18.223   2.203  0.2053  0.1304 -0.2281
13974W        W30048  11.459  17.977   1.216 -0.1705 -0.2640 -0.0481
13975W        W30049   5.867  14.061   2.393  0.0536  0.1294  0.1691
13976W        W30050  12.201   1.068  15.738 -0.2068  0.2941 -0.1894
13977W        W30051  12.141  13.248   4.543  0.5080  0.3269  0.0782
13978W        W30052  10.558   7.365  11.287  0.1208  0.0545  0.2330
13979W        W30053  14.490   2.954   3.697  0.0323  0.1182 -0.0274
13980W        W30054  12.042   6.900  13.757 -0.0700 -0.1286 -0.0571
13981W        W30055  18.333  16.968  15.643 -0.0811  0.3371 -0.2317
13982W        W30056  11.449  14.189   1.444 -0.1040  0.1202  0.0078
13983W        W30057  14.959  11.686  11.806 -0.1347  0.0782  0.0724
13984W        W30058   5.850  17.821  14.980  0.2486 -0.3757 -0.1868
13985W        W30059  15.301  15.163   6.309  0.1248  0.1439 -0.1156
13986W        W30060  15.665   2.223  15.387 -0.2262  0.2229 -0.2840
13987W        W30061   5.991  16.242  11.406  0.0939  0.0680 -0.2911
13988W        W30062   7.660  12.125   6.284  0.2493  0.1509 -0.0469
13989W        W30063  10.803   2.823  14.691  0.0090  0.0584 -0.0759
13990W        W30064   9.538   4.745  11.295 -0.4752 -0.0891  0.1283
13991W        W30065  11.469  10.157  12.833 -0.0181  0.2781  0.1984
13992W        W30066  14.754  13.562  15.206  0.1346  0.1439  0.4754
13993W        W30067   1.238   3.313   5.389  0.2319 -0.0390  0.1494
13994W        W30068   7.041   2.443   4.750  0.1318 -0.3790 -0.1394
13995W        W30069  16.908  15.360   1.780  0.0036  0.1484  0.1349
13996W        W30070   6.077  18.147   1.032  0.0803  0.1505  0.1927
13997W        W30071   9.551  14.424   0.680 -0.0269 -0.0470 -0.3870
13998W        W30072   5.662  10.165   2.549  0.0321 -0.2027 -0.2486
13999W        W30073   9.493  13.823  14.298  0.1206 -0.0124  0.0218
14000W        W30074  10.480   5.416  12.058 -0.1750  0.0360 -0.0798
14001W        W30075   0.474   5.999  15.474  0.1239 -0.1374 -0.0590
14002W        W30076   8.088   6.919  13.649  0.0814 -0.0112  0.0381
14003W        W30077   1.332   1.356  10.763  0.1696 -0.0881 -0.0400
14004W        W30078  17.867  13.661   3.752 -0.3155  0.4049 -0.3393
14005W        W30079  17.690   7.146   3.331 -0.0115 -0.1414 -0.1106
14006W        W30080   2.819   8.349   2.052  0.4295  0.2204 -0.0808
14007W        W30081  16.874   0.138  15.700 -0.0170 -0.2120  0.1232
14008W        W30082  13.287  14.553   1.760 -0.1355  0.0159  0.0196
14009W        W30083   6.754  13.096   1.146 -0.1964 -0.3925  0.4602
14010W        W30084  18.103  12.735   2.506  0.3665  0.0677  0.1340
14011W        W30085  11.713  10.622  11.404  0.1078  0.2570  0.2203
14012W        W30086  10.424   6.076   5.035  0.0444  0.2651  0.0305
14013W        W30087   6.371  15.052  13.188  0.2283 -0.3101  0.3323
14014W        W30088  10.952  17.311  15.260 -0.0568  0.2510 -0.2679
14015W        W30089   4.662   6.764   5.127 -0.1433 -0.0503 -0.4052
14016W        W30090  11.176  17.839   4.020 -0.2482 -0.0120  0.2353
14017W        W30091   0.757  13.137   0.777  0.0771 -0.0312 -0.1455
14018W        W30092   5.329  13.206  15.541  0.0867 -0.0040  0.3643
14019W        W30093  17.044   6.794   2.430  0.2484  0.1593 -0.1269
14020W        W30094  13.150   9.975   2.736 -0.1525  0.2036  0.0439
14021W        W30095   9.356   0.621  12.198  0.1100  0.0896 -0.0391
14022W        W30096  10.503  14.516  15.723 -0.1099 -0.2730 -0.3088
14023W        W30097  12.725  13.591  15.283 -0.3741  0.0257 -0.0010
14024W        W30098   7.718   6.144   0.314 -0.2532 -0.1916 -0.0220
14025W        W30099  11.526  12.306  15.036 -0.1204  0.1075  0.2054
14026W        W30100  12.539   8.392  13.414 -0.0929  0.0514 -0.0432
14027W        W30101  16.763  10.439  12.789 -0.2052 -0.1946  0.3666
14028W        W30102  10.631   5.181  10.955  0.1292  0.2944  0.2917
14029W        W30103  12.858   9.189  11.452 -0.1242  0.2325  0.1258
14030W        W30104   4.799   0.165  14.664 -0.0096 -0.0227  0.0949
14031W        W30105   9.851   0.857   0.732 -0.0315  0.3568 -0.1209
14032W        W30106   6.499  13.447   1.369  0.1366  0.2104  0.1563
14033W        W30107  16.367   1.508   4.444  0.3130  0.0582 -0.1039
14034W        W30108  14.191  12.414  12.781 -0.1924  0.1795  0.0060
14035W        W30109  10.851   4.449   5.047  0.0083  0.1235  0.0278
14036W        W30110   2.910   1.100   1.470 -0.2638 -0.4399 -0.3826
14037W        W30111  10.226   8.715   4.384  0.1470 -0.3061  0.3358
14038W        W30112  10.084  15.056   0.125  0.0769 -0.0283 -0.1236
14039W        W30113  18.062  13.102  12.002  0.0913 -0.0242 -0.1895
14040W        W30114   7.055   5.571   2.689 -0.2963  0.2391 -0.3923
14041W        W30115   4.818   1.682  13.958 -0.0652 -0.0440  0.2207
14042W        W30116  12.987   2.854  13.008 -0.1322  0.1880 -0.3133
14043W        W30117   5.839  16.757  12.352  0.1749 -0.0610 -0.2359
14044W        W30118   2.936  15.895  14.239  0.0849  0.0290  0.1978
14045W        W30119   9.308  12.282  16.217  0.2137 -0.0081 -0.1553
14046W        W30120   4.945   1.357   0.863 -0.0963 -0.0370 -0.1938
14047W        W30121   5.416   3.432   5.495  0.0190 -0.0589 -0.0615
14048W        W30122  14.721  18.204   3.309 -0.0693  0.1321 -0.2433
14049W        W30123  10.045   8.098  11.955  0.1617 -0.0212 -0.1065
14050W        W30124  14.793  14.806   4.520  0.1515 -0.1649 -0.0425
14051W        W30125   7.538   9.217  11.417  0.1289 -0.0293 -0.1019
14052W        W30126   8.954   4.761  10.836 -0.1524  0.0024  0.1687
14053W        W30127   7.292  15.961  14.711  0.0096 -0.2063  0.2491
14054W        W30128   3.017  11.704  13.368 -0.0569  0.0511 -0.0509
14055W        W30129  17.511  16.782   0.554  0.2570 -0.1150 -0.0369
14056W        W30130  13.818   1.021  15.804  0.1497 -0.0027 -0.0729
14057W        W30131   4.562   3.418   1.166  0.2129 -0.1422 -0.3842
14058W        W30132   6.252  15.261   2.118  0.1656 -0.0235  0.1909
14059W        W30133  10.041  12.548  12.726 -0.1114  0.3605  0.0651
14060W        W30134  13.681   5.826  10.115  0.1559 -0.2264 -0.0768
14061W        W30135  11.144  18.137  15.239  0.3354  0.0759 -0.0081
14062W        W30136  12.638   5.810   0.464 -0.0127 -0.0760 -0.1248
14063W        W30137  12.699   1.085   2.396  0.0013  0.2090 -0.1219
14064W        W30138  16.599   0.029  11.119 -0.1025 -0.0187  0.1966
14065W        W30139  11.447   6.332  11.335  0.1579 -0.4108  0.0813
14066W        W30140   8.237  17.740  12.221  0.1641  0.0896  0.1113
14067W        W30141  17.894   6.806   5.985  0.0777  0.2100  0.1078
14068W        W30142   3.974   9.296   3.072 -0.3656  0.2149 -0.2189
14069W        W30143   7.160   1.137   3.507  0.1023 -0.1235  0.0923
14070W        W30144   6.002   0.273   0.329  0.0658  0.0143  0.0680
14071W        W30145  10.196   9.727   0.929 -0.0496 -0.0914 -0.0214
14072W        W30146   5.070   3.349  14.753 -0.3043 -0.1725  0.1893
14073W        W30147   3.188  14.893   0.678 -0.0218  0.0571  0.1015
14074W        W30148  15.167  15.790  11.687 -0.0046 -0.0563  0.1533
14075W        W30149  11.814   8.174  15.036  0.0473 -0.0288 -0.1755
14076W        W30150   4.683  11.322  14.455 -0.1516  0.0450  0.0999
14077W        W30151  17.859  14.759  11.602  0.1235 -0.3151  0.1293
14078W        W30152   0.687  10.271  11.258  0.1211 -0.2772 -0.1537
14079W        W30153  15.050  17.742  10.983  0.0647  0.0764  0.0835
14080W        W30154  18.110  17.982  13.430  0.0092  0.1149 -0.1193
14081W        W30155  12.042   0.851   2.647  0.1199  0.1703 -0.1038
14082W        W30156   1.375   5.024   2.169 -0.0225  0.2288  0.4251
14083W        W30157  11.757   7.834  11.266  0.2836  0.0023  0.1981
14084W        W30158   4.870   2.209  11.696  0.0818  0.0763 -0.0168
14085W        W30159   7.938   8.941   2.341  0.0552  0.1875 -0.0011
14086W        W30160  10.678   0.337  12.661 -0.0622  0.3977 -0.0833
14087W        W30161  16.537  12.495  12.228  0.2843 -0.0914 -0.0368
14088W        W30162   0.218   7.238  12.675  0.2183  0.2030 -0.2305
14089W        W30163   0.565   4.456   1.541  0.0917 -0.1757 -0.1549
14090W        W30164  10.952  13.474  13.723 -0.0389  0.1284  0.1327
14091W        W30165  18.273  10.087   1.365  0.0036  0.2078 -0.2057
14092W        W30166  14.375   3.468  14.024  0.0992 -0.3368  0.0751
14093W        W30167   0.301   0.817   1.844 -0.0668 -0.0038 -0.1341
14094W        W30168  16.667  17.134   0.163  0.0940 -0.3241 -0.1664
14095W        W30169  16.735   1.548   0.722 -0.0593  0.4473  0.0362
14096W        W30170   3.035  15.562  11.903  0.1963  0.2175  0.3148
14097W        W30171  15.921   9.663   3.297  0.2042 -0.0937  0.0156
14098W        W30172   0.786  13.663  15.218  0.0048 -0.1081 -0.0032
14099W        W30173   2.403  12.292   2.113  0.1046 -0.0924  0.3388
14100W        W30174  12.805   0.612   3.677 -0.1472 -0.1107  0.1391
14101W        W30175  17.375  15.451  15.136 -0.1102 -0.0602 -0.0600
14102W        W30176  17.795   9.160  15.145  0.1213  0.3543 -0.0049
14103W        W30177  13.171   2.099  11.668 -0.0596 -0.2243 -0.1463
14104W        W30178  17.401  18.316   2.800 -0.1100  0.0368  0.0602
14105W        W30179   6.015  15.424   0.540  0.0864  0.1742  0.1509
14106W        W30180   5.201  11.954  15.301 -0.2184 -0.0616  0.0595
14107W        W30181   4.748   1.431  16.288  0.3681  0.0949  0.0624
14108W        W30182   0.260  10.441   1.043  0.0379  0.3341  0.0504
14109W        W30183   4.042  16.440   5.661  0.0315 -0.1905  0.0862
14110W        W30184   5.307  11.594   2.317 -0.2457  0.0553  0.3429
14111W        W30185   0.073   2.571   3.215 -0.4098 -0.2122  0.0782
14112W        W30186  10.265   1.490  14.060 -0.1946 -0.0477  0.2245
14113W        W30187  15.842  10.608  15.860 -0.0189 -0.0987  0.3017
14114W        W30188  13.251  16.992  15.726  0.0512  0.0426 -0.0417
14115W        W30189   6.683   5.766   1.043 -0.1627 -0.0756  0.1501
14116W        W30190  14.292   0.577   0.955  0.0690  0.3737 -0.0156
14117W        W30191   3.938   5.014   3.238  0.0874  0.4824  0.2536
14118W        W30192  13.224   5.562  13.488  0.1398  0.1731 -0.2643
14119W        W30193  13.174  17.726  15.124 -0.3216 -0.0846  0.1861
14120W        W30194   2.222   4.140   0.742 -0.0692 -0.1025  0.4875
14121W        W30195   2.646   4.595  16.300 -0.0300 -0.1436  0.1147
14122W        W30196  15.546  17.384  13.050  0.1440  0.1868  0.0666
14123W        W30197  13.934  15.887  14.040 -0.2503 -0.1795 -0.0229
14124W        W30198   0.552   3.277   3.359 -0.3074  0.1170 -0.0173
14125W        W30199  12.494   6.017  12.125 -0.0157 -0.2178  0.1759
14126W        W30200   5.048   0.319   0.151 -0.1590  0.0034 -0.2506
14127W        W30201  12.989  15.944  15.026  0.3968 -0.2005  0.1152
14128W        W30202   8.840   8.387   2.316 -0.1364 -0.1615 -0.3899
14129W        W30203   9.342   4.294  15.583 -0.0500 -0.1844  0.1530
14130W        W30204   3.561  16.326  12.092 -0.1370  0.2034 -0.1533
14131W        W30205  12.282   0.892  11.143 -0.1408  0.2499  0.1823
14132W        W30206  15.229   2.982  14.513  0.0166 -0.0651 -0.0520
14133W        W30207  13.457  16.696  12.154 -0.0469 -0.1514 -0.1322
14134W        W30208  11.343   0.443   3.015  0.2650 -0.2040 -0.0845
14135W        W30209   0.845  17.637  12.969  0.1017 -0.1947  0.0979
14136W        W30210   8.557   9.933  11.628  0.1877 -0.2015 -0.0211
14137W        W30211  17.859  10.910   1.246  0.1778  0.1733  0.4036
14138W        W30212   1.455  18.161   4.526 -0.3357 -0.1324 -0.0798
14139W        W30213   2.558  11.434  11.174 -0.0670 -0.1420 -0.1531
14140W        W30214   2.584   5.485   1.155  0.1198  0.1913  0.2980
14141W        W30215   0.154   1.875   4.847  0.4017  0.0061 -0.4408
14142W        W30216   4.368  15.087   2.673  0.3818 -0.3286  0.0418
14143W        W30217  11.731  14.726  15.156 -0.2391 -0.1143 -0.2324
14144W        W30218   8.877   4.539   2.537  0.1893 -0.0470 -0.1252
14145W        W30219  15.213   6.653   2.685 -0.1933 -0.0038  0.0712
14146W        W30220   7.444   3.722   3.350 -0.2577 -0.2127 -0.2601
14147W        W30221  18.022   9.807   2.372  0.0149 -0.0409 -0.1751
14148W        W30222  17.907   0.101   6.740  0.0429  0.0474  0.2517
14149W        W30223   2.254   2.132  10.808 -0.0060 -0.0487  0.2398
14150W        W30224  11.202   8.898  13.871 -0.1405 -0.1889 -0.1094
14151W        W30225   8.804  11.350  12.477  0.3366 -0.2318 -0.1312
14152W        W30226   5.134  15.591  15.030  0.1415 -0.1683 -0.2633
14153W        W30227   3.931   9.560   2.273  0.1598  0.1061 -0.2711
14154W        W30228   6.231  14.746  15.086 -0.1844  0.0389 -0.1874
14155W        W30229  14.849  18.187  12.681 -0.2827 -0.1262  0.1342
14156W        W30230   6.702   3.362  14.896  0.4052 -0.0719  0.1683
14157W        W30231  15.665  11.399   4.964 -0.0811  0.0593  0.0777
14158W        W30232  12.308   7.990   3.185 -0.1171  0.0347 -0.0836
14159W        W30233  13.408   4.475   3.539  0.1816  0.1119 -0.2858
14160W        W30234   0.293   2.302   2.842 -0.1372  0.2279 -0.0992
14161W        W30235   3.068   8.331  13.661  0.2011  0.0122  0.0764
14162W        W30236   6.842   0.039   2.347 -0.0089  0.0254  0.0270
14163W        W30237   5.265   9.448   4.204 -0.1384 -0.0778  0.1138
14164W        W30238   3.289  14.650   1.380  0.2098  0.1119  0.1918
14165W        W30239  14.027   0.431  12.679  0.1080  0.0718 -0.2877
14166W        W30240  10.038   8.219  12.513 -0.2337 -0.2113 -0.1608
14167W        W30241  10.622   6.278  15.127  0.0742 -0.0530  0.0068
14168W        W30242  13.773  12.096   0.038  0.0118 -0.1970  0.1807
14169W        W30243   6.695   9.887  13.756  0.2640  0.2856  0.0670
14170W        W30244   2.834  10.217   3.966  0.0448 -0.2142 -0.2961
14171W        W30245  12.155   9.479  13.651 -0.0999  0.0059 -0.0685
14172W        W30246   3.914  10.698   4.084 -0.1350  0.0642  0.0567
14173W        W30247   9.068  14.608   1.258  0.1476 -0.0571  0.0706
14174W        W30248  18.036   4.148   2.333  0.2413  0.0574 -0.3321
14175W        W30249  13.538  15.219   2.924 -0.1873 -0.1006 -0.1519
14176W        W30250   2.125   2.255  13.673  0.0028 -0.0947  0.1392
14177W        W30251   9.369   4.586   5.091  0.1261 -0.5992  0.2292
14178W        W30252   6.263  10.421   4.153 -0.0200 -0.0775  0.1827
14179W        W30253   3.718   1.978   1.631 -0.3642  0.1511  0.1633
14180W        W30254   7.193   7.685   5.143 -0.1733 -0.1671 -0.0595
14181W        W30255  13.547   1.424  14.803 -0.0131 -0.0551 -0.1402
14182W        W30256   4.227   3.318   0.129  0.1347 -0.3428 -0.0841
14183W        W30257   0.596  10.117   1.294  0.0544 -0.0346  0.1728
14184W        W30258  16.544   0.424  14.777 -0.0222  0.2423  0.0054
14185W        W30259  10.755   9.491  12.657 -0.1037 -0.1629  0.1516
14186W        W30260   1.652   9.216   4.014 -0.0461  0.0762 -0.0356
14187W        W30261   7.623  15.713   2.893  0.1627  0.2622 -0.1831
14188W        W30262   1.033  10.737  15.782 -0.2916  0.1976 -0.0345
14189W        W30263  14.326   5.932  14.458 -0.2243 -0.1945 -0.0129
14190W        W30264  10.342   6.602  15.420  0.1211 -0.0732 -0.0976
14191W        W30265  11.018   3.865   1.008 -0.0983 -0.0982 -0.0698
14192W        W30266   8.511   5.660   2.085  0.0665 -0.2592 -0.1386
14193W        W30267   4.641   7.157   4.483  0.3202 -0.2049  0.1926
14194W        W30268  15.164   1.163   4.856  0.1386  0.1811 -0.0303
14195W        W30269   6.425   4.003   1.743  0.3594 -0.2212 -0.2266
14196W        W30270   4.794   6.189   2.437 -0.1050  0.0281 -0.0734
14197W        W30271  14.514  16.026   2.059 -0.0827  0.2516  0.1963
14198W        W30272   5.016   3.736   3.802 -0.0340 -0.0615  0.0140
14199W        W30273   5.059  16.936  14.434  0.2370 -0.0908 -0.3475
14200W        W30274   0.156  13.337   2.627  0.1495  0.2827  0.1600
14201W        W30275   7.251  17.832  12.635  0.0590  0.1685  0.0029
14202W        W30276   7.825   5.629  11.864  0.5694 -0.2017  0.1300
14203W        W30277  10.519  17.081   4.308 -0.1619  0.3303  0.0487
14204W        W30278   7.373  17.592  10.797 -0.0955 -0.2393 -0.0945
14205W        W30279  14.899  16.531   4.626  0.4001  0.0383  0.1012
14206W        W30280  18.126   0.974   3.645 -0.0393  0.0332  0.0244
14207W        W30281  14.652   4.907   0.380 -0.4668 -0.1085 -0.0037
14208W        W30282  12.263   7.871  15.926  0.2145 -0.4096 -0.0226
14209W        W30283  15.286  17.587   0.326 -0.1013 -0.0352 -0.1340
14210W        W30284   4.260  13.506  13.426  0.2094  0.1819  0.3549
14211W        W30285  15.117  17.433  15.332 -0.2764 -0.1963  0.2198
14212W        W30286  17.824   5.700   2.099  0.2351 -0.4262 -0.0554
14213W        W30287   2.278   3.635  14.564  0.0660 -0.1036  0.1909
14214W        W30288  17.130   3.097  13.011  0.1329  0.2004  0.0922
14215W        W30289   7.407   8.387  14.283 -0.0135 -0.0599  0.0072
14216W        W30290   3.682   5.265   2.882  0.1186 -0.1117 -0.3144
14217W        W30291   3.068   0.984   2.947  0.0439  0.0977 -0.1607
14218W        W30292   7.710  11.109   5.260 -0.0329  0.1382 -0.1041
14219W        W30293   1.707   9.912   1.643  0.1219 -0.0010 -0.3026
14220W        W30294  13.937  10.942   3.019 -0.2974  0.3601  0.2389
14221W        W30295   4.631   5.179  16.057  0.3524  0.2032  0.0973
14222W        W30296  11.321  12.248  11.926 -0.0975 -0.4322 -0.1257
14223W        W30297  10.230  15.991  13.824  0.1919  0.0015 -0.0195
14224W        W30298   0.005  11.481   4.314 -0.2092 -0.1144 -0.1363
14225W        W30299   6.470   3.319   1.807  0.0668 -0.2858 -0.0028
14226W        W30300  10.155  14.125  15.628 -0.0007 -0.3019  0.2588
14227W        W30301   9.655   8.934   5.678 -0.2305 -0.1719  0.1680
14228W        W30302  14.988   5.751  12.783  0.1367  0.1023  0.1493
14229W        W30303  17.205  13.933   4.490 -0.3871  0.1765  0.0824
14230W        W30304   2.463   7.070   3.033  0.2282  0.0850  0.1429
14231W        W30305  17.035  16.923  13.706  0.2151  0.2152  0.0099
14232W        W30306  17.745  15.891  12.382 -0.1203  0.2659  0.1970
14233W        W30307  15.953   0.799   0.554 -0.0528  0.3203  0.0424
14234W        W30308   6.361   3.830   0.125 -0.0198 -0.2019 -0.0887
14235W        W30309   5.171  15.838  13.744  0.1518  0.0960  0.0006
14236W        W30310   0.407  13.022   4.557  0.1918 -0.1018 -0.0651
14237W        W30311   0.868  14.597  12.559 -0.1603 -0.1268  0.5081
14238W        W30312  10.978   1.122  15.908 -0.2673 -0.4075  0.1965
14239W        W30313  10.648  10.774   5.804 -0.1822  0.3445  0.1829
14240W        W30314  17.397  13.139  15.365 -0.2778  0.1299  0.1977
14241W        W30315   5.595   3.052   2.993  0.0097  0.0154 -0.0297
14242W        W30316   9.478  15.256   4.553  0.2105 -0.1264  0.0534
14243W        W30317   7.820   7.808  10.978 -0.0745 -0.1231  0.3242
14244W        W30318  14.031   8.463  14.669  0.0362  0.1691 -0.3095
14245W        W30319  11.725  15.474   3.833  0.2794 -0.0753 -0.0904
14246W        W30320   2.220   3.205   2.294 -0.3702  0.1468 -0.0305
14247W        W30321   4.627  11.497  13.938  0.2922 -0.1096  0.0843
14248W        W30322   3.766   6.214  14.696  0.0882  0.1603  0.2158
14249W        W30323  12.536  10.379   3.437  0.0794  0.2921  0.2757
14250W        W30324  12.798   9.277   3.747  0.1227  0.0533 -0.0678
14251W        W30325  17.731  17.286   4.880  0.0515 -0.3301  0.0573
14252W        W30326   9.515  17.878  11.275 -0.0166 -0.2245 -0.0343
14253W        W30327   2.444   8.355   3.143  0.2796 -0.1581 -0.0001
14254W        W30328  17.133  16.498  13.407  0.1361 -0.0202 -0.3376
14255W        W30329   8.415  16.108  15.071 -0.1962  0.0941  0.1903
14256W        W30330  15.115   6.070  11.683 -0.1722  0.1965  0.1790
14257W        W30331  13.240  11.673  13.740  0.1905  0.1602  0.2499
14258W        W30332   9.560   1.670  13.013 -0.0296  0.0454 -0.1143
14259W        W30333  16.927  11.756  12.712  0.0949  0.0379 -0.2119
14260W        W30334  11.366   6.532   3.818  0.2822  0.0151 -0.1961
14261W        W30335  17.092  12.964  13.215  0.0971  0.2758  0.0486
14262W        W30336   5.312   2.510   0.032 -0.2772  0.0249 -0.3057
14263W        W30337   3.706   9.665   4.903 -0.0922 -0.1018 -0.2030
14264W        W30338  13.465  17.520   5.287 -0.0250 -0.1415  0.3149
14265W        W30339   6.489  13.062  12.814 -0.3953  0.0297 -0.2283
14266W        W30340   3.622  14.467   2.383  0.3787  0.2988  0.3112
14267W        W30341  14.327   8.670   1.528  0.2871  0.0305 -0.0400
14268W        W30342  15.696   3.395   4.748  0.1955  0.0610  0.0613
14269W        W30343  10.388   0.988   4.025 -0.4371  0.1762 -0.3094
14270W        W30344   0.698   8.853   4.216  0.0543  0.1643 -0.2790
14271W        W30345   4.918  10.738  13.574  0.0903  0.2023 -0.0186
14272W        W30346  10.752   4.956   4.172  0.0275 -0.1148 -0.1862
14273W        W30347  12.335  16.725   0.983  0.0038 -0.1049 -0.1565
14274W        W30348   5.430   0.382   3.394 -0.0359  0.2024  0.2014
14275W        W30349  17.743   9.816   6.169  0.2743  0.0018 -0.0576
14276W        W30350   5.201  17.499   3.739 -0.3399  0.1255 -0.1348
14277W        W30351   2.784   8.264   3.702 -0.3101 -0.1125  0.1144
14278W        W30352   1.822  15.813  15.396  0.0608  0.5356 -0.0619
14279W        W30353   2.849   9.220   5.616 -0.1619 -0.5339  0.2702
14280W        W30354   7.359  17.520  15.130 -0.1545  0.0312  0.3020
14281W        W30355  17.905   5.442  11.334 -0.2925 -0.0059  0.1018
14282W        W30356  10.132  16.578  12.458 -0.0824  0.1457 -0.1503
14283W        W30357   4.213  15.577  11.870  0.2532 -0.0383  0.0338
14284W        W30358   1.697   1.974   3.307  0.0831  0.0668 -0.2114
14285W        W30359   7.719   4.093  15.305  0.1041  0.3600 -0.0877
14286W        W30360  15.332  13.040   3.829 -0.4413 -0.2620 -0.0208
14287W        W30361  16.730   0.337   0.340 -0.0638  0.1300 -0.1479
14288W        W30362  10.429   7.957  11.279  0.2331  0.0875  0.1694
14289W        W30363   7.366   9.747  14.749 -0.1817  0.0610 -0.2700
14290W        W30364   5.916   7.325   5.162 -0.1288 -0.0638  0.0986
14291W        W30365   5.089   2.286  11.291  0.0675 -0.3009  0.0369
14292W        W30366  13.439  13.808   1.064 -0.2403  0.1064  0.1861
14293W        W30367  13.740   3.895  12.794  0.0593  0.5454  0.1052
14294W        W30368  15.652   6.565  13.623 -0.2863  0.2799 -0.0421
14295W        W30369   5.471  16.098   4.312  0.0793  0.0959  0.1886
14296W        W30370   3.594   2.173   2.074  0.1821  0.1139 -0.1687
14297W        W30371   5.668  14.911  15.017 -0.1812  0.1450 -0.2907
14298W        W30372  15.280   1.355  14.854  0.4349 -0.0717 -0.4312
14299W        W30373   9.422   5.434   1.000 -0.0028 -0.2457 -0.3066
14300W        W30374   0.480   3.202   5.359  0.5888 -0.1505  0.3182
14301W        W30375   7.740   1.960  13.383  0.0287  0.1798  0.1169
14302W        W30376  18.272   9.286  12.359  0.2714 -0.1385 -0.0898
14303W        W30377   5.041   3.189  11.804 -0.1675  0.1336 -0.1355
14304W        W30378   7.837  14.047  14.046 -0.1685 -0.2121 -0.0219
14305W        W30379   2.943   7.436   2.315  0.2702 -0.1257  0.0578
14306W        W30380   3.939   1.020  12.724  0.1063  0.0809  0.0520
14307W        W30381   8.838   9.259   2.434  0.0651  0.3515  0.1726
14308W        W30382   5.991   5.253  11.650 -0.3350  0.1276 -0.0941
14309W        W30383  12.285  11.701  15.013  0.0348 -0.2835  0.0620
14310W        W30384  10.474   4.837  11.370 -0.2085  0.0719  0.1729
14311W        W30385  12.630   6.469  15.183  0.0236 -0.1096 -0.1601
14312W        W30386  13.045   0.440  16.392  0.5701  0.0498  0.0720
14313W        W30387  11.218  13.687  12.144 -0.1895 -0.1919  0.0061
14314W        W30388  15.079  15.758  12.593  0.2080  0.0423 -0.0383
14315W        W30389   7.565  16.934  13.331 -0.1610 -0.0717  0.2301
14316W        W30390  14.456  11.402   0.435 -0.1298  0.0460  0.0577
14317W        W30391   8.326  11.026  16.067  0.2781  0.0850 -0.1612
14318W        W30392   1.158   9.254   1.941  0.1201 -0.3052  0.0026
14319W        W30393   8.275   0.847   3.664  0.2521 -0.2399  0.0036
14320W        W30394  15.034   5.090  15.029 -0.1686  0.2219 -0.0526
14321W        W30395   0.075  10.192  11.538  0.3605 -0.1639 -0.1868
14322W        W30396   1.007  16.517  13.150 -0.0408 -0.4554  0.0692
14323W        W30397   2.972  10.939  12.146  0.2406  0.1555  0.1465
14324W        W30398   5.764  17.387  15.910  0.2143  0.2834  0.1662
14325W        W30399  16.899   6.856   0.457 -0.0396  0.2825 -0.0499
14326W        W30400   2.190  15.579   5.344  0.0247  0.0968 -0.0936
14327W        W30401  16.186   6.423  12.147  0.0653  0.0325 -0.2801
14328W        W30402   0.660  14.460  15.596 -0.4794 -0.0100  0.1053
14329W        W30403   1.557  11.986  12.143  0.0569 -0.0944  0.1109
14330W        W30404   9.886  10.274   2.431  0.0273 -0.3520  0.1433
14331W        W30405   8.848   0.154  14.972 -0.2758  0.1222 -0.1011
14332W        W30406  13.532   1.692   0.413  0.2344  0.0788 -0.2470
14333W        W30407  16.354   2.360   1.451 -0.3464 -0.0034  0.1119
14334W        W30408  10.331   3.909   1.885 -0.0184  0.1974 -0.0328
14335W        W30409  10.439  14.992  15.524  0.2739 -0.2031 -0.1236
14336W        W30410   2.680   6.448   2.441  0.1266 -0.1536 -0.3227
14337W        W30411   2.478   8.843  15.677 -0.0530  0.1427 -0.0673
14338W        W30412   3.777   5.099   3.704  0.1655  0.1218 -0.0956
14339W        W30413   0.510   5.757  13.659 -0.5994 -0.0678  0.1257
14340W        W30414   3.139   0.530  12.207 -0.1429  0.2643 -0.3418
14341W        W30415   7.138   3.221   5.926  0.0844 -0.3051 -0.0109
14342W        W30416  16.307  16.120   0.519 -0.1740 -0.3310 -0.1022
14343W        W30417   6.184  13.652  14.097  0.1437 -0.1487  0.2344
14344W        W30418  16.644   2.028   1.767 -0.2574  0.0331 -0.1427
14345W        W30419  11.796   1.530   2.254 -0.0155 -0.0561 -0.2239
14346W        W30420   8.083  11.959   1.336 -0.2416  0.1132 -0.2813
14347W        W30421  10.485   3.404   3.460  0.6285 -0.3239 -0.1612
14348W        W30422  14.319   1.972   1.764  0.1689  0.3144  0.2091
14349W        W30423   9.421   6.076   2.430  0.2718 -0.0113 -0.2032
14350W        W30424  15.146   7.021   1.888  0.2055 -0.0026  0.2540
14351W        W30425   0.826  14.506  11.792  0.0028 -0.0423 -0.2301
14352W        W30426   8.070   7.861   4.773 -0.0489 -0.1012 -0.2534
14353W        W30427   6.691  11.728  12.864  0.1568  0.1355 -0.0387
14354W        W30428   3.537  13.398   5.551  0.2756 -0.1093  0.0540
14355W        W30429   8.045   8.736   4.345  0.1842  0.0516 -0.1344
14356W        W30430   1.210  18.217   5.242  0.0318  0.0124 -0.1539
14357W        W30431   9.800   8.648   1.803  0.3181  0.0127  0.2537
14358W        W30432   0.407  14.802   4.085  0.1457 -0.1308  0.1635
14359W        W30433   0.743  17.648  14.602  0.2708 -0.1700  0.1654
14360W        W30434  14.424   5.193   5.728  0.0670  0.2010  0.0828
14361W        W30435   8.112  15.942   2.807 -0.1154 -0.0739  0.2445
14362W        W30436   2.498   7.011  15.676  0.0955 -0.1293  0.2571
14363W        W30437   0.508  15.270   4.413  0.2141 -0.0472 -0.0628
14364W        W30438   9.145  15.378  11.559  0.0244  0.2746  0.1908
14365W        W30439   0.992   7.715   0.448 -0.5478  0.1492 -0.2389
14366W        W30440   0.094   4.942   2.885  0.2521  0.4836 -0.1276
14367W        W30441  11.108  13.639   0.057  0.1636 -0.3399 -0.0735
14368W        W30442   6.552   6.815   0.381  0.1531  0.0541 -0.0426
14369W        W30443   3.653   3.905   5.160  0.1101 -0.1081 -0.0582
14370W        W30444   8.252  16.138  15.575 -0.0241 -0.0365  0.1044
14371W        W30445   1.155   3.857   1.822 -0.0330  0.3993 -0.0397
14372W        W30446   5.198  15.914  11.494 -0.2342 -0.0517  0.1683
14373W        W30447  10.671  10.630   3.438 -0.1903 -0.1971 -0.0038
14374W        W30448  17.165  10.507  15.907  0.0856 -0.0798  0.1406
14375W        W30449   8.984  10.167  11.692  0.0799  0.1414 -0.1066
14376W        W30450   5.822  17.619  11.518  0.0414 -0.0412 -0.1048
14377W        W30451   8.912  15.200  16.119 -0.1053 -0.1048  0.1840
14378W        W30452  14.749   0.954   0.863 -0.0535 -0.0422 -0.0547
14379W        W30453   0.022   7.531   3.805  0.2877 -0.0634 -0.0956
14380W        W30454  10.324   5.530  14.065 -0.0970 -0.0520  0.3046
14381W        W30455   2.977  18.174  16.080  0.0207 -0.3140 -0.0654
14382W        W30456   3.520   0.711  12.572 -0.0053 -0.2355 -0.2271
14383W        W30457  16.480   7.095   0.225 -0.0427  0.1025 -0.0844
14384W        W30458  14.273  12.756   0.760  0.3469 -0.0897  0.0204
14385W        W30459   5.766   1.241   5.787 -0.0213 -0.3630  0.0993
14386W        W30460   8.162  13.883  16.249 -0.0624 -0.0187 -0.1454
14387W        W30461  12.347  11.741  13.987  0.0001  0.1587  0.1719
14388W        W30462  15.513  14.943   0.109  0.0653  0.1317  0.3153
14389W        W30463  12.408   5.005  12.417  0.0458  0.1379  0.1201
14390W        W30464  13.592   5.559  13.176 -0.2537 -0.0256  0.2784
14391W        W30465  18.126   3.581   0.701  0.1588 -0.0174  0.1322
14392W        W30466  11.307   4.663  13.582 -0.0515  0.0336  0.0062
14393W        W30467   6.957   4.620   1.625  0.1561 -0.1014 -0.3836
14394W        W30468   5.254   6.531  12.221 -0.1853  0.1761 -0.1110
14395W        W30469   7.671  17.294   0.201 -0.2573 -0.0747  0.1382
14396W        W30470   7.501   7.884  12.253  0.0384 -0.2171 -0.1218
14397W        W30471   6.804   9.664  11.456  0.1605  0.0061  0.1575
14398W        W30472  14.520  12.500  13.622 -0.0280 -0.1709  0.0314
14399W        W30473  12.161  17.535   4.058  0.0739  0.0119  0.1261
14400W        W30474   9.938  14.014   4.821 -0.1570 -0.0061 -0.2628
14401W        W30475  16.214  15.518   1.295  0.0392  0.0115  0.2568
14402W        W30476  17.043   6.975   3.790 -0.0349 -0.1866  0.1643
14403W        W30477   8.222   2.524   1.498 -0.1424 -0.1112  0.0881
14404W        W30478   0.431  15.273  13.027 -0.1039  0.0849 -0.0430
14405W        W30479   1.656  13.723   4.431 -0.1709  0.4699 -0.1088
14406W        W30480   5.270   5.754  16.271 -0.0149 -0.0954  0.3758
14407W        W30481   4.153   3.905  15.194  0.1214  0.1379 -0.0871
14408W        W30482  13.759   2.145  14.095  0.0560  0.0295  0.0164
14409W        W30483   8.363  14.239  11.297 -0.0289  0.2084  0.0499
14410W        W30484   2.112   5.050  13.415  0.1469 -0.2320  0.1424
14411W        W30485   4.193  12.591   3.438 -0.0954  0.2616  0.2462
14412W        W30486   7.836  11.785   1.878  0.0900 -0.2348  0.0360
14413W        W30487  16.540  12.126  13.145  0.0876 -0.0748 -0.1567
14414W        W30488  12.596   8.654   6.180  0.0054  0.0554 -0.1696
14415W        W30489   5.001   8.864  15.811 -0.1695 -0.1614  0.1354
14416W        W30490   4.872  11.779   2.437 -0.0581 -0.3195 -0.2464
14417W        W30491   3.039   2.451  12.180 -0.0450  0.1931  0.3089
14418W        W30492  13.890  10.869  14.639  0.2484  0.0514 -0.1235
14419W        W30493   1.437   4.212   2.702  0.3336  0.1359 -0.0312
14420W        W30494   8.912   5.380   3.951 -0.0725 -0.0724  0.0637
14421W        W30495   1.650  14.426   0.346 -0.2861  0.1194  0.0371
14422W        W30496  15.491   1.391  15.770 -0.0641  0.2093  0.2480
14423W        W30497   3.435   0.500   2.252 -0.4508 -0.1502 -0.1080
14424W        W30498   0.356  11.897  13.725  0.2734 -0.0632  0.0376
14425W        W30499  13.060  12.399   3.684 -0.1591 -0.1688  0.0168
14426W        W30500  18.014   1.165  14.448  0.1916 -0.1742 -0.0312
14427W        W30501   5.905  14.910  14.534  0.0193  0.2201  0.3037
14428W        W30502   0.472   3.732  11.782 -0.0029  0.2868  0.3330
14429W        W30503   2.624  12.993   0.587  0.3052  0.0088  0.2935
14430W        W30504   8.483  14.667   2.744  0.0121 -0.1687  0.1496
14431W        W30505   5.379  10.085  11.135 -0.2820 -0.0809  0.0579
14432W        W30506   7.577   7.494   4.768  0.0835  0.2428  0.0961
14433W        W30507  16.644   3.107   1.929 -0.0269 -0.1262 -0.1969
14434W        W30508  16.958   5.632   2.520  0.1639 -0.3243  0.2036
14435W        W30509   5.742  13.621   2.582 -0.2723  0.0004  0.3635
14436W        W30510   2.494  17.126   2.007  0.2365 -0.1495 -0.0732
14437W        W30511  16.398   5.817  16.395  0.0958 -0.1206 -0.0427
14438W        W30512   9.936   7.917   2.896  0.1721  0.0727 -0.1292
14439W        W30513   9.178   4.989   6.230 -0.1428  0.4261 -0.0853
14440W        W30514  13.081   6.217   1.311 -0.1334  0.2130  0.0323
14441W        W30515   5.874   5.049  13.322  0.1316  0.2346  0.1981
14442W        W30516   1.962   1.795   0.591  0.2915 -0.0770 -0.2884
14443W        W30517  10.457   7.344   3.096 -0.0529 -0.1010  0.0095
14444W        W30518   7.666   8.950  11.844 -0.0875 -0.0733 -0.0656
14445W        W30519  17.255   7.272   3.277 -0.1113  0.0403  0.1840
14446W        W30520   1.111   7.156  11.751  0.2451  0.0648 -0.0697
14447W        W30521   6.911   2.460  13.890 -0.2067  0.1962  0.1828
14448W        W30522   8.482  11.235  11.840 -0.0909 -0.2347  0.0625
14449W        W30523  17.741   2.167  15.870  0.1951  0.0182 -0.1465
14450W        W30524   0.814  11.814  15.578 -0.2377 -0.0397 -0.3276
14451W        W30525   1.962   6.364  15.154 -0.1226 -0.0376  0.1452
14452W        W30526   7.935   3.314   5.070 -0.0753 -0.2677 -0.0706
14453W        W30527   2.500   4.421  13.565  0.2089 -0.1181  0.1643
14454W        W30528   6.944   9.448   1.935 -0.1617 -0.2006 -0.2288
14455W        W30529  10.785   6.021   3.234  0.0685 -0.3729 -0.1452
14456W        W30530   5.753   5.770   3.434  0.2414  0.0017  0.3312
14457W        W30531   2.056   2.926   0.656 -0.2453 -0.0912  0.0773
14458W        W30532  10.066   1.243   0.961  0.0948 -0.2048 -0.4144
14459W        W30533   2.606   7.263   3.599  0.1432 -0.1174 -0.0534
14460W        W30534  13.383   9.802   1.340 -0.0599 -0.0493 -0.0216
14461W        W30535   4.017   8.330   0.289  0.2266 -0.0373  0.2021
14462W        W30536  12.871  17.141   0.334 -0.1418 -0.2692 -0.0725
14463W        W30537  17.500  11.001  14.668 -0.3151  0.1271  0.0535
14464W        W30538   8.485   3.000   0.457  0.1347 -0.0268 -0.1501
14465W        W30539  10.931  12.515   6.066  0.0953 -0.1612 -0.0464
14466W        W30540   5.809   4.900  12.816 -0.0403  0.0482 -0.0562
14467W        W30541  13.146  11.407  14.171  0.0413 -0.1943 -0.0503
14468W        W30542   7.403   6.102   3.380 -0.0369  0.0081  0.0181
14469W        W30543   9.794   8.963  11.910 -0.0919 -0.0429  0.2455
14470W        W30544   1.298  15.510  11.596 -0.1615  0.3613 -0.0042
14471W        W30545   6.633  12.902  11.720 -0.0130  0.0075 -0.0447
14472W        W30546  12.970   4.534  12.681  0.1469 -0.0660  0.2283
14473W        W30547  10.772  16.496  14.341  0.2796 -0.0264 -0.0968
14474W        W30548   2.131  18.083   1.487  0.1506 -0.0358 -0.3040
14475W        W30549   0.493   3.022  16.153 -0.0161 -0.2539 -0.2465
14476W        W30550  17.706   5.583   5.233  0.2440 -0.2797 -0.1036
14477W        W30551  10.633   9.433   5.141  0.1778  0.0123  0.2181
14478W        W30552   9.828  13.489  15.956 -0.1765  0.0841 -0.1890
14479W        W30553  13.247   7.659   0.161 -0.4544  0.1456 -0.1699
14480W        W30554   2.252  12.874  11.918  0.0605 -0.2858  0.1497
14481W        W30555   6.571  15.185  16.041 -0.1777 -0.0003  0.1431
14482W        W30556  15.287   8.659  12.472  0.4108  0.0956  0.0496
14483W        W30557   1.964   6.655   1.325 -0.1224  0.1036  0.1643
14484W        W30558   0.787  17.699   3.778 -0.0442 -0.2163  0.2264
14485W        W30559   4.944  15.894   5.114 -0.0038  0.2926 -0.0989
14486W        W30560  15.132   1.246   1.040  0.2055 -0.0063  0.2684
14487W        W30561  16.196  10.122   5.327 -0.0289 -0.1237 -0.2640
14488W        W30562   1.843   6.310  16.101  0.3760 -0.3390 -0.2090
14489W        W30563   5.512   6.996   3.053 -0.0023  0.1729  0.0204
14490W        W30564   1.904   6.006  13.689 -0.0894  0.1100  0.4581
14491W        W30565   3.895  14.431  13.953  0.2380 -0.1131 -0.0845
14492W        W30566  14.537   0.773   0.116 -0.3004 -0.0090 -0.0564
14493W        W30567   7.649  13.320  15.236  0.2616  0.0484 -0.1894
14494W        W30568   3.674   5.358  13.174 -0.0336  0.1826  0.0451
14495W        W30569   8.505   2.265   1.253 -0.0224 -0.1573  0.0481
14496W        W30570   9.863  12.101  13.732  0.0834 -0.2045  0.1353
14497W        W30571   3.671  10.133   0.063  0.3185  0.0383  0.0588
14498W        W30572   9.191   8.299   5.177 -0.0188  0.4438 -0.2143
14499W        W30573  14.268   6.779  11.106 -0.0225 -0.0772 -0.4660
14500W        W30574  10.914   8.575   1.076 -0.0305 -0.0513 -0.0011
14501W        W30575   7.122  14.030   5.708 -0.3600 -0.1276  0.0357
14502W        W30576  17.764  14.963  15.206  0.0621  0.1778 -0.2451
14503W        W30577  16.234   1.349  16.083 -0.0858  0.0854 -0.1599
14504W        W30578   8.774  12.277  10.871 -0.0829 -0.2266  0.2789
14505W        W30579   1.770   8.312  10.329 -0.1073  0.4400  0.2341
14506W        W30580   7.228  15.094   3.321 -0.0791 -0.0368  0.1796
14507W        W30581  12.945  15.474  11.952  0.0688 -0.1542  0.0903
14508W        W30582   1.777   3.008   3.923  0.0496 -0.0033 -0.1502
14509W        W30583   3.947   4.305   5.265 -0.1476  0.2734 -0.0151
14510W        W30584  10.865   7.386   1.762 -0.1742 -0.0412 -0.1990
14511W        W30585  12.692   7.674   0.334 -0.1675 -0.0476 -0.0909
14512W        W30586  14.813  11.364   0.811 -0.4837 -0.2015  0.1093
14513W        W30587   0.556  10.387  16.095  0.2967 -0.2070 -0.2276
14514W        W30588  14.510   2.233  13.385 -0.0230 -0.2235 -0.1347
14515W        W30589  17.702  15.547   0.784  0.1436  0.3465 -0.0003
14516W        W30590   6.682  15.282   1.708  0.0381 -0.0995 -0.2504
14517W        W30591  10.244   5.969   2.099 -0.0881 -0.2519 -0.0714
14518W        W30592  16.773   6.100   3.322 -0.0813 -0.0422 -0.1258
14519W        W30593   2.868   1.420  16.142 -0.2244  0.0088 -0.1581
14520W        W30594  15.753  13.454   3.164  0.1128  0.3378 -0.2181
14521W        W30595   9.162   1.805  12.085 -0.0374 -0.1370  0.4291
14522W        W30596   8.242  14.954   3.095 -0.0473 -0.0083 -0.0009
14523W        W30597   6.026   2.113   0.763 -0.3005  0.2059  0.4677
14524W        W30598  10.990  14.163  12.932 -0.1500 -0.3219 -0.0542
14525W        W30599   4.435   1.216  14.557  0.1238 -0.1267  0.1592
14526W        W30600   8.391  11.976   1.822  0.0387 -0.2759  0.0468
14527W        W30601   2.326   5.592   0.014 -0.1900  0.1702 -0.0001
14528W        W30602  11.516  10.088   1.052  0.0679  0.1525 -0.1863
14529W        W30603  16.268   6.752  10.594  0.1102 -0.0145  0.0182
14530W        W30604  11.028   9.484  15.429  0.3468 -0.1891  0.0566
14531W        W30605   2.294  17.625   1.895  0.1603  0.1913 -0.1196
14532W        W30606   9.352  14.908   2.703 -0.0374 -0.2589 -0.0434
14533W        W30607  13.884  17.686   1.399 -0.0811 -0.0364  0.1647
14534W        W30608  10.140   9.356   4.975  0.0785 -0.5098  0.2213
14535W        W30609  18.054  17.189   2.506 -0.0427 -0.1802 -0.1517
14536W        W30610  13.521  10.239  16.004  0.0789 -0.0924  0.1901
14537W        W30611  17.788  17.446  13.383  0.2201  0.1303  0.3198
14538W        W30612  12.325   6.038  13.444 -0.2858  0.0024  0.0229
14539W        W30613   4.943   0.694  11.862 -0.0276  0.0508  0.1716
14540W        W30614   8.366  17.997   3.616  0.1225  0.0686 -0.1211
14541W        W30615   7.250   6.656  14.892  0.3717  0.0062 -0.1506
14542W        W30616   8.600   1.080  12.414 -0.1614 -0.2027 -0.3585
14543W        W30617  15.894  12.833   6.161  0.5131 -0.0308  0.0569
14544W        W30618  12.037   0.301   1.852 -0.0531 -0.0693  0.1029
14545W        W30619   4.169   9.638   5.044 -0.0936  0.3139 -0.0470
14546W        W30620   1.422  10.017   0.814  0.0405  0.0732 -0.2614
14547W        W30621   7.937  10.516   2.474 -0.0164  0.2018 -0.0930
14548W        W30622   3.466  10.131  14.438 -0.1285  0.3051  0.0104
14549W        W30623  15.324  10.021   5.212 -0.0439 -0.0540  0.0403
14550W        W30624  17.462   1.509  14.507  0.0121  0.0930 -0.2508
14551W        W30625   6.059  14.821   0.292  0.0894  0.0335 -0.0785
14552W        W30626   7.604  17.618  11.528  0.2707 -0.0910  0.2892
14553W        W30627  11.487   6.606  12.615  0.1490 -0.0922 -0.2136
14554W        W30628  17.054   7.330   0.383  0.1093  0.1974  0.1144
14555W        W30629   9.509   7.535  15.079  0.3125  0.1168 -0.0690
14556W        W30630  15.330  16.585   5.875 -0.3003  0.0955 -0.2086
14557W        W30631   7.652   1.298   3.101 -0.2614  0.0182  0.2839
14558W        W30632  14.535  10.315  15.766  0.0295 -0.1484 -0.1327
14559W        W30633   8.172   2.682  11.500  0.0137  0.0604 -0.2419
14560W        W30634  11.398   3.745   1.402 -0.0208  0.1477 -0.0782
14561W        W30635  17.225   2.303  12.492  0.3333 -0.3192 -0.2284
14562W        W30636   5.251   2.845   1.653 -0.0346  0.0847 -0.0407
14563W        W30637  16.375   0.710   0.337  0.3497  0.3062  0.0673
14564W        W30638   8.538   0.614  11.044 -0.0870 -0.0915 -0.0209
14565W        W30639   9.495   4.391  13.509 -0.3481 -0.2507 -0.0602
14566W        W30640  17.828   5.106  15.551 -0.1416  0.1668  0.1999
14567W        W30641   3.208   4.218   3.977 -0.0349  0.0812 -0.1515
14568W        W30642  13.641   1.062   1.383  0.2960  0.1196  0.1316
14569W        W30643   5.281   4.499   4.188  0.2736  0.0298  0.0402
14570W        W30644   4.632  17.613  14.626 -0.2897 -0.0468  0.1781
14571W        W30645  11.064   0.082   3.269 -0.0607  0.0733  0.2849
14572W        W30646   5.724  13.362  13.864 -0.1313  0.1046  0.1893
14573W        W30647   8.370   3.627   2.141  0.0882  0.1216 -0.3300
14574W        W30648   2.012   2.897   2.012 -0.0348  0.0052 -0.0647
14575W        W30649  10.918   2.176  14.150  0.1460 -0.3855 -0.1364
14576W        W30650  12.463  13.237   3.155  0.2189  0.0146  0.1028
14577W        W30651  11.957  17.631   1.492 -0.1326  0.1143  0.2654
14578W        W30652   2.015  16.392   1.428  0.0434 -0.1481 -0.0164
14579W        W30653   4.726   8.174   2.545  0.2196  0.3992  0.1144
14580W        W30654  11.220  17.264   3.390  0.0153  0.2737 -0.3056
14581W        W30655  13.945   7.462   3.694 -0.0423 -0.0754  0.0091
14582W        W30656   1.131  10.137   1.368 -0.3656 -0.0052  0.2851
14583W        W30657   5.932  15.162  15.447  0.0149  0.1425 -0.0710
14584W        W30658   1.567  10.448  14.089 -0.2766 -0.0720 -0.1033
14585W        W30659   4.197  15.850   4.680  0.0581 -0.3331  0.4262
14586W        W30660   1.549   4.983   3.096 -0.1165 -0.0487  0.0774
14587W        W30661  15.119   7.113  11.483 -0.1697  0.0513  0.3171
14588W        W30662  11.431   0.001  14.270  0.1875 -0.0487 -0.0420
14589W        W30663  11.063   0.551  15.314  0.1891 -0.3078  0.3830
14590W        W30664   7.346   7.102   3.950  0.1740 -0.0500  0.3310
14591W        W30665   0.441  15.709  14.401 -0.0924  0.0452 -0.0505
14592W        W30666  17.087   1.006   2.483  0.2339  0.3826 -0.0410
14593W        W30667   3.864  17.718  13.243  0.4614  0.3473 -0.0271
14594W        W30668   8.422  10.341   2.421 -0.1845 -0.2441 -0.5815
14595W        W30669  13.527   7.891  14.323  0.1231 -0.1602 -0.2013
14596W        W30670   4.429   6.544  12.162  0.1466 -0.3244 -0.5159
14597W        W30671   7.368  10.760  14.396  0.0982 -0.1532  0.1574
14598W        W30672   7.645   2.612  16.367  0.1368  0.2191 -0.1270
14599W        W30673  12.463   4.817   1.186 -0.0993  0.1903 -0.1549
14600W        W30674   1.100   1.984   1.776 -0.4068  0.2976  0.0963
14601W        W30675  16.016   8.210  15.734  0.1241  0.2772  0.0293
14602W        W30676   5.660   3.671   2.086 -0.3389 -0.2180 -0.2029
14603W        W30677   9.528   4.000   3.258 -0.2784  0.1889 -0.0115
14604W        W30678   6.422  12.097  14.099  0.1693 -0.0245 -0.1968
14605W        W30679  13.347  15.701   2.982  0.0782  0.0290 -0.3238
14606W        W30680   2.520  11.792  12.016  0.1235 -0.1316  0.2390
14607W        W30681  13.979  13.859   5.591 -0.0089  0.2460 -0.0283
14608W        W30682  15.486   4.790  15.114  0.0619  0.0939  0.1472
14609W        W30683  13.281   0.259  15.743  0.1547  0.0013 -0.1466
14610W        W30684   6.019  17.406   2.625 -0.3450  0.0982 -0.0929
14611W        W30685  11.832  13.265  12.671 -0.1847 -0.3301  0.1009
14612W        W30686   7.402   0.696  13.260  0.2756  0.0492 -0.0630
14613W        W30687  12.912   3.586  11.679  0.2474  0.0117  0.1457
14614W        W30688  17.423   3.053  12.587 -0.0171 -0.1767  0.0902
14615W        W30689   0.739   5.326  13.863  0.2428  0.2248  0.0979
14616W        W30690   0.580  12.796  11.740  0.0516  0.2363  0.0435
14617W        W30691   9.160   5.037  13.697 -0.0976  0.1675 -0.4801
14618W        W30692  17.109  16.034  16.082  0.0739 -0.0393 -0.0103
14619W        W30693   5.495  15.427  14.242 -0.2691  0.0878 -0.0344
14620W        W30694   5.100  11.286   3.203 -0.1660 -0.3318  0.0634
14621W        W30695   8.406  17.448  15.616 -0.1984  0.1360  0.2400
14622W        W30696   6.373   8.215   4.181  0.0155  0.1554  0.0715
14623W        W30697  15.764  14.189   4.504  0.2346 -0.0721 -0.3702
14624W        W30698  14.847   1.825  14.407  0.2877  0.1920 -0.2307
14625W        W30699   3.617  16.220  14.797  0.1231 -0.3482 -0.3221
14626W        W30700   5.970  10.846   4.399  0.0555  0.2056 -0.3130
14627W        W30701   7.175   5.872   1.866  0.1775  0.0650 -0.3155
14628W        W30702  15.779   7.186   4.336  0.3596 -0.1684 -0.1690
14629W        W30703   0.703   5.156   2.338 -0.3230  0.1583  0.2750
14630W        W30704   1.658   2.657  11.852 -0.0094 -0.0286 -0.1801
14631W        W30705  12.511   9.272  12.301 -0.4116 -0.0194 -0.1708
14632W        W30706   7.904   2.891   4.853  0.2884 -0.0821 -0.0928
14633W        W30707   3.727   1.705   2.161  0.0571  0.1012 -0.3032
14634W        W30708  10.491   0.373   1.549 -0.1052 -0.5872  0.3320
14635W        W30709  15.985   1.109  13.606 -0.1793  0.1857  0.0296
14636W        W30710   6.679  18.062  14.468  0.3813  0.1097 -0.4858
14637W        W30711  13.943  12.982  15.349  0.0823  0.0054 -0.1120
14638W        W30712   4.659   5.476  12.779  0.4342  0.1895 -0.1075
14639W        W30713   0.544   3.706   3.661  0.1903 -0.0263 -0.0151
14640W        W30714   1.649  17.174   3.854 -0.0197 -0.1187 -0.0915
14641W        W30715  10.440   5.534  16.350  0.2628  0.0299 -0.0233
14642W        W30716  10.760   4.147   4.553 -0.1245  0.0053 -0.0405
14643W        W30717  10.576   9.763   3.861 -0.1808  0.0776  0.3653
14644W        W30718   1.622  17.029   5.433  0.0720  0.2967  0.0335
14645W        W30719  12.502   9.644   3.610 -0.0365  0.1101  0.1408
14646W        W30720  12.775  13.713  11.849 -0.0657 -0.3915  0.2225
14647W        W30721   6.075  10.982  15.676  0.0610 -0.4311 -0.0721
14648W        W30722   8.725   9.641   0.492  0.1101  0.2641  0.0617
14649W        W30723   2.695   3.512  15.572  0.1273 -0.2970 -0.0719
14650W        W30724  15.205   3.955   4.233  0.2950 -0.0993 -0.0440
14651W        W30725  17.547   7.645   4.858 -0.1665 -0.0390 -0.1158
14652W        W30726  18.257   3.735  15.337 -0.2179  0.0604 -0.0879
14653W        W30727   6.065  16.017  16.009 -0.1463  0.2293  0.1349
14654W        W30728  12.488  10.534  12.870  0.3388 -0.3647 -0.2261
14655W        W30729   5.691  13.170   2.726  0.0017 -0.3797 -0.1026
14656W        W30730   2.115   3.149  12.594  0.2249  0.2043  0.0562
14657W        W30731   8.467  14.470   4.113  0.1248 -0.0916  0.0276
14658W        W30732   9.993   1.705  12.228  0.2028 -0.0089  0.1964
14659W        W30733   6.793   0.934   0.696 -0.3784 -0.2751 -0.2797
14660W        W30734   1.483   4.393  13.642  0.1209 -0.1600  0.1427
14661W        W30735   6.192   4.053   5.190 -0.0714  0.1995 -0.0074
14662W        W30736   4.193   4.682   5.501 -0.1097 -0.0607  0.1087
14663W        W30737  10.118  15.390  10.269 -0.0722 -0.2630  0.0751
14664W        W30738   1.699   5.930   4.510  0.1004  0.0573 -0.0524
14665W        W30739  17.577   6.240   2.100 -0.1376  0.0395  0.0014
14666W        W30740  17.572  13.605   2.065 -0.5233  0.0802 -0.2453
14667W        W30741   6.749   5.368  12.339  0.1170  0.0517  0.1855
14668W        W30742   7.769  12.701   5.489  0.0532  0.2262  0.0687
14669W        W30743  12.452   8.646   1.901 -0.0131 -0.1838 -0.0719
14670W        W30744   5.773   9.955  11.550 -0.0062 -0.1639 -0.0419
14671W        W30745  13.561   2.567   0.907  0.2204  0.2143  0.1759
14672W        W30746  11.150  12.166  14.270 -0.0546 -0.2191 -0.1318
14673W        W30747  16.380   3.957   1.637  0.0143 -0.1386  0.1870
14674W        W30748   3.923  13.793   3.896 -0.0556  0.3027 -0.4584
14675W        W30749   5.474  15.953   2.886  0.2564  0.0310  0.2857
14676W        W30750   7.175   9.261   4.421 -0.0418  0.1085 -0.0009
14677W        W30751  11.677  16.338   0.409 -0.1637  0.3166  0.2348
14678W        W30752   0.461   4.508  15.470  0.0155  0.1083  0.2274
14679W        W30753  10.288   6.329  11.609 -0.7590  0.2185  0.0496
14680W        W30754  14.150  17.801  15.198  0.0304 -0.2149 -0.2237
14681W        W30755   0.197  15.769   3.981 -0.0946  0.1983 -0.1232
14682W        W30756  11.743   1.991   5.027 -0.0940 -0.0764 -0.2943
14683W        W30757   8.944   0.359  11.225 -0.0737  0.0179 -0.0377
14684W        W30758   8.022  12.516  11.441 -0.4165  0.1159 -0.3118
14685W        W30759   2.173   7.061   3.906  0.0298  0.0856  0.4937
14686W        W30760   3.403   7.893  12.402 -0.1754 -0.2523 -0.0468
14687W        W30761  12.675   0.240  14.832 -0.0926 -0.1958  0.1447
14688W        W30762   6.730  16.866   6.073  0.2239 -0.0209  0.4431
14689W        W30763  11.180   6.786  13.574 -0.1627 -0.0485 -0.2670
14690W        W30764  16.142   7.120  15.824 -0.0007 -0.1331 -0.0869
14691W        W30765   6.558   5.491   5.450 -0.3659  0.1021  0.4508
14692W        W30766   3.762   5.085   2.358 -0.1770  0.2307  0.0400
14693W        W30767  13.590  12.844  16.330  0.2761  0.2040  0.0360
14694W        W30768  12.132   8.598   0.119  0.2033  0.1132 -0.3210
14695W        W30769   9.164   7.625   4.037 -0.0809 -0.0195 -0.0870
14696W        W30770  14.545   2.803  13.277 -0.0346  0.0809  0.1508
14697W        W30771  14.303  12.678  14.827  0.2394  0.0031  0.1427
14698W        W30772   7.095   1.520  13.570  0.2389 -0.1016 -0.0275
14699W        W30773  13.119  13.452   1.282 -0.0727 -0.0615  0.1913
14700W        W30774   7.169   9.625  12.368 -0.1531  0.1082 -0.1460
14701W        W30775   1.202   5.727  11.309  0.1067  0.0904 -0.0006
14702W        W30776  11.895  16.397  15.089  0.0508 -0.0178 -0.0787
14703W        W30777  11.162  15.290  13.862  0.0013  0.0205 -0.3232
14704W        W30778   1.865  11.113   5.081  0.1064  0.2178 -0.0831
14705W        W30779   8.645   0.133  12.874 -0.1104  0.0428 -0.1199
14706W        W30780  16.969  15.485   4.356  0.3876 -0.1642 -0.0651
14707W        W30781   3.411  11.307   3.568  0.1729  0.0228 -0.0546
14708W        W30782  12.338  13.055  13.702 -0.0662  0.1449  0.1372
14709W        W30783   9.747   2.637  12.802  0.4258 -0.0776 -0.3654
14710W        W30784   4.688   5.075   0.951  0.2007  0.3616  0.0552
14711W        W30785  17.121  11.338   1.203  0.1428 -0.0425  0.3624
14712W        W30786  16.899  13.187  15.411  0.0290 -0.0413  0.1948
14713W        W30787   6.641  13.027   2.244  0.0861 -0.3147  0.2090
14714W        W30788  12.455   0.499   4.160  0.1789  0.4300 -0.0967
14715W        W30789   5.288   7.763   3.270 -0.1949 -0.0533  0.0825
14716W        W30790   3.668   2.925   1.410 -0.3419  0.1164  0.1658
14717W        W30791  13.006  17.510  12.551 -0.2756 -0.1385 -0.1341
14718W        W30792   1.452   9.953   4.223 -0.1989 -0.0596 -0.3162
14719W        W30793   8.505  15.421  12.389 -0.0660 -0.2378 -0.1698
14720W        W30794  10.003   7.322   2.258 -0.2411 -0.0805 -0.2276
14721W        W30795  16.884   8.896  14.732 -0.0642 -0.1122 -0.1425
14722W        W30796  11.471   3.106   5.887 -0.0415  0.3086 -0.0436
14723W        W30797   2.588   2.420  10.992 -0.3073 -0.0653 -0.0140
14724W        W30798   8.296  15.203   0.574 -0.1876  0.1320  0.0121
14725W        W30799  10.479  12.598  13.026 -0.0981 -0.3186 -0.0302
14726W        W30800   6.121   5.121  13.785 -0.0051 -0.3763 -0.2756
14727W        W30801   1.192  10.944   4.480  0.0753  0.3075  0.0275
14728W        W30802  12.715   8.459  15.268  0.1463  0.1119 -0.1112
14729W        W30803   1.016   6.983  13.951  0.0015 -0.2096  0.0102
14730W        W30804  14.007  11.489   4.629  0.1994 -0.1256 -0.0347
14731W        W30805   0.154   9.658   3.390 -0.4075 -0.2098  0.2163
14732W        W30806   0.501   8.711   2.407 -0.0437  0.0582 -0.1610
14733W        W30807  11.595   1.448   3.029  0.1294  0.2807 -0.1020
14734W        W30808  11.683  14.880  13.204  0.1174  0.1274 -0.0659
14735W        W30809  11.434  11.899   3.036  0.2821 -0.0614  0.1329
14736W        W30810   0.174   0.228  14.196 -0.0897 -0.1582 -0.4601
14737W        W30811   0.516   1.802  12.138 -0.0535 -0.3254 -0.1216
14738W        W30812  16.809   8.406  16.371  0.1596  0.0869  0.2855
14739W        W30813   2.879   0.173  15.645 -0.0967  0.1360  0.2792
14740W        W30814   8.974  11.866  13.210  0.1401 -0.2758 -0.1802
14741W        W30815  14.232   6.522   1.102  0.2635 -0.1876  0.0874
14742W        W30816   2.860   7.877   3.388  0.3333 -0.1910  0.0744
14743W        W30817  13.384  12.070   3.679 -0.4134 -0.1696  0.0041
14744W        W30818   5.713  13.865  13.907 -0.1074 -0.1011 -0.2450
14745W        W30819  15.366  17.795   1.253 -0.2374 -0.0849  0.2911
14746W        W30820   6.111   4.519  11.146 -0.1682  0.1077 -0.2057
14747W        W30821   6.863   1.820  15.601  0.4122 -0.2486  0.0205
14748W        W30822  16.143   0.414   2.479  0.5078  0.1148 -0.0828
14749W        W30823   0.593  16.345  13.289 -0.2941 -0.0913  0.3114
14750W        W30824   5.265   9.121  12.001  0.4413 -0.0932 -0.0625
14751W        W30825   3.761  13.362   3.682  0.1651  0.0018 -0.1766
14752W        W30826   3.598   1.689   3.853  0.0032 -0.2818 -0.1158
14753W        W30827   1.748  17.170   1.596 -0.2493 -0.1045 -0.0985
14754W        W30828   4.965  12.551  15.207  0.0509  0.0346  0.2937
14755W        W30829   9.313   3.822   0.454  0.2200 -0.0738  0.0175
14756W        W30830   0.938   3.770   5.565 -0.3227 -0.2223  0.2307
14757W        W30831   0.342   0.706   4.319 -0.0819 -0.2801  0.1853
14758W        W30832  15.380  16.446   2.207  0.2464 -0.1805  0.2409
14759W        W30833  10.113   9.826  16.291 -0.0921  0.1611  0.0726
14760W        W30834  14.133   6.171  12.023  0.0746  0.1150 -0.2324
14761W        W30835  17.864   4.978   2.117  0.1439 -0.2348 -0.3280
14762W        W30836   6.023  11.510  14.949 -0.2740  0.2875  0.0288
14763W        W30837  11.966   5.974   2.343 -0.0660 -0.2628  0.1035
14764W        W30838   2.313   8.948  16.175 -0.1510 -0.1025  0.0771
14765W        W30839  15.898   4.713   2.633 -0.0923  0.1084  0.0300
14766W        W30840  13.998   7.472  13.566  0.0574  0.3407 -0.0692
14767W        W30841   0.881   0.313  14.336  0.0943 -0.1616  0.0602
14768W        W30842   0.232  15.011  11.970  0.0823 -0.2863 -0.2125
14769W        W30843   3.113  10.901  13.578  0.0965  0.1093  0.4200
14770W        W30844   5.095  17.268   5.112  0.3396 -0.2956 -0.1664
14771W        W30845   1.474  17.093   1.141  0.1332  0.1931 -0.3051
14772W        W30846   6.660  16.181   5.093 -0.3286 -0.0042  0.1253
14773W        W30847   9.748   5.700   1.270  0.0493  0.0114 -0.0926
14774W        W30848  14.492  18.321  13.552  0.1540 -0.0253  0.2620
14775W        W30849   8.451  12.281   2.606 -0.2465 -0.0440  0.0404
14776W        W30850   1.661   5.917  14.458 -0.2806  0.2206  0.2201
14777W        W30851   2.346   1.474   3.963  0.0957 -0.1838 -0.0507
14778W        W30852   7.708  10.729   6.102  0.0378 -0.0367  0.1798
14779W        W30853   1.771  15.597  11.449 -0.2180  0.1658 -0.2980
14780W        W30854   9.482   9.645   2.997  0.3440 -0.0163 -0.1146
14781W        W30855  11.827  10.566  14.068 -0.1060  0.2107  0.0817
14782W        W30856   6.837  17.817   6.227 -0.1042  0.1622 -0.1869
14783W        W30857   4.111  10.031   5.795  0.0790 -0.0501  0.2427
14784W        W30858  12.448   2.634  12.349 -0.3254  0.2035 -0.1993
14785W        W30859  16.454  10.294   3.782 -0.0529  0.2365 -0.4146
14786W        W30860   4.181  14.047  13.317  0.0747  0.1424 -0.1720
14787W        W30861   2.076   8.018   3.055 -0.2564  0.1060  0.1343
14788W        W30862   5.051   5.266  12.129  0.4124 -0.2232 -0.3627
14789W        W30863  13.832   2.046   1.722 -0.0620  0.0449 -0.2264
14790W        W30864   6.635   3.308  12.216 -0.0119 -0.1622  0.1638
14791W        W30865   8.485   4.852   5.584 -0.2865 -0.1501  0.0679
14792W        W30866  10.040  15.554  13.882 -0.1384  0.1150 -0.0455
14793W        W30867   3.789   5.954  15.194 -0.0913  0.0820 -0.0340
14794W        W30868  14.883   7.213  15.923  0.2891  0.0590  0.1300
14795W        W30869   7.824   8.354   4.037  0.1298  0.1106  0.0906
14796W        W30870   5.337  11.621   4.463  0.2490  0.2312  0.0345
14797W        W30871   6.214   6.518  11.929 -0.1310 -0.1267 -0.5192
14798W        W30872   4.638  12.704   4.424  0.1288 -0.3306 -0.1735
14799W        W30873  16.070  10.432   2.252 -0.4580 -0.1655  0.2363
14800W        W30874   4.179  17.272  11.323  0.0166 -0.1636 -0.0370
14801W        W30875  14.959   6.269  12.350  0.3952  0.1447 -0.0560
14802W        W30876  14.795   1.615   1.673 -0.0035  0.0681 -0.0187
14803W        W30877   8.106  13.234   4.325  0.1414 -0.0355  0.0844
14804W        W30878  17.908  17.866   6.234  0.0536 -0.0893  0.0237
14805W        W30879   4.326  13.871   0.703  0.0787 -0.1978 -0.1153
14806W        W30880   7.702   7.510   4.204 -0.1473 -0.2047 -0.2822
14807W        W30881  10.894   3.075   4.208  0.1231  0.1730 -0.0349
14808W        W30882  10.953   1.533  15.368 -0.0211 -0.0209  0.2175
14809W        W30883  17.481  11.744   1.548  0.1501  0.2861 -0.3466
14810W        W30884   6.842  16.922  15.191  0.1273 -0.1499  0.1384
14811W        W30885   0.362  15.516   5.145 -0.1369  0.0364  0.0574
14812W        W30886  14.572  13.338  13.039 -0.0645 -0.2212 -0.0268
14813W        W30887   0.155  10.064   2.178  0.0801 -0.1964  0.2343
14814W        W30888  10.543   2.016  14.919 -0.1263  0.1157 -0.1699
14815W        W30889   4.532  13.132   4.735 -0.0687  0.0131 -0.1074
14816W        W30890   6.913   1.931  13.732  0.0646 -0.0281 -0.0185
14817W        W30891   5.866  11.995   1.348 -0.1506  0.1242 -0.0335
14818W        W30892   6.339  17.717   0.823 -0.0404 -0.0377 -0.1321
14819W        W30893  10.609  13.388   6.090  0.2047 -0.3921 -0.2489
14820W        W30894  15.334  16.433   0.000 -0.0623 -0.2399  0.1674
14821W        W30895  13.273   5.186   0.011 -0.2687  0.3964 -0.1335
14822W        W30896   8.013  16.644  12.584 -0.2820 -0.0336  0.0520
14823W        W30897  14.126  17.311  14.256  0.1330  0.2324 -0.3195
14824W        W30898  12.077  13.422  16.277  0.0580 -0.0544 -0.1058
14825W        W30899   2.047   7.265  11.616 -0.2302  0.2050 -0.2567
14826W        W30900  14.578   6.386  14.493  0.0028 -0.4695  0.0262
14827W        W30901   2.088   9.301  12.809  0.1756 -0.3871  0.3567
14828W        W30902   6.453   6.954  12.301  0.0898  0.3282 -0.0394
14829W        W30903  18.119   2.961  13.185 -0.2988 -0.3335 -0.0268
14830W        W30904  13.484  15.317  13.551  0.0908 -0.2026 -0.1970
14831W        W30905   0.386   9.115  15.325 -0.0552 -0.0588  0.4705
14832W        W30906  13.581  16.696   3.568 -0.3635  0.0301 -0.0149
14833W        W30907  11.540   1.286   0.225  0.2442 -0.2785  0.3084
14834W        W30908  17.165   1.598   5.132 -0.2537  0.0396  0.0742
14835W        W30909   6.618   0.647  13.166  0.1911  0.0710 -0.0468
14836W        W30910  14.979  11.152  14.138  0.2627 -0.1674 -0.1154
14837W        W30911  11.575   1.209  16.099 -0.3463 -0.3440  0.0553
14838W        W30912   7.869  16.794   5.434 -0.1038  0.0335 -0.4226
14839W        W30913  14.541  16.326   1.113  0.2270 -0.1309  0.1209
14840W        W30914   0.119   2.148   1.789  0.1910 -0.2844 -0.0865
14841W        W30915  18.266   2.101   0.841 -0.0195  0.0114  0.1621
14842W        W30916   7.538  15.398   2.190  0.0261  0.0463  0.4716
14843W        W30917  18.000  14.902  15.856  0.2015  0.5183 -0.1683
14844W        W30918   7.857   4.411   3.972  0.1808 -0.0882  0.2801
14845W        W30919  10.094  16.437  11.919 -0.4469  0.0594 -0.1098
14846W        W30920   2.272   3.025  14.447 -0.1926 -0.0613 -0.2111
14847W        W30921  12.682  13.424   5.564 -0.0683 -0.1046  0.0467
14848W        W30922   5.724   5.154   2.563  0.0838 -0.1051  0.0738
14849W        W30923  14.519   9.989   5.642 -0.0477 -0.1260 -0.2540
14850W        W30924   9.314   9.459   0.356  0.0112  0.2169  0.0563
14851W        W30925   9.596  14.535  11.654 -0.1306  0.1257 -0.0968
14852W        W30926   0.967  16.891  16.159 -0.4202  0.0313 -0.1304
14853W        W30927   9.823   4.180  12.077 -0.0819  0.5880 -0.2017
14854W        W30928   5.567   5.211  16.042  0.0022  0.0531  0.1567
14855W        W30929   4.798  14.086   0.962  0.0861  0.2036 -0.2000
14856W        W30930   1.539  14.791  14.563 -0.4624 -0.2180  0.0854
14857W        W30931  14.789  14.296  12.556  0.2469  0.2530  0.0965
14858W        W30932  13.470   1.744   3.500 -0.0608 -0.1438 -0.0413
14859W        W30933  15.493  16.132   3.539 -0.0262  0.0755  0.0722
14860W        W30934   2.528   2.649  13.443 -0.1711 -0.0799 -0.1763
14861W        W30935   9.258   2.177   1.862 -0.0215 -0.0966 -0.2865
14862W        W30936   8.545  10.486   1.091  0.0339  0.1018 -0.1513
14863W        W30937   1.093  11.400   0.541  0.0232 -0.2399 -0.0532
14864W        W30938   9.644   9.062  12.873  0.0290 -0.0121  0.0658
14865W        W30939   2.719  10.758   3.690  0.0780  0.0921  0.3458
14866W        W30940   4.557  18.070  12.749 -0.1249 -0.2482  0.1252
14867W        W30941  17.777   0.566   4.840  0.0243 -0.0769 -0.0525
14868W        W30942   3.459   6.302   4.843  0.0891 -0.0480 -0.2534
14869W        W30943   6.889   0.629   4.212  0.4526 -0.1133  0.0012
14870W        W30944   6.436  10.274  15.728 -0.2031  0.1240 -0.1845
14871W        W30945  16.396   3.894   2.182 -0.2375  0.0433  0.2452
14872W        W30946  11.029  10.945   3.058  0.1411  0.2971  0.3744
14873W        W30947   4.407  14.649  13.228 -0.1872 -0.0157  0.1164
14874W        W30948  16.814  16.631   1.688  0.0146  0.4454  0.2652
14875W        W30949  12.509  10.791  11.759 -0.1450 -0.0460  0.3932
14876W        W30950   9.281   0.509   1.865 -0.0967  0.2871 -0.0143
14877W        W30951  10.832   3.095   2.988 -0.1277  0.0200  0.1060
14878W        W30952   6.945   8.726  11.210 -0.2347 -0.1255 -0.2700
14879W        W30953   7.016  15.766  13.336 -0.1057  0.1277 -0.0918
14880W        W30954   2.398  14.919   2.675  0.1172  0.0719 -0.0941
14881W        W30955   9.903   0.354   0.073  0.1949 -0.1269  0.1685
14882W        W30956   8.459   2.364  12.624 -0.0826  0.1962  0.3554
14883W        W30957  14.301  14.853   5.611  0.2864  0.2275  0.1508
14884W        W30958   7.139   2.861  13.004  0.1126  0.0921  0.2058
14885W        W30959  13.113   2.575  15.580 -0.1435 -0.3434  0.1536
14886W        W30960  12.921  14.724   3.174 -0.0984 -0.2860  0.0576
14887W        W30961   6.492   6.247   0.307 -0.3061 -0.2659 -0.1485
14888W        W30962   1.683  13.180   0.484  0.3543  0.1689 -0.2114
14889W        W30963   2.043   6.229  14.638  0.0833 -0.2409  0.0893
14890W        W30964   8.442  13.868   0.297  0.3175 -0.0678  0.3436
14891W        W30965   8.629  13.773   1.629  0.3179  0.2485 -0.0308
14892W        W30966  13.020   1.372   2.639 -0.2324  0.3283 -0.2360
14893W        W30967  11.282   2.052   4.226 -0.1333  0.2551 -0.0930
14894W        W30968   7.267  10.586   1.041  0.1603  0.0527 -0.0490
14895W        W30969   1.603   5.714  11.779  0.2392  0.2102 -0.3709
14896W        W30970   8.620  15.320   3.841  0.1871  0.3193  0.0104
14897W        W30971   4.064  17.269   5.658 -0.0469  0.0332  0.1071
14898W        W30972  14.946   9.679  14.670  0.0372 -0.2635  0.2094
14899W        W30973   9.002   1.565  14.407  0.0396  0.1776 -0.0072
14900W        W30974   8.173   9.881   2.224  0.1882  0.0616  0.5337
14901W        W30975   7.125  14.440   2.413  0.1497 -0.1584 -0.2213
14902W        W30976   6.885  15.315  11.897 -0.2165  0.0024  0.2531
14903W        W30977  16.152   7.704  13.798  0.2032 -0.1420 -0.1821
14904W        W30978  11.037  12.656  11.592  0.1036  0.0332 -0.0612
14905W        W30979  13.928  15.195   4.175 -0.0708 -0.0016  0.1049
14906W        W30980   4.233   4.758   2.263  0.3105 -0.1419  0.0293
14907W        W30981   2.654   0.241   5.820  0.0412 -0.2839 -0.2652
14908W        W30982  12.974  15.201   4.499  0.2099  0.3793  0.0566
14909W        W30983   3.476   9.070   0.476 -0.1048 -0.0848 -0.2117
14910W        W30984   0.978  17.521   5.782 -0.3371  0.3168  0.0016
14911W        W30985  17.902  13.526   5.506  0.1670 -0.0804  0.2106
14912W        W30986   6.488   1.729   1.304  0.1017 -0.0948  0.0351
14913W        W30987  15.336   2.514   3.785  0.0047 -0.1631  0.2229
14914W        W30988  16.912  12.840   1.943 -0.3669 -0.3886  0.1536
14915W        W30989   2.103  14.178  14.389 -0.0667  0.3608 -0.0541
14916W        W30990  13.162   5.476   2.043 -0.2970 -0.1073 -0.3059
14917W        W30991  13.269  17.152  13.419 -0.0878  0.1156  0.1119
14918W        W30992   1.674  17.472   2.143  0.1721  0.0591  0.0214
14919W        W30993   6.502   9.439   2.388 -0.1734 -0.2119 -0.2484
14920W        W30994   1.908   4.204   5.065 -0.1942 -0.1745 -0.4680
14921W        W30995  13.344  12.254   1.828  0.1630  0.4034 -0.3370
14922W        W30996   6.132   8.892   0.049 -0.1092  0.1447 -0.1357
14923W        W30997  15.424  17.558   5.919 -0.1513 -0.1381 -0.1229
14924W        W30998   3.481   0.077   1.238 -0.0827 -0.2409 -0.1497
14925W        W30999  14.629  14.207   2.103  0.0647 -0.1263  0.0190
14926W        W31000  15.917  16.312  14.751 -0.3168  0.3187  0.0491
14927W        W31001  15.983   8.085   6.365  0.1420 -0.3152  0.2454
14928W        W31002   1.758  14.718   5.773 -0.1296  0.1786  0.2498
14929W        W31003   2.150   1.892  12.295 -0.0946  0.0356 -0.1590
14930W        W31004  17.956  15.042   3.323 -0.1462 -0.1347 -0.0731
14931W        W31005   3.548   6.979   0.752  0.0382  0.2940 -0.2051
14932W        W31006   4.029  10.116  11.004  0.0726  0.1280  0.3848
14933W        W31007   6.277   3.911   0.659 -0.2694 -0.1068 -0.0004
14934W        W31008  16.629   9.835   5.454 -0.0160 -0.0012 -0.3290
14935W        W31009   8.299  11.532   1.508  0.0669 -0.2091  0.3157
14936W        W31010   6.785   3.039   1.527 -0.0724  0.1202  0.1071
14937W        W31011   8.210  16.781   4.552  0.0600  0.0238 -0.1639
14938W        W31012   5.740  11.406   0.049  0.0129 -0.1603 -0.0737
14939W        W31013   0.954   4.192   3.109  0.1940  0.2648  0.0864
14940W        W31014   1.086  14.156   3.864 -0.1672  0.1561  0.1777
14941W        W31015  13.352  12.427   0.000 -0.0929 -0.1374  0.1538
14942W        W31016  12.784   2.456  12.746 -0.1801  0.2161 -0.0020
14943W        W31017   7.762   3.082   2.616 -0.4474  0.1331 -0.1272
14944W        W31018   4.156  14.945  13.692 -0.2594  0.1800 -0.1122
14945W        W31019  15.407   5.277  13.665  0.0374  0.3423 -0.1565
14946W        W31020  17.492   8.328   0.611  0.0150  0.0391 -0.0214
14947W        W31021   5.380  10.746  13.863  0.0258  0.2970  0.0680
14948W        W31022   2.262   1.614  14.193  0.0906  0.0060  0.2787
14949W        W31023   5.762   1.940   5.240 -0.2648  0.0447  0.1939
14950W        W31024  16.771  15.337  13.431  0.1959 -0.0336  0.1662
14951W        W31025  17.571   7.755   1.857 -0.0808 -0.2005 -0.2116
14952W        W31026  12.729  12.250  14.322 -0.2599 -0.1696 -0.1092
14953W        W31027  10.670  10.695  14.508 -0.1214  0.0709 -0.1732
14954W        W31028  16.368  11.276   4.312 -0.1975 -0.1999 -0.1303
14955W        W31029  16.606  14.401   2.758  0.1915 -0.2951  0.1125
14956W        W31030   7.996  14.450   1.152 -0.5458  0.3120  0.2221
14957W        W31031   7.991  16.315  14.525 -0.0314 -0.0523 -0.1246
14958W        W31032   2.108   3.586   5.662 -0.0724 -0.0291 -0.4820
14959W        W31033  15.052  13.467  12.784 -0.0119  0.2389 -0.1994
14960W        W31034   0.618   4.894   4.304 -0.1897 -0.2888  0.0453
14961W        W31035   8.581   2.909   3.510 -0.0019 -0.1215 -0.2414
14962W        W31036   8.286  11.343   0.705 -0.0322 -0.1835  0.1986
14963W        W31037   4.068   4.729  11.182 -0.1579  0.0682  0.0887
14964W        W31038  17.424   4.710   0.980  0.1415 -0.1978 -0.1637
14965W        W31039   6.777   2.661   0.654  0.0824  0.1738  0.4982
14966W        W31040  13.041   6.409  13.294 -0.0902 -0.0262  0.2747
14967W        W31041   4.534  11.610  15.898  0.3969 -0.0269  0.4994
14968W        W31042  14.759  15.977   0.733 -0.3161  0.2678  0.2785
14969W        W31043   9.772   2.975   2.179  0.1432  0.0076  0.1836
14970W        W31044  13.429  11.405   5.508  0.1730  0.2488 -0.0961
14971W        W31045   8.804  15.051  14.882 -0.1207 -0.2406  0.0637
14972W        W31046  16.323  12.184   0.403 -0.0690  0.0721 -0.0259
14973W        W31047   6.284   1.035  15.086  0.0544 -0.1155  0.2427
14974W        W31048   2.494   2.023  13.982 -0.2349  0.3763  0.0148
14975W        W31049  17.734   4.116   4.983  0.1307 -0.0838  0.0327
14976W        W31050   1.672   5.755  12.356 -0.0789 -0.0456  0.0782
14977W        W31051   6.336   0.843  12.779  0.1077 -0.0325 -0.0506
14978W        W31052   5.143   9.949   1.804  0.0399  0.2345  0.1852
14979W        W31053   7.541   3.147  13.533 -0.1497  0.0435  0.5427
14980W        W31054   2.981  17.626  13.457  0.2085 -0.0095  0.1338
14981W        W31055  16.465  11.109  15.871  0.0153 -0.0767 -0.0458
14982W        W31056   4.540   3.823   4.598  0.1889  0.1288 -0.1369
14983W        W31057  10.007   0.774  11.454  0.0634  0.1582 -0.1583
14984W        W31058  13.184  13.662  16.341  0.2785  0.2059  0.0171
14985W        W31059  14.912  16.667  13.367 -0.0751 -0.0169 -0.0182
14986W        W31060   4.973   4.674  13.005  0.1599 -0.3098 -0.1498
14987W        W31061  10.985  13.359  10.967 -0.2293 -0.3375 -0.3664
14988W        W31062   1.130   7.854   2.331  0.0575 -0.0170  0.0331
14989W        W31063   9.460  16.661   3.217  0.1402  0.0279 -0.2600
14990W        W31064   6.935  11.035  11.582 -0.1631  0.0926 -0.1569
14991W        W31065   1.883   6.701   4.124 -0.2361  0.3036  0.1021
14992W        W31066  17.969   4.395   1.731 -0.1890  0.0111 -0.0800
14993W        W31067   5.823  12.542   0.747  0.0860 -0.0389 -0.0798
14994W        W31068  11.037  16.193  13.464 -0.1636 -0.3720  0.1610
14995W        W31069   3.488   3.794   3.039 -0.0530 -0.1576  0.3420
14996W        W31070   7.817  12.990  12.702 -0.0106  0.1903  0.1641
14997W        W31071  16.229   9.527  15.618  0.4095  0.2082 -0.2036
14998W        W31072  18.246  16.959   5.170 -0.0604  0.1328  0.2474
14999W        W31073   1.290  14.833  12.643  0.2222 -0.0787  0.1142
15000W        W31074  17.119   6.569  15.474 -0.0222 -0.4327  0.1751
15001W        W31075   6.538   3.418   3.082  0.1512 -0.1450 -0.0465
15002W        W31076   2.728  17.710  11.213  0.3318 -0.0011  0.2135
15003W        W31077   2.475   0.013  10.545  0.0814  0.1216  0.3298
15004W        W31078  11.403   4.441   5.284  0.1773 -0.0369  0.1675
15005W        W31079  15.944  13.849   2.085 -0.4242 -0.5898  0.1590
15006W        W31080  16.692   4.439  16.148 -0.1725 -0.2433 -0.1771
15007W        W31081   8.031   8.217  14.463 -0.1130  0.0395  0.1161
15008W        W31082  15.204   8.518   2.636 -0.0465 -0.1471  0.1546
15009W        W31083   4.544  15.486   0.858 -0.0513  0.1153  0.0211
15010W        W31084   3.048  16.119   0.243  0.3569 -0.0359  0.4764
15011W        W31085  12.149   3.444   3.709 -0.3318 -0.1840 -0.1026
15012W        W31086   2.126   0.918  11.369 -0.0746 -0.2627 -0.1665
15013W        W31087   2.290   6.197   2.677 -0.2348  0.3202 -0.1601
15014W        W31088   3.959   0.167  13.538  0.1664  0.0998 -0.0116
15015W        W31089  15.738   3.022  15.861 -0.0121 -0.0358  0.2817
15016W        W31090   7.242  11.980  13.560 -0.2858 -0.1664  0.0829
15017W        W31091  18.219  12.329   3.570  0.1901 -0.0411  0.2851
15018W        W31092   2.928  14.545  14.362  0.0615  0.2105 -0.4381
15019W        W31093  14.352  10.686   2.166 -0.0211 -0.0596  0.0151
15020W        W31094   9.997  11.161  13.952 -0.4948  0.2230 -0.2210
15021W        W31095  11.453  14.101   6.393 -0.2647  0.0084  0.2458
15022W        W31096  10.011   8.897  15.836 -0.1677 -0.0086 -0.2902
15023W        W31097  15.947   3.665   1.330  0.0067 -0.2195 -0.1328
15024W        W31098  13.410   9.350  14.242  0.1783  0.0999 -0.1517
15025W        W31099   5.082   8.664  12.104  0.4219 -0.1839  0.2512
15026W        W31100   2.668   9.856   4.849  0.1720 -0.0238  0.1498
15027W        W31101  10.168  16.609  13.710 -0.0988 -0.0541  0.0783
15028W        W31102   7.248   2.328  13.056 -0.0428  0.0409  0.0562
15029W        W31103  17.600  14.773   5.117 -0.0072  0.0657  0.2776
15030W        W31104  11.894   2.218  13.095  0.1425 -0.1712 -0.2370
15031W        W31105  11.034   5.501  15.530 -0.0534  0.2620  0.3244
15032W        W31106  13.955   7.090  12.045  0.0367 -0.3564 -0.0808
15033W        W31107  16.990  14.537  14.928  0.1090  0.1917  0.0312
15034W        W31108  18.178  14.500   5.454  0.1343 -0.0292 -0.1305
15035W        W31109   4.140  17.341  14.252 -0.0927  0.0492  0.1389
15036W        W31110   1.500  10.007  15.535 -0.1561 -0.1195 -0.1010
15037W        W31111   4.888   1.913   2.149 -0.3660 -0.0363  0.3718
15038W        W31112  13.744   6.720   5.124 -0.1111  0.5069  0.1448
15039W        W31113   2.104   5.564  12.526  0.0427  0.3819  0.0572
15040W        W31114  14.106  16.191  14.474  0.5935 -0.0911  0.1426
15041W        W31115  17.342   5.845   1.266 -0.2394  0.0789  0.0006
15042W        W31116   5.344  15.307  16.306 -0.0736  0.0393 -0.1372
15043W        W31117   4.673   9.122   4.230 -0.2367  0.0807  0.0697
15044W        W31118   5.857   1.067  14.262 -0.1027  0.1445 -0.1251
15045W        W31119   6.808  10.555   2.858  0.1238  0.3868  0.2030
15046W        W31120   7.870   4.585   1.301  0.0962  0.1634 -0.0094
15047W        W31121  10.482  11.440  11.145 -0.2727  0.0474  0.1148
15048W        W31122   5.479   8.701  13.592 -0.1323 -0.1046 -0.0685
15049W        W31123   4.735   5.045   3.456 -0.1949 -0.2034 -0.2137
15050W        W31124   8.372  10.224   0.134  0.1071 -0.2740  0.0272
15051W        W31125  14.875  10.536  16.062  0.1904  0.0344 -0.1247
15052W        W31126  11.432  11.647   1.077  0.1412  0.0206 -0.1456
15053W        W31127   7.354   0.914   3.992  0.1288 -0.1924 -0.1906
15054W        W31128   6.141   3.510   5.032  0.3575 -0.1193  0.0917
15055W        W31129   6.547  12.287   5.591 -0.4718 -0.0244  0.2141
15056W        W31130  14.550  12.551   3.794 -0.0421 -0.1971  0.4152
15057W        W31131   4.001  11.512   2.005 -0.2607  0.1255 -0.1061
15058W        W31132  15.621   9.278  12.858 -0.3727 -0.3640  0.0522
15059W        W31133   9.992   3.816   2.977  0.0801 -0.3827  0.0541
15060W        W31134   8.349  13.120  15.078  0.1780 -0.3040  0.0767
15061W        W31135  11.772  11.916   3.372  0.0450  0.0113  0.3046
15062W        W31136  14.866  14.749  12.848  0.1229  0.0951  0.3687
15063W        W31137  14.178  14.951   1.556  0.3074  0.1308  0.0654
15064W        W31138  17.259   5.951  11.741  0.1719 -0.3889 -0.0683
15065W        W31139  11.588   3.505   0.992  0.0101  0.1667  0.2782
15066W        W31140   0.185  14.805   2.823 -0.1712  0.0262  0.0937
15067W        W31141   0.075   3.467   5.344 -0.0617 -0.0142 -0.2313
15068W        W31142   4.214   0.378  13.942  0.4851 -0.0957  0.0253
15069W        W31143   9.226  17.060  15.352 -0.0775  0.7266  0.4747
15070W        W31144   3.161   8.471  15.259  0.1058 -0.0783  0.1636
15071W        W31145  11.141   2.667   3.029 -0.1600 -0.1677 -0.1004
15072W        W31146  17.553   7.675   3.327 -0.3963  0.0109  0.2540
15073W        W31147  10.565   3.467  15.587 -0.0807  0.0682 -0.0933
15074W        W31148   2.432   1.393  11.441 -0.3790 -0.0737 -0.0044
15075W        W31149   9.682   5.818  12.826  0.1933 -0.1069  0.1145
15076W        W31150  18.083   0.108  13.550 -0.3717 -0.0579  0.1383
15077W        W31151   2.656  14.471  11.279  0.0427  0.0679  0.2725
15078W        W31152   5.357   5.541  14.335  0.3726  0.2893  0.0585
15079W        W31153  12.362   6.923   1.307  0.1038  0.0041  0.1945
15080W        W31154  10.688   5.726   2.483 -0.2551  0.1999 -0.1569
15081W        W31155   6.861  16.546   0.539  0.0203  0.1334  0.2829
15082W        W31156  10.743  11.612  13.196  0.0134 -0.2470 -0.0030
15083W        W31157  13.363  12.464   0.990 -0.0538  0.4478 -0.0581
15084W        W31158  14.264  15.569  15.029 -0.0820 -0.3424 -0.1238
15085W        W31159   7.457   1.980   2.072  0.1309  0.1652 -0.1748
15086W        W31160   4.268  14.010   3.584  0.0730 -0.0813  0.0332
15087W        W31161   6.268   2.391   2.079 -0.0617  0.1350 -0.3364
15088W        W31162   9.769   4.506   2.280 -0.0821  0.1127  0.1606
15089W        W31163  15.686  15.835  11.835  0.1201  0.1167  0.2816
15090W        W31164   2.553  16.425  11.605  0.0714 -0.1227  0.2029
15091W        W31165   8.047  16.724   3.585 -0.1631 -0.0602 -0.0452
15092W        W31166  10.153  12.336  13.323 -0.0428  0.1879  0.0896
15093W        W31167   5.761   5.628   4.820  0.2459 -0.0490 -0.1307
15094W        W31168   0.250   2.990  12.952 -0.0991 -0.1684  0.0386
15095W        W31169  11.553  14.182   0.733 -0.1046  0.1657  0.1871
15096W        W31170   2.401   5.411  15.836 -0.1537  0.0443  0.0574
15097W        W31171   2.930   4.546  10.856  0.1982 -0.3707  0.1581
15098W        W31172   4.558  17.262  12.266  0.0501 -0.1166 -0.1816
15099W        W31173   6.373   9.997  12.235  0.1459  0.0689 -0.0548
15100W        W31174   3.162   6.728  12.221 -0.3039  0.2075 -0.2644
15101W        W31175  15.992   4.262   2.849  0.0178 -0.3851  0.1083
15102W        W31176   0.128  15.376  12.564  0.4712 -0.2986 -0.0516
15103W        W31177   5.250   1.758   6.015  0.1239  0.0276  0.2609
15104W        W31178  15.888   1.504   3.075 -0.3828  0.1059 -0.0863
15105W        W31179  17.967   9.737  12.537 -0.1528  0.0016  0.2421
15106W        W31180   1.284  11.616  14.046  0.1345 -0.3529 -0.0484
15107W        W31181  15.756  10.297  15.510  0.0140 -0.0682  0.0447
15108W        W31182  16.659   0.717  16.316 -0.0233 -0.0018 -0.1320
15109W        W31183  13.372  10.406  14.116  0.0075 -0.1801 -0.0778
15110W        W31184   9.984  17.782  13.240 -0.0347 -0.3543  0.2129
15111W        W31185  10.222   9.062   3.086  0.2216 -0.0040 -0.3323
15112W        W31186   5.404   7.665   3.847 -0.2750 -0.0194 -0.0754
15113W        W31187  17.410   7.451  12.150 -0.3444 -0.0001  0.0402
15114W        W31188  12.269   2.248  11.732 -0.0475  0.0137  0.0258
15115W        W31189   8.217  11.617   4.614 -0.2523 -0.0518  0.1311
15116W        W31190  16.582   3.562  14.368  0.0036 -0.1357  0.1807
15117W        W31191   7.770  17.624  12.925  0.3685 -0.2372 -0.0796
15118W        W31192   7.220   8.527   1.499 -0.1170 -0.1583  0.2839
15119W        W31193  14.583   5.667   3.691 -0.0477 -0.2134 -0.1390
15120W        W31194   5.996  14.426  14.396  0.0950 -0.0577  0.0493
15121W        W31195   8.431   5.958   4.229  0.1201  0.0025  0.1332
15122W        W31196   9.534   4.358   0.344 -0.1430  0.1618 -0.1247
15123W        W31197   3.314   3.738  16.308  0.1528  0.2640 -0.0537
15124W        W31198  13.761   1.183  12.131  0.1633  0.2904  0.1114
15125W        W31199   8.437   2.884  14.679 -0.0639  0.1284  0.0424
15126W        W31200   9.694   0.994   5.374 -0.1386  0.0011  0.1535
15127W        W31201   3.310   6.486  11.655 -0.5422  0.3000  0.2005
15128W        W31202  16.282   7.729  15.953  0.0246 -0.1457  0.0951
15129W        W31203   5.709   7.884  13.994  0.2556  0.0238  0.1550
15130W        W31204  16.426   6.572   5.612  0.0593  0.0465  0.4524
15131W        W31205   1.086   1.521   1.917 -0.1124  0.4199 -0.0155
15132W        W31206  15.814   6.933   1.893  0.1996  0.2356 -0.1306
15133W        W31207  13.028   0.613  15.450 -0.0284  0.1627 -0.3068
15134W        W31208   6.793  14.363  11.803  0.0380 -0.0257  0.1518
15135W        W31209  12.843   5.531   5.165  0.0506  0.2143 -0.0585
15136W        W31210  12.211   4.594  14.374 -0.0499 -0.1042 -0.1109
15137W        W31211   5.466  14.864   1.865 -0.0920  0.3733  0.0986
15138W        W31212  15.161  11.733   1.066 -0.1272 -0.3595 -0.0920
15139W        W31213  12.178  12.311  12.591  0.1546  0.2471  0.0218
15140W        W31214   3.476   1.169   3.481 -0.1376 -0.1360  0.2543
15141W        W31215   3.737  14.965   4.622 -0.3580 -0.0320  0.1150
15142W        W31216   1.101   7.590   0.955 -0.2086  0.0189  0.1354
15143W        W31217  12.747  12.023  15.992  0.0520  0.0981  0.2214
15144W        W31218   8.730   1.757   1.349  0.1243 -0.1878 -0.0494
15145W        W31219  10.764   9.966   5.748  0.1564 -0.0824 -0.1815
15146W        W31220  13.839   6.673   1.754 -0.3293  0.1637 -0.3541
15147W        W31221   8.691   2.113  12.080  0.0282 -0.2986 -0.2078
15148W        W31222  13.119   9.586   2.211 -0.2233 -0.1011  0.1644
15149W        W31223   6.880  13.356   5.363  0.3488  0.0696  0.1971
15150W        W31224  11.217  10.219  11.980  0.3303 -0.5009 -0.0083
15151W        W31225  17.783  17.830   0.373 -0.0969  0.1680  0.1421
15152W        W31226   4.623  18.133   3.182  0.1396 -0.0553 -0.2648
15153W        W31227  14.984  12.333  15.322 -0.0503 -0.0992 -0.0063
15154W        W31228   2.708  15.161  12.582  0.0506 -0.1133 -0.0906
15155W        W31229  17.591  18.332   1.159 -0.0051  0.2600 -0.0055
15156W        W31230   2.602  17.139  12.709 -0.0201  0.0629 -0.0486
15157W        W31231  11.186   3.259   2.177 -0.2005 -0.1767 -0.4289
15158W        W31232   2.216  12.788   4.913 -0.2708 -0.2602  0.2472
15159W        W31233  12.329   2.865  11.645 -0.1517  0.1662  0.0276
15160W        W31234   2.577   0.049   1.561 -0.2455 -0.1261  0.2070
15161W        W31235   1.436   1.988  14.150  0.1810 -0.3191  0.0062
15162W        W31236  15.032   6.562   1.675 -0.1052 -0.2920 -0.0304
15163W        W31237   9.322  16.263   0.982 -0.2036 -0.2959  0.0714
15164W        W31238   6.829   7.022  13.545 -0.2754  0.0005  0.1973
15165W        W31239   0.173  11.527   3.672 -0.0341  0.1195  0.1549
15166W        W31240   4.385  15.559  12.331  0.2143  0.0519 -0.0399
15167W        W31241  15.918   6.380  15.197 -0.2100  0.2752 -0.2874
15168W        W31242   2.691  15.016   0.697 -0.3431 -0.2100  0.0240
15169W        W31243  10.041   3.787  14.535  0.3121 -0.2543  0.0576
15170W        W31244  17.311   0.278   3.237 -0.0716 -0.2932  0.2892
15171W        W31245  16.441   9.785  16.058  0.1581  0.1561 -0.1642
15172W        W31246  11.296   6.101   3.081 -0.0361  0.1627 -0.0851
15173W        W31247  17.224   5.679   4.690 -0.0265  0.1781 -0.2004
15174W        W31248  14.758   0.367   1.009  0.1572  0.2610  0.1283
15175W        W31249  14.096  12.727   5.368 -0.1374 -0.1569  0.0617
15176W        W31250   1.929   2.715   3.574 -0.4980  0.1573 -0.0088
15177W        W31251  11.644   8.012   3.040  0.1013  0.0034  0.2231
15178W        W31252   7.644  11.581  14.615 -0.0984 -0.0573  0.5029
15179W        W31253  11.324   9.783  14.140  0.3030 -0.2702  0.0410
15180W        W31254   7.796   8.348   4.686 -0.2899  0.0194 -0.0712
15181W        W31255   9.954  11.339   2.240 -0.2784  0.2190 -0.1631
15182W        W31256  12.582   9.661  11.474 -0.2468 -0.0171  0.1820
15183W        W31257   1.955  14.271  14.872  0.0438 -0.4080 -0.0551
15184W        W31258   5.611  15.784   0.473  0.0533  0.0451  0.1373
15185W        W31259   3.972   0.789  12.137  0.1026  0.1214  0.0651
15186W        W31260   3.006   3.348   0.350  0.0524 -0.1097  0.0994
15187W        W31261  11.253   3.249   5.399 -0.0979  0.0615  0.0775
15188W        W31262   4.742   5.674   6.303  0.0139 -0.0640 -0.1520
15189W        W31263  11.976  18.259   3.635 -0.0172  0.1156  0.2044
15190W        W31264  10.597   3.551  11.474  0.2071  0.0146  0.2965
15191W        W31265   6.360   2.276  13.828  0.0877  0.0727 -0.1513
15192W        W31266  11.152  13.312  14.102 -0.5261  0.0445 -0.1715
15193W        W31267  11.449   8.234  12.197 -0.1845 -0.1952 -0.4069
15194W        W31268  13.048  17.651   5.022 -0.0728  0.0286  0.0214
15195W        W31269  13.497  11.577  16.295 -0.0031 -0.1340 -0.6302
15196W        W31270   7.015  11.736   2.118  0.0686 -0.1015  0.0966
15197W        W31271   4.340   3.019  12.722  0.1360  0.0004 -0.2604
15198W        W31272   4.141   3.759   1.246  0.1460 -0.0683 -0.0144
15199W        W31273   6.886   8.909  13.178  0.3215 -0.1170 -0.2626
15200W        W31274   1.482   9.007  14.020  0.2375 -0.0384  0.0466
15201W        W31275  11.424  12.412  16.311  0.0356 -0.2809 -0.0132
15202W        W31276  13.788  17.317  14.681  0.2340  0.1176 -0.1316
15203W        W31277  15.597   1.766  11.718 -0.0557 -0.1356  0.0036
15204W        W31278  14.055  17.114  13.335 -0.2518 -0.1924  0.2590
15205W        W31279  10.081   6.893  13.664 -0.1139 -0.1730 -0.2240
15206W        W31280   6.807   2.456   3.717  0.1622 -0.0356 -0.2921
15207W        W31281   1.725   2.225   4.237 -0.0437 -0.0760 -0.4749
15208W        W31282  15.376   4.053  11.520 -0.2348 -0.0888 -0.1918
15209W        W31283   5.803  12.874   3.713 -0.2511 -0.1194 -0.1218
15210W        W31284  17.553  17.200   2.154  0.0179 -0.6942 -0.2509
15211W        W31285   5.105  10.407   3.516 -0.4994  0.3216  0.1367
15212W        W31286  10.773   3.762  15.099  0.0989 -0.0939 -0.0478
15213W        W31287   1.900  12.363   3.045 -0.1784  0.2910 -0.3222
15214W        W31288   6.344   7.096  13.262  0.2607  0.0180  0.0984
15215W        W31289   2.612   9.752  12.203  0.1337  0.2140  0.3207
15216W        W31290  17.587  18.190   5.947  0.2412  0.0263 -0.3252
15217W        W31291  15.965   8.610  14.678 -0.2016 -0.3006 -0.0588
15218W        W31292  11.746  14.441  11.054  0.0659  0.2329  0.1297
15219W        W31293   6.266   2.321   0.062  0.0859 -0.0987 -0.2384
15220W        W31294   6.390   4.396  10.736 -0.1898 -0.2197 -0.0048
15221W        W31295   4.286   3.943  11.786 -0.2549 -0.1316 -0.1592
15222W        W31296  10.701  11.397  15.502 -0.0750  0.2208 -0.0179
15223W        W31297  11.453   7.834  15.613  0.1845  0.0083  0.0043
15224W        W31298   8.913   8.822  13.236  0.4007 -0.1214 -0.0445
15225W        W31299   7.469  15.841  13.808  0.0174 -0.1420  0.3247
15226W        W31300  13.885  13.770  13.254 -0.1177  0.1054 -0.3484
15227W        W31301  11.337  17.517   4.406  0.1192 -0.2046 -0.1853
15228W        W31302   5.899  14.519   2.648  0.1289 -0.1519  0.0975
15229W        W31303  16.778   8.006  14.532  0.0946 -0.3856  0.2118
15230W        W31304   3.974   9.834   2.851  0.0385 -0.1540  0.2164
15231W        W31305   9.384  17.621   0.897  0.1697  0.1394 -0.1911
15232W        W31306   2.287  11.873   3.029 -0.2549 -0.2737  0.3644
15233W        W31307   6.976   5.654  14.946 -0.1142  0.0306  0.0047
15234W        W31308   7.634  14.760   2.439  0.1379 -0.0787 -0.2939
15235W        W31309  13.273  10.134  12.408 -0.1700  0.0630 -0.1699
15236W        W31310   5.786  16.905   1.771  0.0230 -0.3468  0.3593
15237W        W31311  16.889   7.671  11.695  0.2517  0.0656  0.1445
15238W        W31312   9.088   9.110   1.240  0.4100  0.0375  0.0956
15239W        W31313  14.627   3.037   2.408  0.0765 -0.0404 -0.0111
15240W        W31314   1.545  17.564  15.718  0.0235  0.1989  0.0268
15241W        W31315  10.100  16.893   4.210  0.2037 -0.2991  0.0654
15242W        W31316  13.764  13.733   1.869  0.1063 -0.0561 -0.0569
15243W        W31317  14.532   7.544  15.091  0.0720 -0.1682 -0.0293
15244W        W31318  13.135   7.421  11.922  0.1458 -0.0879 -0.0867
15245W        W31319   9.069  12.600  12.595 -0.0706 -0.1357 -0.1864
15246W        W31320   9.523  14.780   5.259  0.2172  0.0874 -0.1335
15247W        W31321   7.022   5.462   3.980 -0.0170  0.1082 -0.1247
15248W        W31322  10.792   0.859  13.429  0.1595  0.0244  0.1415
15249W        W31323  14.104  10.050  15.754  0.1306 -0.0657 -0.1727
15250W        W31324  18.232  15.810  16.342 -0.1439 -0.0440  0.1152
15251W        W31325   3.649   8.805  12.086  0.2684  0.0574  0.1941
15252W        W31326  10.224  16.024   4.140 -0.0743  0.1669 -0.1875
15253W        W31327   8.391  15.022  12.837 -0.4102 -0.3863 -0.1458
15254W        W31328   0.198  17.857   0.794 -0.1501  0.0483 -0.1851
15255W        W31329  11.818  10.561   1.259 -0.1265 -0.0217 -0.2172
15256W        W31330   8.605   4.675   3.494 -0.1344 -0.1959  0.2418
15257W        W31331   1.734  11.716   4.819  0.0053  0.0355  0.1383
15258W        W31332   5.951  15.964   1.597 -0.1114  0.1041 -0.1104
15259W        W31333   5.535   4.872   3.931 -0.1321  0.0348  0.1841
15260W        W31334   9.360   5.602  11.033 -0.0430 -0.2566  0.2687
15261W        W31335  15.079   8.773  14.095  0.2973  0.1781 -0.0891
15262W        W31336   2.582   2.641  16.230  0.1654  0.1416 -0.2459
15263W        W31337   9.205  14.862  11.864 -0.0372 -0.0367 -0.1781
15264W        W31338   2.481  17.437  11.629 -0.2979  0.0247  0.1085
15265W        W31339   7.330  14.194  16.274 -0.0502  0.5258  0.4461
15266W        W31340  10.322  12.791   5.511 -0.2161 -0.2982 -0.0718
15267W        W31341  10.794   1.494   0.677 -0.1899  0.3330 -0.0246
15268W        W31342   4.099  12.228  14.208 -0.1680  0.1039  0.0681
15269W        W31343   2.023   0.922  11.899  0.1276 -0.3752  0.0891
15270W        W31344  11.956   9.678  14.073 -0.0996  0.1222 -0.0108
15271W        W31345  11.776   9.131  10.825  0.0679  0.0467 -0.1303
15272W        W31346   4.995   8.420   0.757  0.1948  0.0036  0.2739
15273W        W31347  14.852  16.319  12.131 -0.1237  0.0432 -0.2374
15274W        W31348  10.975   3.945   2.657 -0.0415 -0.1178  0.0475
15275W        W31349  10.890   8.911  12.551 -0.0626 -0.0802  0.4289
15276W        W31350  11.783   2.644   3.634  0.3052  0.1886 -0.2690
15277W        W31351   4.299  10.859  16.345 -0.0036  0.0696 -0.0093
15278W        W31352  15.554  15.765   0.347  0.1921 -0.0540  0.1596
15279W        W31353   3.124  10.763   5.096  0.3626 -0.1879  0.0443
15280W        W31354  15.679  13.657  16.080  0.3364  0.1023  0.1102
15281W        W31355   4.459  13.605   4.432  0.3010  0.2401 -0.1011
15282W        W31356   5.304  18.050   0.610 -0.1747 -0.4254  0.2095
15283W        W31357   9.330  13.029  14.864  0.2742  0.0349 -0.3169
15284W        W31358   1.980  16.124   3.131 -0.1748  0.3453  0.0534
15285W        W31359   5.740  16.343   2.804  0.1906 -0.1640  0.2665
15286W        W31360  13.809  13.711   0.647 -0.2154 -0.0267 -0.0127
15287W        W31361  13.494  12.406   2.671 -0.0420  0.2120  0.1551
15288W        W31362   8.130  17.827   2.129 -0.1446 -0.1001  0.3298
15289W        W31363  14.097   4.091  15.533 -0.2790  0.1958 -0.1044
15290W        W31364  17.418  14.105  12.186  0.1795  0.0620  0.2844
15291W        W31365   9.270  14.134  13.716  0.0616 -0.0088  0.0380
15292W        W31366   0.939   2.290   5.318  0.0219  0.1789  0.4689
15293W        W31367   4.754  12.476  11.335 -0.2280  0.0065  0.0498
15294W        W31368  12.510   2.610   5.412 -0.0546 -0.0233 -0.0196
15295W        W31369   5.929  16.481  15.979 -0.0579  0.0291 -0.0610
15296W        W31370  10.059  13.387   3.659  0.0052  0.1395  0.0223
15297W        W31371  14.848   8.670  14.548 -0.1589  0.0702  0.1121
15298W        W31372  17.424  15.533   1.804  0.1849 -0.1366  0.0746
15299W        W31373   0.222   7.665  12.974  0.2897 -0.1487  0.4050
15300W        W31374  15.868  12.545   2.705  0.0840 -0.1135 -0.0124
15301W        W31375   5.708   8.888  13.176  0.3825 -0.1608 -0.0242
15302W        W31376  16.194   4.012   0.608  0.3758 -0.0888  0.3304
15303W        W31377  10.371   7.864  14.048 -0.1535 -0.0879 -0.2538
15304W        W31378   3.731  10.022   3.765  0.0193 -0.2995  0.1069
15305W        W31379   1.461  12.081   4.981 -0.0274 -0.0540 -0.1412
15306W        W31380  17.021   3.320  14.393  0.1550  0.0037 -0.0780
15307W        W31381   4.450   6.159  13.861  0.1097 -0.1307  0.1285
15308W        W31382   5.034   1.642  13.307  0.0324  0.0317 -0.0220
15309W        W31383   9.110   6.180  15.293  0.2611  0.0297 -0.0865
15310W        W31384   5.989  13.077  14.749  0.0716 -0.1071  0.0906
15311W        W31385   6.491  11.240   3.218 -0.0860 -0.2676  0.1788
15312W        W31386   0.609  15.874  13.581  0.5458  0.0795 -0.3112
15313W        W31387   4.925   0.342   1.313  0.1371 -0.1706  0.1437
15314W        W31388   0.166  11.999  15.129 -0.3741 -0.1021  0.0923
15315W        W31389  18.278   1.228   0.326  0.0056  0.3277  0.1968
15316W        W31390  16.593   1.744  13.105  0.1490 -0.0697 -0.0420
15317W        W31391   3.991   9.306   1.821 -0.3214  0.0714 -0.0181
15318W        W31392   4.550  13.579   0.389  0.1935 -0.0922  0.2389
15319W        W31393  11.314   5.042   4.151 -0.0993  0.0345  0.2671
15320W        W31394   7.398   0.731   4.838  0.2653  0.1953  0.2478
15321W        W31395   1.802  12.450  14.119  0.0569  0.1039  0.0666
15322W        W31396  14.618  11.788   4.311  0.4436  0.1729  0.2500
15323W        W31397  11.819  12.741  12.655  0.1720  0.2377  0.0452
15324W        W31398   1.592  15.765   5.143 -0.3093 -0.1344  0.0029
15325W        W31399  16.101   7.759   2.096  0.2458  0.1810 -0.2657
15326W        W31400  15.828   7.550  14.458  0.2916  0.1066  0.0207
15327W        W31401   3.762  14.009   2.557  0.2424 -0.0345 -0.3897
15328W        W31402   6.622  13.318   5.776  0.1568 -0.3372  0.0279
15329W        W31403   1.371   1.046  15.822 -0.0895 -0.0542  0.0162
15330W        W31404  12.771   6.740  12.623 -0.0729  0.0626 -0.2549
15331W        W31405   3.413  11.176  11.265 -0.0095 -0.1190 -0.1501
15332W        W31406   3.918  14.374  15.669 -0.0367  0.0548  0.2828
15333W        W31407  17.605   9.251  15.623  0.0771 -0.3287  0.0262
15334W        W31408   7.067   3.123   4.128 -0.1519 -0.2232 -0.1561
15335W        W31409   9.452   2.615  13.760 -0.0740  0.4442 -0.1292
15336W        W31410   6.160  15.655   1.174  0.1467 -0.0953  0.2733
15337W        W31411  16.145  17.904  12.622  0.0538 -0.2998  0.3145
15338W        W31412  10.215  18.235   3.618  0.0706  0.1931  0.1340
15339W        W31413  14.181   9.571  12.493 -0.2530 -0.3155  0.3190
15340W        W31414   1.598  12.767   3.218 -0.2214 -0.1520 -0.0855
15341W        W31415  12.103   4.976   5.815 -0.0100 -0.2146  0.1468
15342W        W31416  12.807   0.794   2.038  0.0019 -0.1228  0.2184
15343W        W31417  17.883  11.711  15.676 -0.3619  0.1226 -0.1465
15344W        W31418  13.240  14.577  16.003  0.3046 -0.1864 -0.1637
15345W        W31419   2.170  14.945   2.092 -0.1205 -0.2093 -0.0616
15346W        W31420  12.629  13.070   2.705 -0.0827  0.1133 -0.1094
15347W        W31421   7.846  14.529   0.644  0.0577 -0.1293  0.1257
15348W        W31422   5.157  16.068  16.104  0.1493 -0.1911  0.0741
15349W        W31423   5.984  12.148  11.646 -0.1734 -0.0308  0.0314
15350W        W31424   0.114  15.547  13.532  0.0903  0.1432  0.0194
15351W        W31425   8.773  16.136   0.439  0.0815 -0.1048  0.1467
15352W        W31426  11.292   5.707   5.815 -0.0302  0.1753  0.4322
15353W        W31427   9.708  12.872  11.956 -0.0898  0.0257 -0.1857
15354W        W31428   2.741   1.814  12.679  0.3918  0.0585 -0.1089
15355W        W31429  12.221   7.228  11.725  0.1194 -0.0386  0.1273
15356W        W31430   9.614  13.207   0.875 -0.0284 -0.2396 -0.2877
15357W        W31431  11.585   5.520  13.602  0.1075  0.0125  0.0631
15358W        W31432   4.290   9.172  14.691 -0.0612  0.3689  0.0451
15359W        W31433  17.880   2.755  14.471 -0.1140  0.1339  0.0070
15360W        W31434  16.276  15.390   5.004 -0.4650  0.1407  0.1866
15361W        W31435  13.406   3.246  15.275 -0.0039 -0.1368 -0.0684
15362W        W31436  17.002  15.147  14.077  0.1719  0.1777  0.0327
15363W        W31437  16.317   3.322  10.914  0.0981  0.0915 -0.1335
15364W        W31438   3.205   2.560   4.849  0.1416 -0.2048 -0.1571
15365W        W31439   9.294   9.499  16.012  0.0994 -0.4593 -0.1234
15366W        W31440   7.913  17.725   0.875  0.1229 -0.0396  0.3177
15367W        W31441  10.012  12.584  16.218  0.1025  0.1053  0.0643
15368W        W31442  10.014  16.345  13.301 -0.1902  0.0753 -0.0299
15369W        W31443  15.839  18.265  11.489  0.0463  0.1089 -0.1073
15370W        W31444   2.524   8.261   0.021 -0.0268  0.0281 -0.0902
15371W        W31445  17.882  16.167   1.432 -0.0208 -0.0535  0.1527
15372W        W31446  10.370   1.971   4.789  0.2850 -0.3256  0.0173
15373W        W31447   7.043   0.388  13.066  0.3280  0.1042 -0.1065
15374W        W31448  17.867   4.769  13.629  0.0114  0.0664  0.2222
15375W        W31449   0.350   8.792   3.646  0.1011 -0.0346  0.0639
15376W        W31450  13.387  11.040   6.332  0.0562 -0.1579 -0.1486
15377W        W31451   0.278   6.541   0.184  0.0056  0.1349  0.0689
15378W        W31452   9.894  16.302   1.859  0.0283 -0.2653  0.1634
15379W        W31453   5.831   2.549   3.105  0.2865  0.1405  0.2251
15380W        W31454  17.366   3.350  14.837 -0.3237  0.0494  0.2376
15381W        W31455   3.554   2.652   3.605 -0.0441  0.0900 -0.0273
15382W        W31456  10.997   9.381   1.403  0.0661  0.0875  0.5243
15383W        W31457   4.497   3.193   1.873  0.0063  0.1904 -0.1256
15384W        W31458  12.197  10.531  13.304 -0.1346  0.2556 -0.0064
15385W        W31459   7.290  10.596  15.625 -0.0481  0.2261  0.2532
15386W        W31460   6.529  10.722   2.281 -0.0578 -0.0769  0.0595
15387W        W31461   4.651  10.665  12.701  0.0988 -0.0696 -0.1719
15388W        W31462   1.592   4.031   2.100 -0.4479  0.2017  0.3716
15389W        W31463  13.991   6.697   3.495  0.0216 -0.0648  0.4518
15390W        W31464   6.279   9.290  14.317  0.2612 -0.1779 -0.1038
15391W        W31465  14.043  12.388  12.278 -0.0846  0.1197 -0.0433
15392W        W31466  15.494   4.609   5.430  0.2840 -0.1621  0.1921
15393W        W31467  17.995  17.913   3.280  0.0373 -0.2227 -0.1993
15394W        W31468   2.973   8.003  13.186  0.0505 -0.2892  0.1974
15395W        W31469  14.296  16.373  15.455  0.2417  0.1599 -0.0258
15396W        W31470  17.649  13.603  15.475 -0.2351  0.2556  0.1109
15397W        W31471   8.667   7.927   1.846  0.1168 -0.1285 -0.0248
15398W        W31472   7.799   8.509  11.979  0.0408  0.1305 -0.2040
15399W        W31473   0.116  16.260  13.066 -0.0579  0.2860  0.0802
15400W        W31474   1.580   7.912  11.773 -0.1126 -0.2464  0.2341
15401W        W31475   6.125  10.247  12.661  0.2860  0.0859 -0.1149
15402W        W31476  18.097  13.518   1.853 -0.1942  0.1474  0.0692
15403W        W31477   9.316   2.735  16.331 -0.0749 -0.0211 -0.0687
15404W        W31478   2.807  17.429   3.358  0.2178  0.2009  0.3543
15405W        W31479   0.275   9.328   3.739 -0.0532  0.0596  0.1076
15406W        W31480   5.915  17.364   0.674 -0.1232 -0.1723 -0.1465
15407W        W31481  13.772  12.945   4.456  0.0426 -0.2186  0.0002
15408W        W31482   4.898   0.320   2.372 -0.0282  0.2066 -0.2291
15409W        W31483  12.861   3.926   0.266 -0.0737  0.1021 -0.1155
15410W        W31484   7.100  17.323   1.247 -0.2939 -0.0249  0.0095
15411W        W31485   6.754  11.984  11.932 -0.2239 -0.0125  0.3671
15412W        W31486   1.108   2.803   3.180 -0.0716  0.2859 -0.4734
15413W        W31487  13.301  13.540   2.211 -0.0344  0.0506 -0.0330
15414W        W31488   5.519  16.364  16.295 -0.1944  0.3334  0.1965
15415W        W31489   6.304   9.726   3.168  0.1474 -0.2473  0.1461
15416W        W31490  10.421   9.805   3.316  0.1975 -0.1610  0.1937
15417W        W31491  13.222  12.927  10.518  0.0534 -0.0324 -0.1016
15418W        W31492   7.946  12.459   1.203  0.2722 -0.3836  0.0684
15419W        W31493  18.137  16.075  11.638  0.0841 -0.1039 -0.1154
15420W        W31494  16.890  18.039   0.038 -0.4982 -0.2684 -0.1369
15421W        W31495   6.997   1.517  14.074  0.1228 -0.1274 -0.0638
15422W        W31496   7.713   7.744  15.804 -0.3732 -0.0430  0.1993
15423W        W31497  16.098   2.786   1.406 -0.1460 -0.1397 -0.0406
15424W        W31498   4.000  17.213  13.726 -0.0163 -0.0747  0.0927
15425W        W31499   6.162  17.331   2.039  0.0681 -0.2216  0.0449
15426W        W31500  14.811   3.599   4.370 -0.0772 -0.2905 -0.2192
15427W        W31501   6.056  16.355  15.054 -0.2319  0.3055 -0.0237
15428W        W31502   3.570  10.950  14.247 -0.2433 -0.0934  0.1669
15429W        W31503   4.901  17.968  10.388 -0.0922  0.0780  0.0812
15430W        W31504   7.270  12.962   2.211 -0.1361 -0.0858 -0.1020
15431W        W31505  12.105   6.461  15.305 -0.1619  0.1159  0.3828
15432W        W31506  10.402   7.851   4.549 -0.1849 -0.0522 -0.1609
15433W        W31507   4.310  17.127  16.043  0.3345 -0.1721 -0.0902
15434W        W31508   1.032   8.370  14.408 -0.2391 -0.2090  0.1872
15435W        W31509   9.314  13.267   6.354 -0.1399  0.0004  0.2259
15436W        W31510  10.836   8.225  15.407 -0.1753 -0.0036 -0.3132
15437W        W31511   8.424   5.543   2.636  0.1364 -0.1001 -0.1240
15438W        W31512  15.102  10.677  11.482 -0.0214 -0.2041 -0.4463
15439W        W31513   9.222   1.756  13.978  0.0040  0.1548 -0.0167
15440W        W31514   0.963  12.799   3.688  0.1364 -0.3648  0.2245
15441W        W31515  15.039   3.045   6.130  0.0896 -0.1062 -0.1915
15442W        W31516   7.379   1.314   4.259  0.4860  0.1938 -0.2278
15443W        W31517   6.063  15.803  14.768 -0.2453  0.1190  0.0900
15444W        W31518  10.697  10.879  13.989 -0.0460  0.1216 -0.0111
15445W        W31519   0.915  14.587   0.185 -0.0246  0.0553  0.1910
15446W        W31520   9.725  11.339  13.536  0.2047 -0.3013  0.2074
15447W        W31521  11.010  16.320   2.310 -0.0881 -0.2382  0.3093
15448W        W31522  10.178   4.498  14.504 -0.1691 -0.2148  0.1344
15449W        W31523   6.634   6.994   1.492  0.1343 -0.0887  0.1150
15450W        W31524  15.455   9.946   4.148  0.2652 -0.0991  0.2188
15451W        W31525   1.011   3.758   3.468 -0.0324  0.1159  0.2709
15452W        W31526  15.630   4.765   4.293  0.3402 -0.0629 -0.2139
15453W        W31527  13.193  15.947   3.571  0.2020 -0.0404  0.0489
15454W        W31528  15.478   2.556   5.126  0.0284 -0.0075  0.1130
15455W        W31529   7.630  13.867  13.056 -0.3331 -0.1180  0.2449
15456W        W31530   4.974   8.061  15.931  0.0735  0.1307 -0.0484
15457W        W31531   1.129  13.250   1.568 -0.0349 -0.2344  0.0560
15458W        W31532   7.404   9.127   2.314  0.3614 -0.0010 -0.1251
15459W        W31533  18.124  15.181  16.394  0.3590  0.1601 -0.1078
15460W        W31534   4.036  13.377   4.135 -0.3047  0.0712 -0.3504
15461W        W31535  12.847   7.480  16.281  0.0728 -0.0922  0.1667
15462W        W31536   9.531   7.023   4.836  0.0904  0.1452 -0.2584
15463W        W31537  16.103  15.838  15.034 -0.0063  0.1808 -0.3924
15464W        W31538   8.635  15.221   1.530  0.2286  0.1626 -0.0248
15465W        W31539  14.967  14.074  15.126  0.1403  0.1730 -0.2279
15466W        W31540  17.747  12.162   1.275 -0.0040  0.4321  0.1263
15467W        W31541   0.529   4.345  15.969  0.0163 -0.0696  0.0851
15468W        W31542  15.771  18.104  15.813 -0.1072  0.2603 -0.0970
15469W        W31543  13.670   0.879  14.256  0.0026 -0.0722 -0.0743
15470W        W31544   6.670   6.666  13.202  0.1782  0.0276 -0.0707
15471W        W31545  15.103   7.197   0.312  0.0495  0.2089 -0.5216
15472W        W31546  12.455  18.195  14.545 -0.3434 -0.3954 -0.2162
15473W        W31547   4.156  16.872   5.940  0.1870 -0.2228 -0.2984
15474W        W31548  14.399   9.727   1.279 -0.0467 -0.1262  0.0507
15475W        W31549   4.093   0.685  15.189  0.2101  0.0042 -0.1198
15476W        W31550  11.403  14.728  16.152 -0.1671  0.0375 -0.1560
15477W        W31551   0.025   8.455   0.981 -0.1095 -0.1582  0.2146
15478W        W31552   7.901  12.540   3.534 -0.0754  0.1896 -0.1849
15479W        W31553   9.134  12.804   4.358  0.0132 -0.2646 -0.2631
15480W        W31554   1.310  17.467   0.210  0.0201 -0.0723  0.0783
15481W        W31555   9.613   1.686  11.886 -0.2082 -0.0819 -0.0109
15482W        W31556   8.843  13.581   0.408 -0.0575 -0.2143  0.2658
15483W        W31557   9.001   9.597  15.544 -0.1854 -0.2450  0.0275
15484W        W31558   8.586   9.741  14.271  0.1868 -0.1154  0.3228
15485W        W31559  16.083   6.076   0.773  0.0531 -0.1160 -0.0048
15486W        W31560   1.636   6.390   0.522  0.0864 -0.0319 -0.1017
15487W        W31561  16.017  10.017   3.658 -0.2813 -0.1398  0.0672
15488W        W31562   8.483   7.730  11.218  0.2580  0.0830  0.1380
15489W        W31563  10.136   8.838   4.911 -0.0171 -0.0362 -0.0457
15490W        W31564   6.315   6.110   1.355  0.0251 -0.6401  0.1155
15491W        W31565  12.444   0.159  12.070 -0.3969 -0.3368  0.2128
15492W        W31566  17.255   8.785   0.632 -0.0130  0.2120  0.1820
15493W        W31567  11.888   7.131   5.347  0.2530 -0.1282 -0.0245
15494W        W31568  13.637  12.624   3.277 -0.2344 -0.1565 -0.0911
15495W        W31569   7.380   9.807   2.795  0.2401  0.0489 -0.0989
15496W        W31570   3.606   8.042   3.752 -0.2445  0.0549  0.3111
15497W        W31571  17.029  10.289  14.885  0.1777  0.2958 -0.0290
15498W        W31572   4.421  14.623  14.718 -0.1376 -0.0618  0.1324
15499W        W31573  16.022   0.751  14.893  0.1774  0.0952  0.0136
15500W        W31574   8.164   0.064   4.060  0.0268  0.0338  0.0367
15501W        W31575  17.302   5.816   2.115 -0.0870  0.0319  0.0549
15502W        W31576   9.169   2.062  14.593 -0.2487 -0.0678  0.0215
15503W        W31577   4.098   8.689  15.365  0.0771  0.1000 -0.1070
15504W        W31578   3.817   9.653  14.789  0.0711  0.1377  0.2066
15505W        W31579   4.851   5.262   2.395 -0.1784  0.1075 -0.1673
15506W        W31580   2.342  17.631   1.286  0.3172  0.0287  0.0906
15507W        W31581  15.550  13.921  14.032 -0.0054 -0.0368  0.0032
15508W        W31582   6.292  12.365  12.688  0.1900  0.1777 -0.3550
15509W        W31583  12.569   9.446  15.351 -0.1118  0.0633 -0.1697
15510W        W31584  14.496   3.525  16.300  0.1462 -0.0042  0.0730
15511W        W31585  15.259   8.684   1.319  0.0224  0.2630 -0.0020
15512W        W31586   3.556  14.715   3.747  0.3047 -0.0507 -0.3079
15513W        W31587  17.133  17.027   0.315  0.0505 -0.0448 -0.0582
15514W        W31588  12.198   9.734   3.129 -0.3213 -0.5065  0.1740
15515W        W31589   5.225  11.940   0.560 -0.1309 -0.1135 -0.0542
15516W        W31590   7.606  17.478   2.287 -0.4516 -0.0631 -0.3562
15517W        W31591   9.632   2.289  14.618  0.2013 -0.0312 -0.2018
15518W        W31592   2.348  11.001  12.482 -0.4363  0.1180  0.0024
15519W        W31593   8.424   4.164   2.118  0.1827 -0.2880 -0.0145
15520W        W31594  12.456  17.138   5.080 -0.2984 -0.1845 -0.0115
15521W        W31595  12.065  16.569   2.613 -0.1154  0.0878 -0.2619
15522W        W31596  17.504   3.582  14.355  0.0166  0.0550  0.3476
15523W        W31597  12.178   3.500  13.527 -0.0106  0.2143  0.1798
15524W        W31598  12.895  10.915   2.912  0.1549 -0.2016  0.0326
15525W        W31599   2.621  18.266   3.683  0.3530  0.0055  0.0284
15526W        W31600   8.776   6.571   1.367 -0.2229  0.0541 -0.0636
15527W        W31601   3.460  10.983   4.158  0.0606  0.0387 -0.1278
15528W        W31602   2.562   3.946   3.926 -0.3543  0.0599 -0.0051
15529W        W31603  10.967  15.621  14.153  0.0430 -0.3521  0.1865
15530W        W31604   2.959   2.036   4.914  0.1343 -0.0838 -0.1554
15531W        W31605   1.484   2.269   0.915 -0.1251 -0.1803  0.0355
15532W        W31606  12.205   8.184   4.802  0.0311 -0.1309  0.3804
15533W        W31607   1.054  14.115   3.372 -0.1088 -0.0762  0.3637
15534W        W31608  18.310  17.097   5.736 -0.0525 -0.0246  0.1858
15535W        W31609   5.896   1.484   2.871 -0.0192  0.2145 -0.1839
15536W        W31610   6.235  16.100  13.255  0.1819  0.0182  0.1724
15537W        W31611  17.327   3.284  13.483  0.0346 -0.0150 -0.0200
15538W        W31612  10.694  18.130   3.477  0.1015 -0.1932  0.1149
15539W        W31613  14.846   9.147  15.584  0.1551 -0.1616 -0.1654
15540W        W31614   8.930  14.241  11.298 -0.0509 -0.0509  0.3279
15541W        W31615  17.905   1.878  11.262 -0.0899 -0.1762 -0.1630
15542W        W31616   2.179   3.900  14.947 -0.3335  0.0547 -0.0035
15543W        W31617  14.611   1.880  15.594  0.1244 -0.1057 -0.2267
15544W        W31618  12.301   4.947  14.683  0.0326  0.1344  0.2860
15545W        W31619  11.721   5.455   1.336  0.0449 -0.0684 -0.1973
15546W        W31620  16.255   4.793   4.967  0.2268 -0.4144 -0.2188
15547W        W31621   6.011  17.699   0.327 -0.0963  0.1636 -0.0348
15548W        W31622   2.070  11.344   3.112  0.1172  0.1790  0.1972
15549W        W31623  17.446  12.645   3.659 -0.2416 -0.1920  0.2434
15550W        W31624  15.963   3.610   0.875 -0.0948 -0.0864 -0.1235
15551W        W31625  10.240   5.596   5.003  0.1198 -0.4107  0.3173
15552W        W31626  17.255  11.592   4.311 -0.0787  0.3025 -0.0156
15553W        W31627   8.898  14.775  12.960  0.2705 -0.0988 -0.1651
15554W        W31628  12.845  13.650  12.355  0.2161  0.1350  0.1623
15555W        W31629   1.618  14.302  14.454  0.4779 -0.2127 -0.2687
15556W        W31630   4.988  15.902   1.802 -0.1267 -0.1022 -0.0189
15557W        W31631  10.078   1.704  13.073 -0.0456 -0.0486  0.1360
15558W        W31632   5.891   7.335  15.502  0.2269 -0.1055 -0.3440
15559W        W31633  13.970  13.018   2.095 -0.2322 -0.1207  0.0992
15560W        W31634   4.049   3.152   5.227 -0.2122  0.2050 -0.0993
15561W        W31635  15.052   0.188  12.044  0.4562  0.4169  0.1741
15562W        W31636   7.222  15.605   2.595  0.0645  0.0474 -0.1956
15563W        W31637  12.905  11.028  11.148  0.3463 -0.0822  0.0327
15564W        W31638  17.714   3.376  11.840  0.6620 -0.0727 -0.1691
15565W        W31639  16.360   6.499   6.434  0.2274  0.2122 -0.2104
15566W        W31640   2.496   5.154  12.561  0.2930  0.0952 -0.3972
15567W        W31641   7.064   1.935  11.548 -0.0683 -0.2307 -0.3420
15568W        W31642  13.352  13.673   4.503  0.3181 -0.1870  0.2901
15569W        W31643  17.234   4.786  15.026 -0.0442  0.0523  0.0118
15570W        W31644   3.210   4.119   2.172  0.1064 -0.1972  0.3118
15571W        W31645  13.204   1.467  15.181  0.1779 -0.5627 -0.3839
15572W        W31646  14.526   9.022   0.534  0.2438 -0.2027  0.2851
15573W        W31647  14.209  11.787  14.805 -0.2770  0.1207 -0.2366
15574W        W31648   0.237  12.511   5.047 -0.4768 -0.0464 -0.2176
15575W        W31649   9.261  16.806  14.667  0.2926  0.1800  0.0911
15576W        W31650  16.168  14.926   4.286  0.2560  0.0322  0.1117
15577W        W31651   0.149   1.779  15.439 -0.3227 -0.1950 -0.1650
15578W        W31652   2.989  12.659   0.356 -0.0423 -0.0055  0.2069
15579W        W31653   8.955   5.581   2.408 -0.2102  0.1275 -0.0085
15580W        W31654  16.748   4.410  14.511  0.2755 -0.3884  0.1936
15581W        W31655   6.685   1.423   0.362 -0.0654 -0.0567  0.0642
15582W        W31656   5.279  13.303  14.072  0.0123 -0.2472  0.0683
15583W        W31657  12.903   4.271  10.873  0.1056  0.0548  0.0524
15584W        W31658  10.880  11.421  12.709 -0.3060  0.2188  0.3006
15585W        W31659   2.008  15.921   6.006 -0.1469 -0.0285 -0.0643
15586W        W31660   8.520   1.140   0.256  0.1118 -0.3277  0.1745
15587W        W31661   7.782  14.328  12.728 -0.1090 -0.2310  0.0065
15588W        W31662   5.323  11.730  10.926 -0.0124 -0.0739  0.4793
15589W        W31663  14.495   8.632  12.070 -0.0959  0.1522 -0.0397
15590W        W31664  11.823   3.633   2.593 -0.2170  0.0653  0.0262
15591W        W31665   9.522   3.231  11.240  0.4078  0.1851 -0.0366
15592W        W31666  15.121   7.472   2.334 -0.1341  0.4670  0.1502
15593W        W31667   3.649  14.265  12.086  0.0545  0.0589  0.4199
15594W        W31668  14.125   3.551  15.126 -0.0940  0.0291 -0.0389
15595W        W31669  18.164  17.989   6.616  0.0138 -0.0573 -0.2103
15596W        W31670   7.900   2.313   5.076  0.0133 -0.1444 -0.0147
15597W        W31671  12.580   7.782   4.278 -0.3155  0.1777 -0.2864
15598W        W31672  17.292   7.177  15.113 -0.1175  0.0042 -0.0851
15599W        W31673   1.854  15.265   1.890 -0.0830  0.0734  0.0497
15600W        W31674  15.619   9.773  13.045  0.2047 -0.1271  0.0276
15601W        W31675   4.132  17.469   3.467 -0.0010 -0.2394  0.1092
15602W        W31676  13.100   8.887  15.817  0.2432  0.1977 -0.0926
15603W        W31677  15.094  12.689   1.432  0.1219  0.2048 -0.0241
15604W        W31678  11.648   2.309  11.869  0.1601 -0.0147 -0.1978
15605W        W31679   2.458  15.903  13.996 -0.3150 -0.3469  0.0344
15606W        W31680   9.185   3.608   1.381 -0.0949  0.0967  0.0561
15607W        W31681   0.638   6.793   1.818 -0.0355  0.1025 -0.1092
15608W        W31682   6.950  10.318   5.460 -0.2071  0.1432  0.0577
15609W        W31683   1.791   5.633   4.069 -0.2630 -0.1541 -0.1025
15610W        W31684   1.135   1.418   5.751 -0.0063  0.0320  0.3944
15611W        W31685   4.878  13.859   5.421 -0.1777 -0.1401  0.2188
15612W        W31686  11.297  14.099  11.884  0.0268  0.0891 -0.3009
15613W        W31687  10.087   8.254   4.331  0.0702 -0.2005 -0.2342
15614W        W31688  12.887   3.079  11.869  0.0252  0.0677 -0.0004
15615W        W31689   8.275   5.107  13.343 -0.0477 -0.0560  0.1130
15616W        W31690   8.279   6.904  10.860  0.3766 -0.0986  0.2280
15617W        W31691  15.782  15.557   3.453  0.2956  0.1434 -0.0893
15618W        W31692   0.364   8.214   5.325 -0.0022 -0.0866  0.1637
15619W        W31693  14.950  17.268  13.653 -0.0098 -0.3483  0.1644
15620W        W31694   9.998  12.493   4.757  0.2726  0.0773 -0.0841
15621W        W31695   5.850   8.158  13.550 -0.0364  0.2419 -0.4255
15622W        W31696   2.186   2.960  15.830  0.0800  0.1692 -0.1703
15623W        W31697   8.868  16.174   3.617 -0.2358  0.0401 -0.3737
15624W        W31698   9.983  13.323   1.263 -0.0847  0.3232 -0.2153
15625W        W31699  14.826  12.602  14.899  0.0803 -0.3116 -0.3109
15626W        W31700   5.874   3.081   1.765 -0.2162  0.3418 -0.0022
15627W        W31701   6.095   9.646  14.571 -0.0546  0.2251 -0.1069
15628W        W31702  13.609  12.444  14.253  0.1403  0.2918 -0.2090
15629W        W31703   4.875  14.058  14.435  0.3586 -0.1042  0.0692
15630W        W31704  16.488  17.447   3.016  0.1644 -0.0356 -0.1208
15631W        W31705   0.937  10.169  11.781 -0.1470  0.0268  0.1452
15632W        W31706   8.115  12.390   1.713 -0.1270  0.1153  0.1056
15633W        W31707  14.902  16.780   1.336 -0.3434  0.2070 -0.0828
15634W        W31708  16.406   0.858   5.139  0.0512 -0.0215  0.0982
15635W        W31709   5.970  11.406  12.990 -0.1147 -0.1421  0.0216
15636W        W31710   1.727  17.926  12.853 -0.0389 -0.0456 -0.2892
15637W        W31711   1.691  11.489   3.425  0.2343 -0.0089 -0.0601
15638W        W31712   1.849  14.746  16.347 -0.3099  0.0954 -0.1828
15639W        W31713   0.029  16.607   1.632  0.2947  0.1349  0.1842
15640W        W31714   0.779  17.843   2.207  0.3961 -0.0490 -0.2029
15641W        W31715   9.250  14.139  14.655  0.0721 -0.0713  0.0963
15642W        W31716  16.304  12.854   3.690 -0.3153  0.2699  0.0421
15643W        W31717  15.273  15.528   4.617  0.0397  0.1434  0.4625
15644W        W31718  17.035   9.179   0.269 -0.1783 -0.1150 -0.0347
15645W        W31719  17.480  16.959   3.294  0.2723  0.1168 -0.0930
15646W        W31720  18.086   5.668  13.919  0.0002 -0.0156  0.3490
15647W        W31721   8.882   7.761   3.111 -0.2011  0.0073  0.0303
15648W        W31722  13.085  12.301  12.592 -0.5367 -0.0369 -0.0927
15649W        W31723   3.923   2.070   2.487  0.2102  0.1515  0.1120
15650W        W31724   7.223  11.074  13.756  0.2673  0.2397 -0.1157
15651W        W31725   4.088   5.832  11.655  0.4468 -0.2921  0.1778
15652W        W31726   7.969   4.278   2.842  0.0387  0.0536 -0.0040
15653W        W31727  13.594  12.134   2.270 -0.2432  0.2147 -0.2622
15654W        W31728   2.376  14.155   5.603 -0.0711 -0.3660  0.0130
15655W        W31729   8.658   2.624  14.239 -0.0453 -0.2945  0.0582
15656W        W31730  12.673   7.144  12.033  0.0914 -0.3374  0.3166
15657W        W31731  11.845   5.399  15.306 -0.0633  0.0725 -0.1044
15658W        W31732  12.021  17.809   4.592  0.5292  0.2338  0.1637
15659W        W31733  14.063  18.193   1.457 -0.1478 -0.1376 -0.1900
15660W        W31734   7.642   3.164  10.710 -0.4047  0.0663  0.2116
15661W        W31735   6.295  17.540  11.308  0.2407  0.2641  0.1422
15662W        W31736   0.817   6.715   4.005  0.1199  0.3237  0.0217
15663W        W31737  11.700   3.582   3.252 -0.4840 -0.0871  0.0352
15664W        W31738   6.386   3.381   2.612 -0.0145  0.0685 -0.6988
15665W        W31739  16.369  10.849   2.211 -0.1836 -0.1734  0.0541
15666W        W31740   9.057   4.585  11.371 -0.0112 -0.1898  0.2436
15667W        W31741  10.962  12.668   5.587  0.1282  0.2178 -0.1524
15668W        W31742   7.463   8.763  15.275  0.1620  0.0175  0.1543
15669W        W31743   4.075   7.980  13.472  0.0237 -0.0585  0.0962
15670W        W31744  15.821  12.667   0.213  0.1475 -0.0822 -0.1543
15671W        W31745  15.475  12.689  14.327 -0.0226  0.0878  0.4117
15672W        W31746   5.891  11.818  15.450  0.1585 -0.0536  0.3767
15673W        W31747  16.490  17.820  14.602  0.2267 -0.2896  0.0395
15674W        W31748   9.308  12.741  13.457 -0.0020  0.2116  0.0821
15675W        W31749  16.719   8.208  14.060  0.0998 -0.1732  0.1644
15676W        W31750   6.466   6.419   3.176  0.0050 -0.0969  0.2176
15677W        W31751  17.523  16.867   2.701  0.2167 -0.4837  0.1187
15678W        W31752  15.842   6.372   5.081  0.1168 -0.0597  0.0994
15679W        W31753  11.219   3.435  13.575 -0.1772 -0.2057  0.0153
15680W        W31754  12.088  10.076  14.617 -0.0731 -0.1036 -0.6297
15681W        W31755   5.012  11.234  13.586 -0.2774 -0.0257  0.0148
15682W        W31756  18.039   3.307   0.246 -0.0008  0.0642 -0.1869
15683W        W31757   9.821  12.182  14.245  0.0266  0.2532 -0.0609
15684W        W31758  13.945   5.266   2.017  0.0849  0.0329 -0.1370
15685W        W31759  10.689  17.130  11.555 -0.0137 -0.1288 -0.0738
15686W        W31760  16.287   9.655   0.149 -0.1360 -0.1365  0.0429
15687W        W31761   9.664   5.802  13.389  0.1563  0.2758  0.2574
15688W        W31762   2.490  15.723   4.747  0.2405  0.0288  0.2045
15689W        W31763  13.891   9.585  15.897  0.2874  0.1427 -0.2135
15690W        W31764   8.568  12.189  13.070 -0.3780 -0.1821  0.1465
15691W        W31765  14.328  11.110  14.352 -0.1301  0.2157  0.4092
15692W        W31766  10.101   6.350   5.305  0.0099 -0.0191 -0.1233
15693W        W31767   6.139  15.380  12.334  0.1128  0.0809  0.3746
15694W        W31768   6.002  11.385   3.175 -0.0286 -0.1390 -0.0600
15695W        W31769  14.192   0.803   5.448  0.0453 -0.0717 -0.0232
15696W        W31770   1.345   9.167   1.460  0.0656 -0.0696 -0.1276
15697W        W31771   8.176   8.138   4.359 -0.0382  0.1842 -0.1948
15698W        W31772   8.823   4.738   1.842  0.2921  0.3228 -0.2559
15699W        W31773   0.675   0.238   0.256 -0.1141 -0.1358  0.0872
15700W        W31774   4.470   6.454  16.394  0.3237 -0.0006  0.1055
15701W        W31775   3.127  12.286   3.847 -0.0230  0.1887  0.0382
15702W        W31776  11.463  14.675   2.381 -0.2164  0.0893  0.1020
15703W        W31777  13.715   4.996  13.071 -0.2045 -0.1888 -0.1865
15704W        W31778   4.454  14.667  12.037 -0.0370  0.1885 -0.1823
15705W        W31779  17.868   8.421  12.336 -0.1673  0.1854  0.0497
15706W        W31780  15.092   2.356  11.623  0.2821  0.1022  0.1869
15707W        W31781   3.442  13.413   1.495  0.0172 -0.0278  0.2391
15708W        W31782   2.247  10.803  13.455  0.4435  0.1715  0.1107
15709W        W31783  16.701  17.256  13.899  0.1156 -0.0928 -0.0360
15710W        W31784   6.160   1.920  12.088  0.0648  0.0070 -0.0300
15711W        W31785   7.629   3.765   9.978 -0.0179  0.2395  0.1283
15712W        W31786   5.363  10.109  16.329  0.3383  0.1790  0.1122
15713W        W31787   5.617  16.555   5.166 -0.0788  0.0815 -0.1137
15714W        W31788  12.282  11.279   0.449  0.1139 -0.0171 -0.0102
15715W        W31789  15.184  13.878   0.854  0.4178 -0.0608 -0.0537
15716W        W31790  16.969  15.937  13.110 -0.2626  0.0713 -0.1042
15717W        W31791  13.966   4.418  15.146 -0.2512  0.1464 -0.1006
15718W        W31792   3.726   5.901  12.683 -0.5046 -0.1185 -0.1748
15719W        W31793   9.702  18.141  10.886 -0.0778  0.1931 -0.0615
15720W        W31794   3.648  11.596  13.632  0.2272 -0.2184 -0.0077
15721W        W31795  15.130  17.881  15.790 -0.2291  0.0696  0.1023
15722W        W31796  11.466   4.578  10.863  0.2139  0.3352 -0.0403
15723W        W31797   0.267   3.527   4.081  0.1400  0.0963  0.1534
15724W        W31798  16.502   9.352   1.469  0.1458 -0.0570  0.0222
15725W        W31799   2.034   1.264   2.193  0.0807  0.3780 -0.0925
15726W        W31800  11.525   8.471   3.220  0.0518  0.0140 -0.0109
15727W        W31801  11.739  12.881   2.841  0.1017 -0.1732  0.0981
15728W        W31802   3.324  16.860   4.593 -0.0864  0.2911 -0.1761
15729W        W31803   6.693   8.133   0.718  0.1814 -0.0849 -0.1045
15730W        W31804  14.455   6.109   0.941 -0.2706 -0.2531 -0.0919
15731W        W31805  16.121   8.872   3.938 -0.1124 -0.0706  0.0898
15732W        W31806   5.662   3.861   3.754  0.2010  0.2068 -0.2444
15733W        W31807   8.279  14.428  15.135 -0.0149 -0.0634 -0.0156
15734W        W31808   5.840   8.807  14.262 -0.2282  0.1950 -0.0817
15735W        W31809  17.855  17.067   2.979 -0.2756 -0.2629 -0.0154
15736W        W31810   3.639  11.249   2.267 -0.0118 -0.1917 -0.1219
15737W        W31811  13.036  17.414   2.708 -0.4327 -0.2419 -0.0151
15738W        W31812  13.056   7.576   3.475 -0.1703  0.3935  0.0987
15739W        W31813  10.312   6.032   0.660 -0.1043  0.3859  0.0015
15740W        W31814   6.705  10.085   3.754 -0.1337 -0.2724  0.0496
15741W        W31815  17.903   0.556   4.368  0.0905  0.3066 -0.1340
15742W        W31816   1.007   3.030  16.048 -0.1633 -0.0327  0.2925
15743W        W31817  13.283   5.993   2.172 -0.1427  0.3536  0.2090
15744W        W31818   7.281   9.724  11.360  0.0753  0.0459  0.0268
15745W        W31819  17.971   6.365   0.832  0.2019 -0.3153 -0.0643
15746W        W31820  11.169   1.650   0.282  0.2454  0.2461 -0.2047
15747W        W31821  10.809  12.443   1.591  0.0245  0.0895  0.4387
15748W        W31822  18.152   1.992   3.635 -0.1057 -0.1015 -0.0361
15749W        W31823  15.895  10.130   3.180  0.0468  0.1791 -0.0327
15750W        W31824   4.465  16.713  13.625  0.2866  0.0098  0.1519
15751W        W31825   7.343   9.714   2.216  0.0054  0.0396  0.0848
15752W        W31826   6.387   6.713   0.994 -0.2690 -0.0243 -0.2742
15753W        W31827  11.686  15.822  11.312 -0.1178  0.0060  0.1658
15754W        W31828  15.397  12.710  12.083 -0.1993 -0.1515  0.0553
15755W        W31829  17.584   7.108   2.395  0.1869  0.1395  0.1907
15756W        W31830  15.936   5.179  16.239 -0.0797  0.0105  0.1985
15757W        W31831   8.577  17.480  11.410 -0.1838  0.2612  0.0552
15758W        W31832   9.733   6.039   2.859 -0.3385 -0.2529 -0.3214
15759W        W31833  17.873  11.954   4.264  0.0812  0.2437  0.1973
15760W        W31834   2.623   8.332  15.489  0.1639 -0.1587 -0.1013
15761W        W31835  12.283   1.740   3.709 -0.1261  0.0301 -0.1902
15762W        W31836   3.702  15.898   0.800 -0.0512  0.1769  0.2173
15763W        W31837  17.541   0.645  11.518  0.1239 -0.3491  0.0131
15764W        W31838  12.175   3.145  14.661 -0.3351  0.0607 -0.0507
15765W        W31839   1.973   5.050   1.142 -0.2790  0.0197 -0.3164
15766W        W31840   7.280  17.322  14.154  0.1003 -0.1893 -0.5129
15767W        W31841  15.403  14.411   2.803 -0.0539  0.0904  0.2939
15768W        W31842   9.789  11.639  16.114 -0.1216 -0.3294  0.1886
15769W        W31843   9.871   5.776   0.745  0.2959 -0.0392 -0.1694
15770W        W31844   9.444  18.188  16.223  0.1297 -0.1630  0.6690
15771W        W31845  11.195   1.029   1.040  0.0243 -0.0272 -0.3092
15772W        W31846   1.476   7.334  14.492  0.2646  0.1197  0.1487
15773W        W31847   9.428   3.813  11.360  0.1295 -0.0088  0.0157
15774W        W31848  11.742  16.122  13.650  0.0903 -0.2435 -0.2926
15775W        W31849   8.789  14.455  12.610  0.0621  0.0264 -0.3449
15776W        W31850   4.276  12.061   4.698 -0.2448  0.1558  0.0699
15777W        W31851   1.138  17.367  15.397  0.1266  0.0766 -0.0939
15778W        W31852   3.695  15.393   1.783  0.1044 -0.2323  0.1250
15779W        W31853   7.214  15.616  12.079 -0.4376  0.2120  0.4152
15780W        W31854   6.318  12.492   3.895 -0.0589  0.1921 -0.0988
15781W        W31855  11.948   9.356  12.661  0.2911  0.1748  0.1917
15782W        W31856  14.655  13.217  15.614 -0.0592 -0.2152 -0.0135
15783W        W31857   9.887  14.837  12.468  0.2487 -0.2391 -0.1956
15784W        W31858  16.107   6.116   0.293  0.3103 -0.1180 -0.1634
15785W        W31859   9.594  10.167   2.884  0.1121 -0.1475  0.3335
15786W        W31860  13.596   8.071   0.288  0.5377  0.0022 -0.3518
15787W        W31861   3.958   6.720  12.857 -0.2316  0.0121 -0.1409
15788W        W31862   6.083   7.080  11.292 -0.3088 -0.2678  0.3182
15789W        W31863  14.877   2.025   4.583  0.1656  0.0769  0.1484
15790W        W31864   7.648   4.507  16.190  0.3116 -0.1653  0.0023
15791W        W31865  13.985  17.549   4.326 -0.0084  0.1722 -0.2173
15792W        W31866  12.083   2.651   0.899 -0.1012 -0.2906  0.0034
15793W        W31867  18.093   0.212   4.694 -0.0005 -0.1095  0.0833
15794W        W31868  17.874  13.938   1.956 -0.4052 -0.0802 -0.3025
15795W        W31869   9.045   8.521   4.122  0.0706 -0.1024  0.0756
15796W        W31870  12.176  15.229  15.912 -0.0149  0.0630 -0.1028
15797W        W31871   6.312   6.908   5.168 -0.2389 -0.1340 -0.3865
15798W        W31872  10.797   7.475  10.820 -0.2930  0.0689  0.2479
15799W        W31873  14.185   5.570  14.822  0.3991 -0.0919 -0.0191
15800W        W31874   6.949  17.399  11.728 -0.0195 -0.0229  0.2835
15801W        W31875  16.546  14.688   2.195 -0.0313 -0.1816  0.0302
15802W        W31876   8.827   2.673   4.785 -0.1187 -0.2092  0.0775
15803W        W31877   8.127  10.063  12.580  0.0808  0.1712 -0.2319
15804W        W31878   9.806  13.802  12.750 -0.1651  0.3357  0.0577
15805W        W31879  13.916   9.074  16.198 -0.0690  0.1514 -0.2583
15806W        W31880  13.155   0.509   4.628 -0.1379  0.3659  0.1135
15807W        W31881  12.185   9.036  10.555  0.2082  0.4284 -0.1032
15808W        W31882   6.404   0.722   1.010  0.0656 -0.2603 -0.2684
15809W        W31883  12.321   1.994  13.783 -0.0831 -0.1878  0.1561
15810W        W31884  10.475   0.822   2.965  0.1995  0.3367  0.0263
15811W        W31885   1.040  14.759   3.967 -0.4626 -0.0939  0.2120
15812W        W31886  17.143   0.636   0.402  0.1711 -0.1822 -0.0012
15813W        W31887  14.965   9.121   3.110 -0.3272  0.2229  0.5291
15814W        W31888   1.150  12.342   5.298 -0.0407  0.1169  0.3582
15815W        W31889  16.602   2.452  14.242 -0.1020 -0.4112 -0.1411
15816W        W31890   0.697  13.657   0.631  0.2501  0.0511  0.1383
15817W        W31891   0.713   2.581  11.933  0.0094 -0.0742 -0.1267
15818W        W31892  13.646  11.574   4.971 -0.0451 -0.0628  0.3339
15819W        W31893   6.635   9.543  12.452  0.1367  0.0527  0.0979
15820W        W31894   2.151   8.958   4.096  0.4472 -0.2825 -0.1511
15821W        W31895   0.576   6.506   5.561  0.3356  0.2740 -0.3856
15822W        W31896  10.250  10.834   1.578 -0.0031 -0.2224  0.1143
15823W        W31897  14.980  11.395   5.355 -0.1268  0.0497 -0.1439
15824W        W31898   3.637  15.455   0.992  0.0199  0.1690  0.0143
15825W        W31899  15.640  14.972   4.116 -0.2866 -0.1906  0.4065
15826W        W31900   9.646  12.513  14.577  0.0895  0.0892 -0.1003
15827W        W31901  16.602  17.665   0.154 -0.1492  0.1756 -0.0458
15828W        W31902   3.953   8.199  14.949  0.2542 -0.1231  0.0371
15829W        W31903  13.990   8.340   0.233 -0.0155 -0.3160 -0.0191
15830W        W31904   1.391   1.332   4.032 -0.0935  0.1836  0.0053
15831W        W31905   0.628  17.860   3.334 -0.0856  0.0037  0.0430
15832W        W31906   9.072  16.726  10.950 -0.0299  0.1402  0.3015
15833W        W31907   6.488   4.662   0.356 -0.2043 -0.0551 -0.2174
15834W        W31908   8.100   8.985  11.316  0.0727  0.1260 -0.1139
15835W        W31909  10.037  13.575   5.401  0.2172 -0.0272 -0.0534
15836W        W31910   5.620  15.129   0.616 -0.2187 -0.2036  0.2188
15837W        W31911  15.473   8.100  12.705  0.2478  0.2263  0.0194
15838W        W31912   9.149  11.244   3.635  0.3618 -0.1289  0.3104
15839W        W31913  17.030  12.681   1.487 -0.0693 -0.2979 -0.1280
15840W        W31914   4.497   9.797  12.201 -0.1390 -0.0332 -0.2178
15841W        W31915  15.576   9.526   0.779 -0.1008  0.1885  0.0439
15842W        W31916   0.328  17.923   2.468  0.0831 -0.0702 -0.0739
15843W        W31917  15.952  17.888   5.207 -0.2079  0.0129  0.2791
15844W        W31918  12.312   9.648  12.881 -0.0425 -0.3967  0.0715
15845W        W31919  15.554  17.322  16.223 -0.3196  0.0622  0.0705
15846W        W31920   5.502  11.925   1.802 -0.1804 -0.0111 -0.3899
15847W        W31921   2.575   7.103   0.631 -0.0501 -0.2039 -0.3116
15848W        W31922   5.709  18.327  11.311 -0.0132  0.0560 -0.1755
15849W        W31923  12.705   1.112   0.634  0.1663 -0.0097  0.3094
15850W        W31924  12.226  14.125   2.701 -0.0264  0.1646  0.1135
15851W        W31925  16.787   7.220  15.222 -0.0858 -0.2162 -0.1293
15852W        W31926  14.798  15.636  14.897  0.0205 -0.0538  0.2220
15853W        W31927   5.492   2.806  13.409 -0.1765  0.1145 -0.1059
15854W        W31928   0.249  11.983   0.548  0.0403  0.0600  0.0600
15855W        W31929   5.943   2.477   3.593 -0.0102 -0.1408  0.0694
15856W        W31930   6.828  15.849  12.765 -0.0331 -0.3185 -0.1775
15857W        W31931  11.426   5.977  16.033 -0.1229 -0.0901 -0.1589
15858W        W31932  11.846   3.227   4.089  0.2465 -0.1529 -0.1177
15859W        W31933  13.351   6.484   4.310 -0.1236 -0.2179  0.1946
15860W        W31934  16.595  16.103   1.832 -0.0755  0.1212  0.1341
15861W        W31935  15.374   8.738  16.349  0.1084 -0.2144 -0.2385
15862W        W31936  16.775  13.439  12.299 -0.5274  0.0019 -0.2247
15863W        W31937   8.270  12.306   6.792  0.2791  0.0807  0.0952
15864W        W31938  17.717  10.713  14.318 -0.1037 -0.0153 -0.2822
15865W        W31939   1.904   4.345  13.424 -0.0270 -0.2765 -0.2464
15866W        W31940  12.179  16.436   0.582 -0.0693  0.2882 -0.1232
15867W        W31941  12.092  17.209  15.759  0.1251 -0.4233  0.0012
15868W        W31942  14.821   3.984   1.486  0.1707  0.1197 -0.1359
15869W        W31943   5.509  14.405   3.237 -0.1905 -0.0812  0.1449
15870W        W31944  13.966   1.575  16.121 -0.3049 -0.1972 -0.0466
15871W        W31945   6.209  16.520   3.709 -0.0005 -0.4000  0.1031
15872W        W31946   3.360  16.694   4.093 -0.0920  0.0061  0.3543
15873W        W31947  17.130   7.288  12.506 -0.0611 -0.1634 -0.5089
15874W        W31948  15.846   4.259   5.185 -0.1491  0.0800 -0.0051
15875W        W31949   4.345  12.056  14.981  0.0541 -0.1386 -0.0913
15876W        W31950   7.012   6.498  15.499  0.3172 -0.2923  0.0623
15877W        W31951  12.687   5.071   3.685  0.2334  0.1013 -0.1021
15878W        W31952  17.943  16.952  13.307 -0.0666 -0.0304 -0.3507
15879W        W31953  10.851  13.787  14.175  0.1387  0.1108 -0.1358
15880W        W31954   4.249   5.491  16.162  0.1774  0.0894  0.0193
15881W        W31955   5.765  18.149   0.271  0.3036  0.0930 -0.0028
15882W        W31956  16.191  13.842  13.145 -0.0847  0.2253 -0.0431
15883W        W31957   7.783   4.578   3.190  0.1880  0.2408 -0.1730
15884W        W31958  14.017  15.265  15.903  0.0127 -0.3207 -0.1217
15885W        W31959  14.907  16.024   1.725  0.0136  0.2396  0.0480
15886W        W31960   3.495   2.406  15.393  0.1532  0.1018  0.6580
15887W        W31961  12.657  12.395   5.277 -0.1832 -0.0137  0.1043
15888W        W31962   8.700   1.429  13.381  0.0504  0.1094  0.2849
15889W        W31963  15.420  10.341   3.096 -0.1257 -0.1174 -0.2895
15890W        W31964  13.889  16.644  14.381 -0.0636 -0.0644 -0.2501
15891W        W31965   9.455  15.189   1.483  0.2150  0.0749  0.0958
15892W        W31966   8.396  15.929  13.223  0.0825 -0.1236  0.3502
15893W        W31967  12.958   7.435   1.232  0.2510  0.0252  0.1124
15894W        W31968   0.897   6.443  11.801  0.1893  0.0200  0.1231
15895W        W31969  10.667   0.038   5.141  0.0983 -0.0557  0.2754
15896W        W31970  17.139   3.660  14.043 -0.0050  0.0305 -0.3827
15897W        W31971  12.217   1.194   3.911 -0.1116  0.0671  0.3772
15898W        W31972  15.634   2.019  14.429  0.3000 -0.2418  0.3676
15899W        W31973  17.778  13.535  13.008 -0.0702  0.0724  0.2560
15900W        W31974   8.018   9.190  13.210  0.0015 -0.0945 -0.0844
15901W        W31975   3.089   0.494  15.952  0.1210 -0.1246  0.2253
15902W        W31976   9.317   2.098  13.187  0.2499 -0.0477 -0.1460
15903W        W31977  11.848   7.548  14.663 -0.2523 -0.0027  0.2146
15904W        W31978   2.150   2.415   4.488  0.1098 -0.0982 -0.2227
15905W        W31979   9.419   3.085   3.918  0.0108  0.1901 -0.3023
15906W        W31980  13.262  11.933   2.813  0.2057 -0.1570  0.1344
15907W        W31981   8.096   7.497   3.664  0.1896  0.2038 -0.1256
15908W        W31982   4.063   3.235   1.235 -0.1632 -0.0932 -0.0751
15909W        W31983   1.584   5.529   0.046  0.4262  0.0293 -0.2556
15910W        W31984   7.116  16.459   3.472  0.1362 -0.1096 -0.0363
15911W        W31985   2.194   8.813  15.085 -0.2695 -0.0670 -0.1638
15912W        W31986   9.184   7.568   5.388  0.4374 -0.2394  0.1509
15913W        W31987   0.638   7.639   4.199  0.0861 -0.2636 -0.0716
15914W        W31988   2.569   9.933  13.499 -0.0948  0.1669 -0.0547
15915W        W31989   5.202  14.531   2.737 -0.1738 -0.2550 -0.2916
15916W        W31990   4.159   2.848   1.638  0.3090  0.1413 -0.0499
15917W        W31991   7.309   8.350  11.992 -0.1856 -0.0645  0.0452
15918W        W31992   9.428  15.499   0.546 -0.4757  0.0571 -0.1331
15919W        W31993  16.834  11.857  14.002  0.1792  0.0211  0.0718
15920W        W31994  13.972  18.193  13.621 -0.3321  0.2266  0.3417
15921W        W31995   0.938  13.460   2.507 -0.0335  0.1955 -0.1524
15922W        W31996  17.897   8.275   0.991 -0.0759  0.1422  0.2762
15923W        W31997   5.661  13.111  12.835  0.1396  0.2919 -0.0143
15924W        W31998   5.777  17.097   3.254 -0.2730  0.2053 -0.0313
15925W        W31999   8.905   2.480   4.315  0.1953  0.2914  0.0547
15926W        W32000  17.404  12.739  11.734  0.0285  0.2002 -0.1091
15927W        W32001  15.895  12.464  14.644  0.0109  0.3451 -0.0579
15928W        W32002   7.008   8.857   5.173 -0.0453 -0.1830 -0.0831
15929W        W32003  10.183  17.977  14.781 -0.2288 -0.1202  0.0992
15930W        W32004   1.848  15.945   0.697  0.0926 -0.0694  0.1061
15931W        W32005  15.004   1.175  12.202  0.0240  0.2193 -0.3245
15932W        W32006  14.029   4.170   4.848 -0.0006 -0.1126  0.2043
15933W        W32007   3.766   4.031  15.625 -0.0121 -0.0667 -0.3444
15934W        W32008   1.032   0.650  13.799 -0.0743 -0.0145 -0.1488
15935W        W32009  12.418   6.638   0.074 -0.2409 -0.0709  0.3462
15936W        W32010  14.995  13.644   2.382 -0.0009 -0.1374 -0.0845
15937W        W32011   8.138   1.309   3.359  0.0296 -0.0662  0.3638
15938W        W32012  13.382   0.355   3.772  0.4970  0.1673 -0.0346
15939W        W32013  11.745   3.352  14.379 -0.0963  0.2513  0.2569
15940W        W32014   9.057   8.151   1.576 -0.1306 -0.0297  0.0149
15941W        W32015  10.212   1.772   4.386  0.0534 -0.2706  0.0645
15942W        W32016  16.979  14.553  11.467 -0.3549  0.0242 -0.3538
15943W        W32017  10.185   6.619  13.230  0.2492  0.0516 -0.1985
15944W        W32018  11.103  13.585  14.638 -0.1379  0.1751 -0.0070
15945W        W32019   8.528   0.152  15.361 -0.1163  0.0272 -0.1552
15946W        W32020  13.068  11.292   3.809  0.0216 -0.0437 -0.0672
15947W        W32021  10.082  12.028   2.991  0.0043 -0.2679  0.0603
15948W        W32022   4.034  15.451   6.210 -0.1830 -0.1464 -0.0694
15949W        W32023   3.446   3.942   3.584 -0.0644 -0.2939 -0.4567
15950W        W32024   2.631   5.339  13.475  0.0830  0.1103  0.0958
15951W        W32025   8.504   7.949  11.666  0.0620  0.3964  0.0656
15952W        W32026  13.153   3.448   3.720  0.0118 -0.2921 -0.2466
15953W        W32027   1.807  14.194  15.888  0.2225 -0.0116  0.4362
15954W        W32028   6.880  13.627   3.081 -0.0762  0.2619 -0.0832
15955W        W32029   5.870   9.827  12.430 -0.0426 -0.1837 -0.0646
15956W        W32030  10.510   3.536  12.231  0.2891  0.0855  0.1436
15957W        W32031   5.067   6.515  14.346  0.0545  0.2391 -0.3304
15958W        W32032  14.455  15.231   4.604 -0.1640 -0.0044  0.2058
15959W        W32033   4.052  11.676  15.219 -0.0165 -0.1811 -0.2155
15960W        W32034  12.937   9.650  14.409  0.2729 -0.3452  0.0488
15961W        W32035   6.797   7.103  14.525 -0.0383  0.2414 -0.1443
15962W        W32036  11.948  11.031  14.270  0.0387 -0.4371 -0.1154
15963W        W32037  14.032   2.767   0.999 -0.3052  0.0893  0.0077
15964W        W32038   7.462   5.102  15.930  0.2337  0.0523  0.2277
15965W        W32039   9.399  11.431   3.297  0.0013  0.0225 -0.0893
15966W        W32040  17.935   2.396  11.984  0.2558  0.3738 -0.3957
15967W        W32041   8.864  11.032   1.724  0.3193  0.0159  0.1426
15968W        W32042   8.484   4.789  11.599 -0.0959  0.1111  0.4339
15969W        W32043   5.871   5.638  12.199  0.2095 -0.0432 -0.1457
15970W        W32044  16.432  15.259   4.542  0.2250 -0.1398  0.0550
15971W        W32045   0.511   7.168   3.585  0.1637 -0.1594 -0.3077
15972W        W32046  17.750   2.735   4.127 -0.1326  0.1714  0.1013
15973W        W32047  12.589   9.290  14.840  0.1459 -0.1089 -0.0103
15974W        W32048  16.474   2.435   4.449  0.0687  0.0765 -0.0084
15975W        W32049  11.215   6.310  14.404 -0.1067  0.0593 -0.0881
15976W        W32050  14.419   1.196  14.754 -0.0370  0.1088 -0.4352
15977W        W32051   2.350  15.063  13.465 -0.0164  0.1669 -0.2912
15978W        W32052  17.619   4.424   3.716 -0.0408  0.0814 -0.1418
15979W        W32053  17.119  11.267   3.385 -0.0069 -0.0322  0.1999
15980W        W32054   1.967   1.395   5.640 -0.2073 -0.0211  0.2861
15981W        W32055  14.690   6.521  15.048  0.2746  0.0598  0.1779
15982W        W32056   5.219  14.578  14.111  0.2426 -0.0372 -0.0379
15983W        W32057   7.847  11.367   1.454  0.2528 -0.2002 -0.0133
15984W        W32058   5.711   2.356  15.064  0.1109 -0.0588  0.3237
15985W        W32059   2.789   4.568   5.388  0.1343 -0.0196 -0.5590
15986W        W32060   1.264  13.500   0.653 -0.0934 -0.0929  0.1318
15987W        W32061   7.270  12.881  15.378 -0.3451  0.1075  0.2319
15988W        W32062  13.056   2.006   2.608  0.2295 -0.2881  0.2597
15989W        W32063   4.860  15.696   5.588 -0.0276  0.0390 -0.2149
15990W        W32064   5.981   0.007  13.340  0.0971  0.2646  0.0702
15991W        W32065   6.262  13.871  13.103 -0.1164 -0.1324 -0.1183
15992W        W32066   5.323   4.929   2.237  0.0468  0.2581 -0.2564
15993W        W32067  17.669   3.519  13.835  0.2457 -0.2675 -0.0143
15994W        W32068   8.243   9.617  12.908 -0.0441 -0.1668 -0.0224
15995W        W32069   4.715   7.666   1.745 -0.1655 -0.1774  0.0289
15996W        W32070  11.484   6.703  12.119 -0.0455 -0.3335 -0.3094
15997W        W32071  16.499  13.367   5.287  0.3777  0.2309 -0.3408
15998W        W32072  11.916  14.122   1.707 -0.0707 -0.0125  0.3836
15999W        W32073   1.394   3.927   3.139  0.4586 -0.1145 -0.4969
16000W        W32074  14.260   5.417  15.344  0.1219 -0.0112 -0.0154
16001W        W32075   5.349  17.638  14.086  0.1011  0.0481 -0.4813
16002W        W32076   0.701   0.720   5.483  0.2764 -0.2037 -0.0012
16003W        W32077   5.894   5.264   0.717 -0.1577 -0.2228  0.0960
16004W        W32078   4.065   0.308   1.081 -0.0603 -0.0122 -0.2045
16005W        W32079   6.319   3.810  15.655  0.0573  0.0841  0.0574
16006W        W32080   8.461  11.157   4.472  0.1377 -0.1703 -0.0930
16007W        W32081   8.284   1.628   4.210  0.1954  0.0168 -0.1100
16008W        W32082  15.873   7.589  12.193  0.0799 -0.2609 -0.4325
16009W        W32083  16.134  15.576   0.379 -0.0836  0.0766 -0.0049
16010W        W32084  10.383  18.285   3.108  0.0097  0.0746 -0.1782
16011W        W32085   8.556   3.436  10.985  0.1154  0.1676 -0.2312
16012W        W32086   4.296   2.829   0.132 -0.4261 -0.2823 -0.0081
16013W        W32087  11.029   1.481   1.315  0.0271  0.1234 -0.0870
16014W        W32088   5.377   3.374   3.613 -0.0695  0.0188  0.1848
16015W        W32089   7.064   9.730  12.855  0.1434  0.2675 -0.0002
16016W        W32090   9.797  17.387   0.400 -0.3092  0.1064  0.1260
16017W        W32091   9.274   3.418  11.623 -0.1594 -0.1000  0.2632
16018W        W32092   1.122   3.667   0.268  0.2446 -0.0582  0.1506
16019W        W32093  12.672   3.015  16.053  0.0346  0.0084  0.0370
16020W        W32094  16.276   3.608   2.687 -0.1125  0.1500  0.3014
16021W        W32095  17.760   9.329   0.928 -0.1611 -0.0193  0.1548
16022W        W32096   9.341   4.932  11.773 -0.2914 -0.0761  0.2533
16023W        W32097   5.241   4.277   2.776  0.0487  0.1994 -0.2190
16024W        W32098   7.429  16.376  12.373  0.1691 -0.0588  0.3120
16025W        W32099   8.795   2.665   3.120 -0.1673  0.1145  0.1112
16026W        W32100   8.884   3.265   3.768  0.0153 -0.2862  0.1734
16027W        W32101  17.529  11.088   3.100  0.0696  0.1494  0.0831
16028W        W32102   1.072  14.142   5.398 -0.0150 -0.0018  0.0948
16029W        W32103   0.784  12.135   3.047  0.1593  0.0695  0.1388
16030W        W32104  12.607  16.307   1.481  0.2148  0.2703  0.2269
16031W        W32105  16.271   5.825   1.573 -0.0477  0.0504  0.1666
16032W        W32106   6.114  11.777  11.985 -0.1088  0.3556  0.1152
16033W        W32107  13.026  17.181   5.731 -0.2670 -0.0381 -0.2645
16034W        W32108  13.241  10.759  13.774  0.0260  0.1126 -0.0436
16035W        W32109   0.520  12.808  15.478 -0.4835  0.0597  0.1678
16036W        W32110  12.207  15.888  11.538 -0.2161 -0.0319  0.2166
16037W        W32111  10.071   0.670   1.700  0.2301 -0.0714 -0.0836
16038W        W32112  12.399  14.825   3.088  0.0981 -0.1688  0.3259
16039W        W32113  17.827  17.204  14.824  0.1002 -0.3856 -0.1170
16040W        W32114  10.345  14.827   3.967  0.2607 -0.1194  0.0245
16041W        W32115   9.495  14.749   0.019  0.1183  0.0994 -0.2249
16042W        W32116   9.096  11.316   4.909  0.2028  0.2386  0.0582
16043W        W32117  13.042  11.605  14.621  0.0457  0.3535  0.1803
16044W        W32118   4.613  17.148   4.228  0.0837  0.0809 -0.1946
16045W        W32119   7.369  14.919  16.058 -0.1195  0.0412  0.2218
16046W        W32120   6.729   7.124  15.412 -0.0192  0.0610 -0.0551
16047W        W32121  10.008  12.097   0.283  0.0094 -0.0063  0.0230
16048W        W32122   2.066  17.037   5.142  0.2118 -0.0418 -0.0836
16049W        W32123   0.427   7.902   1.727 -0.0073  0.1394 -0.0131
16050W        W32124   0.812  15.462  15.571 -0.2062 -0.1018 -0.0190
16051W        W32125   9.965   7.626  16.262  0.0192 -0.0781  0.4572
16052W        W32126  10.183  14.591  16.224 -0.2310 -0.1217 -0.1111
16053W        W32127   8.648  15.252   3.298 -0.0641  0.1583  0.0839
16054W        W32128   2.474  12.156   1.054 -0.0826  0.1694 -0.0276
16055W        W32129   4.895   1.065   1.737  0.0085  0.3301 -0.1715
16056W        W32130   1.314  13.682   3.480  0.1931  0.0210 -0.3238
16057W        W32131   5.628  13.347   1.763  0.0188  0.4217  0.2324
16058W        W32132   7.206  11.506   0.514 -0.1067  0.1464  0.0150
16059W        W32133  18.095   2.280   0.241 -0.1005 -0.0746 -0.2108
16060W        W32134   0.991  15.569  14.233  0.3035  0.2442 -0.2248
16061W        W32135  14.493   1.002   6.310 -0.0373  0.0670 -0.1034
16062W        W32136   8.573  17.839  14.162  0.1222 -0.0725 -0.1115
16063W        W32137   0.831   2.613   4.972  0.1377  0.1859 -0.0854
16064W        W32138   7.354  12.492  14.812 -0.0771 -0.1456  0.2471
16065W        W32139   0.108   3.030   1.653  0.0697  0.0067  0.2141
16066W        W32140  16.243  12.391   0.863 -0.3135 -0.2181  0.0810
16067W        W32141   1.637   7.593  13.554 -0.0319  0.0151  0.2888
16068W        W32142   6.349  11.798  10.901  0.0235  0.1716  0.1919
16069W        W32143   0.075   2.341  13.800 -0.2591 -0.0924 -0.0473
16070W        W32144   1.617  14.717   3.228 -0.2971 -0.0132  0.0880
16071W        W32145  10.936   3.463   2.636 -0.2433  0.1314 -0.1062
16072W        W32146  11.779   9.293  15.008  0.0401  0.1671 -0.3212
16073W        W32147   0.854  17.787   2.899  0.2158  0.1797  0.1455
16074W        W32148   2.693  16.384  12.195  0.0170 -0.1432  0.1255
16075W        W32149   4.627  16.386   5.296 -0.3928 -0.0521 -0.1067
16076W        W32150   8.118  11.981   2.358  0.0950 -0.2168  0.1226
16077W        W32151  17.411   8.362   1.663 -0.0140  0.3295 -0.2243
16078W        W32152   2.281   4.556   4.937  0.1711  0.0243 -0.2465
16079W        W32153   9.666  16.523  12.593  0.0168 -0.2377  0.0369
16080W        W32154  14.442  14.537  15.269 -0.0793  0.4596  0.1614
16081W        W32155   3.259   9.377  11.780 -0.0304  0.0015  0.0989
16082W        W32156  18.311  13.204   4.376  0.1403  0.0755 -0.0377
16083W        W32157   4.148  16.944   0.159 -0.0696 -0.2079  0.0783
16084W        W32158   3.424  13.055  14.497  0.4261 -0.0102 -0.1400
16085W        W32159   5.859  12.861  15.325  0.0204 -0.0397  0.3706
16086W        W32160  16.000   6.881  13.799  0.0089  0.3705  0.0698
16087W        W32161   7.048  12.965  15.898 -0.1518 -0.2406  0.1369
16088W        W32162  11.164   6.401  15.996 -0.0699  0.2151  0.0576
16089W        W32163   7.259  16.348   4.683  0.0672  0.1409 -0.1581
16090W        W32164   6.727  10.744  15.657  0.1025  0.1169  0.1515
16091W        W32165  15.902   3.085   4.347 -0.2457 -0.1631  0.2771
16092W        W32166  17.735  17.674   5.825  0.0316 -0.1148 -0.2873
16093W        W32167   5.229  13.669   2.678  0.0223  0.2555 -0.0382
16094W        W32168  10.025  16.240  12.778 -0.1852  0.0425 -0.0783
16095W        W32169  11.589   6.468  13.347  0.0726 -0.0768  0.0479
16096W        W32170   2.501  15.018  14.311  0.0981 -0.1256  0.2214
16097W        W32171   1.013  17.292   6.503 -0.1191  0.5124 -0.1761
16098W        W32172   1.105  13.741  14.778  0.0557  0.3468 -0.1080
16099W        W32173   3.738  10.251   4.262 -0.1184  0.2564 -0.1625
16100W        W32174  17.428   0.996   2.026  0.0005 -0.1171  0.2633
16101W        W32175   9.620   9.173  15.715  0.1884 -0.0840  0.1386
16102W        W32176   7.833  11.670  10.689  0.2898  0.0838 -0.2323
16103W        W32177   7.537  12.500   6.657 -0.0944  0.2052 -0.1780
16104W        W32178   2.304   0.417  14.905  0.1930 -0.0470 -0.1760
16105W        W32179   4.967   2.484  13.577  0.0948  0.1206  0.1172
16106W        W32180  18.078  15.693  13.812  0.1884 -0.1153 -0.0514
16107W        W32181   5.447  16.659  11.095  0.2785  0.0882  0.2071
16108W        W32182  18.328  15.427  11.795  0.0003 -0.3346  0.0537
16109W        W32183  15.799   4.765  15.935 -0.1698  0.0159  0.0233
16110W        W32184  13.410   8.073   4.260  0.1263 -0.0685 -0.2957
16111W        W32185   6.806   9.004   2.282 -0.2814 -0.3451 -0.0672
16112W        W32186  13.737  17.148   4.064  0.2899  0.2096  0.0720
16113W        W32187   8.350   4.555   3.962  0.1362  0.3552  0.1908
16114W        W32188   6.731   2.935  15.205  0.0243 -0.1414 -0.4928
16115W        W32189   1.498   1.974  14.638  0.2654  0.4068 -0.1186
16116W        W32190   1.895   2.167  12.588  0.0178  0.2441 -0.2012
16117W        W32191   9.124  11.747  14.648  0.0898  0.0364 -0.3712
16118W        W32192  16.124  13.130  15.498 -0.1731  0.1464 -0.2977
16119W        W32193   2.214   5.313   1.485 -0.1468 -0.1056  0.2013
16120W        W32194  12.834   6.215  14.806  0.1423 -0.0700  0.5362
16121W        W32195   3.014   2.308   2.224  0.3129 -0.2373  0.2842
16122W        W32196   6.053   9.512  13.904  0.0433 -0.0135 -0.2341
16123W        W32197  13.198   5.357  11.175 -0.1409  0.0114  0.2790
16124W        W32198  13.818   0.456  15.739 -0.2629  0.1667  0.4538
16125W        W32199   4.368   5.794   0.198  0.2689  0.1769  0.4336
16126W        W32200  15.837  16.450   1.432  0.0033 -0.0864 -0.2256
16127W        W32201  11.069  13.712   1.628 -0.2259 -0.1217  0.1420
16128W        W32202   5.056   4.153   5.439 -0.0580 -0.1596  0.0835
16129W        W32203   2.479   3.825   0.377  0.5387 -0.0707 -0.0637
16130W        W32204   7.646  12.713   2.060  0.0395 -0.3446  0.1861
16131W        W32205  13.842   9.991  14.617  0.0799  0.0629 -0.2527
16132W        W32206   5.458  13.069  14.738  0.4548  0.1924  0.0457
16133W        W32207  14.919  14.453  11.868 -0.0342  0.3781 -0.0473
16134W        W32208   6.677  14.736  15.741 -0.0339  0.0794  0.1985
16135W        W32209  15.463  11.383   3.119 -0.2416  0.1532  0.0732
16136W        W32210   5.355   3.909   3.362  0.1994  0.2370  0.2845
16137W        W32211  11.467  11.251  14.207  0.0397  0.0743 -0.1285
16138W        W32212  13.877   1.167   2.928  0.0377  0.1071 -0.1654
16139W        W32213   3.692   0.329  13.950  0.0206 -0.2472 -0.0664
16140W        W32214   7.373  17.049   2.894  0.2606 -0.2925 -0.1994
16141W        W32215   3.772   4.519   0.523  0.0649  0.0331  0.2459
16142W        W32216   9.796  10.000  15.402 -0.0248  0.1030 -0.0178
16143W        W32217   9.374   4.609  16.360  0.0504  0.0783  0.0758
16144W        W32218  11.993  14.617   4.013 -0.1016 -0.1861  0.1297
16145W        W32219   3.987  13.789   1.178 -0.1157 -0.0586  0.3068
16146W        W32220   1.126  17.038   5.639  0.1831  0.2238 -0.0246
16147W        W32221   2.552  18.201   0.156  0.2730  0.2327  0.1266
16148W        W32222  17.376   5.157  12.248 -0.1492  0.1677 -0.1622
16149W        W32223   6.287   5.214   4.281 -0.0972 -0.0413 -0.3841
16150W        W32224   7.662   2.306  11.240 -0.0625 -0.1699 -0.0909
16151W        W32225   7.368   4.066  16.036 -0.0876 -0.3891 -0.3853
16152W        W32226  17.824  16.275   3.683  0.3051 -0.0085 -0.2014
16153W        W32227  16.763  16.085  15.622  0.1257 -0.1068 -0.1631
16154W        W32228   6.469   1.907   4.086  0.0340  0.2032  0.0421
16155W        W32229  16.710   9.602  13.050 -0.0937  0.0897 -0.1853
16156W        W32230   8.356  13.516  15.886  0.0960  0.1089  0.1567
16157W        W32231  16.080  16.302  12.515 -0.0662  0.2637  0.1465
16158W        W32232   7.445   2.258  14.535  0.3031 -0.1916 -0.0832
16159W        W32233  15.915   4.426   4.071 -0.1426 -0.4041  0.2080
16160W        W32234  16.977  12.234  11.933  0.2641  0.1629 -0.1608
16161W        W32235   9.641   6.449  12.685 -0.2130  0.0958 -0.1450
16162W        W32236   2.563   7.773  10.768  0.1469 -0.1332 -0.3878
16163W        W32237   3.113  16.342  14.358  0.0830 -0.0890 -0.2038
16164W        W32238  15.176   8.712  11.484 -0.3756  0.1673  0.0825
16165W        W32239   9.366   4.875   3.214 -0.1044  0.0001 -0.0626
16166W        W32240   9.591   9.763  14.160  0.1711 -0.0182 -0.1603
16167W        W32241   5.925   4.877   1.116  0.2778 -0.0046 -0.2016
16168W        W32242   1.720   2.918  12.866 -0.3904  0.2756 -0.0758
16169W        W32243  13.286   2.642   2.958  0.1773 -0.2831 -0.1685
16170W        W32244  10.322   6.712  10.778  0.3168 -0.1716 -0.1600
16171W        W32245   2.573   9.840   3.723  0.1256  0.1432 -0.1481
16172W        W32246   8.345   4.730  16.352 -0.0923  0.1771  0.0324
16173W        W32247  15.769  16.720  13.852 -0.4504 -0.2964  0.1323
16174W        W32248   6.939  17.260  12.654 -0.0541 -0.3981 -0.5741
16175W        W32249   5.411  16.043   2.328  0.1265 -0.3229 -0.2120
16176W        W32250   9.777  11.512   4.323 -0.3560 -0.2098 -0.1257
16177W        W32251   4.428   1.979  11.696  0.1574 -0.0511  0.0848
16178W        W32252   5.617   0.339  13.980 -0.1456 -0.1231  0.2697
16179W        W32253  14.126   5.899  13.870 -0.3706  0.2629  0.1061
16180W        W32254  11.909   1.369   1.117  0.3649  0.2359 -0.0440
16181W        W32255  13.008   4.879   1.984 -0.1248 -0.2958  0.1004
16182W        W32256   5.361  17.708  14.968 -0.2643  0.1277 -0.3478
16183W        W32257  16.830   8.620  12.879 -0.0323  0.0890  0.2995
16184W        W32258   9.707   6.697   4.008 -0.2195 -0.1428 -0.1720
16185W        W32259   7.251   0.295   5.014 -0.4057 -0.4833  0.2195
16186W        W32260  11.020   3.303  13.145 -0.2230  0.0402 -0.0352
16187W        W32261  15.273   8.842   4.257 -0.1505 -0.1482  0.2378
16188W        W32262  13.751   5.359  16.346  0.2899  0.4356 -0.1836
16189W        W32263   1.761   6.329   5.652  0.0791  0.3498  0.1455
16190W        W32264   1.166  17.753   6.404 -0.2344  0.1586 -0.0605
16191W        W32265   3.604   7.458   4.001 -0.0719 -0.1050  0.2561
16192W        W32266  12.713   6.077   2.772 -0.1421  0.2177 -0.2343
16193W        W32267   3.667  10.159  11.471 -0.0096  0.0063 -0.2097
16194W        W32268   0.220   7.669   3.366  0.0806  0.2718  0.3341
16195W        W32269   9.603   3.185   4.752 -0.0441 -0.0339  0.1726
16196W        W32270   9.893  14.566   0.251 -0.0423 -0.0165  0.2876
16197W        W32271   9.563   3.526  13.165 -0.1306 -0.0216 -0.2170
16198W        W32272  12.636  10.007  14.762 -0.3517  0.1012 -0.0617
16199W        W32273  15.232   5.773   3.522  0.1055  0.0985  0.2070
16200W        W32274   2.233  17.193   1.564 -0.1516 -0.4201  0.1189
16201W        W32275  14.159   5.090   0.195 -0.0023  0.1247 -0.0081
16202W        W32276   4.020   6.499   0.162  0.1820 -0.1619  0.2161
16203W        W32277   0.298   2.979   1.219 -0.0134 -0.1501  0.0019
16204W        W32278  10.397  13.272  15.144  0.1187  0.0224  0.0663
16205W        W32279   4.866  17.430  12.723 -0.4540  0.1050 -0.2903
16206W        W32280  16.286  16.694   1.265  0.0407 -0.0178 -0.3845
16207W        W32281   9.175   5.511  10.558  0.2252  0.1429  0.0766
16208W        W32282  14.865   2.383   1.237  0.0596  0.3044 -0.2382
16209W        W32283   4.082  11.177  12.566 -0.2657 -0.2638  0.0337
16210W        W32284   3.371  17.235   0.669 -0.1132  0.0520 -0.5801
16211W        W32285  16.537   1.819  12.586  0.1775  0.3976 -0.3543
16212W        W32286  10.943   4.404   0.170 -0.0739 -0.0694  0.4216
16213W        W32287   6.580   1.163   5.191 -0.0386 -0.1317 -0.3397
16214W        W32288   6.154   2.466   2.707  0.0730 -0.0174 -0.3247
16215W        W32289   8.801   7.048  15.660  0.3464 -0.1725 -0.1971
16216W        W32290  11.210  17.673   2.138 -0.3769  0.1929  0.1241
16217W        W32291  10.389  15.087  12.241 -0.1629  0.2161  0.0648
16218W        W32292  12.443  12.194  14.731  0.2106 -0.1772 -0.2028
16219W        W32293  10.910  11.343  14.025  0.2789 -0.0033 -0.4262
16220W        W32294   0.776   8.543   0.504  0.1862  0.1021 -0.0837
16221W        W32295   2.542   7.963  14.486 -0.2275  0.1060 -0.1704
16222W        W32296   1.055  14.015  16.359 -0.0839 -0.0855 -0.0034
16223W        W32297  14.691   2.977   5.522 -0.2264  0.0770  0.1533
16224W        W32298   2.584  13.454   4.256  0.0215 -0.2518 -0.0259
16225W        W32299   6.563  10.548   3.773 -0.0158  0.0895  0.0023
16226W        W32300  12.553  15.464  13.746 -0.0094  0.1165  0.0412
16227W        W32301   5.731   1.931   0.330  0.3797 -0.0521  0.0863
16228W        W32302  16.184   7.534   0.055 -0.2453 -0.0469 -0.0756
16229W        W32303  15.058  14.267  14.624 -0.0386  0.2744  0.2340
16230W        W32304  17.032   8.182   1.394 -0.1320  0.1219  0.0493
16231W        W32305   7.001   3.774  13.644  0.0226 -0.2532 -0.0637
16232W        W32306   3.124   0.641  12.902  0.0582 -0.0931  0.0817
16233W        W32307   7.827  15.237  11.993 -0.1554  0.1681  0.0002
16234W        W32308  15.943   1.144  15.641 -0.1654 -0.2876  0.0368
16235W        W32309   4.003   9.131   4.787  0.1850  0.1226 -0.1606
16236W        W32310  11.973   2.230   5.871 -0.0771 -0.1464  0.0893
16237W        W32311   8.444  15.235   2.752  0.2794  0.2202 -0.1584
16238W        W32312   9.560   3.920   1.278 -0.0109 -0.1969 -0.0203
16239W        W32313  14.637   2.255  14.269 -0.0383 -0.2886  0.0068
16240W        W32314  15.865  16.751  12.215 -0.0281 -0.1332 -0.1047
16241W        W32315   7.787   5.622  13.639 -0.0070  0.1049 -0.3329
16242W        W32316   0.762   5.126  10.707  0.1696 -0.0844 -0.0870
16243W        W32317  17.982   1.589   0.198 -0.1630  0.1466 -0.0615
16244W        W32318  17.636  10.590   0.288 -0.4467  0.0322  0.1182
16245W        W32319  10.587   6.753  12.485  0.1001 -0.1097  0.0856
16246W        W32320   9.819   6.755  15.902  0.2444 -0.0142  0.0429
16247W        W32321   1.265  11.710  12.488 -0.1241 -0.1866 -0.0858
16248W        W32322   7.995   1.952  15.867 -0.0432  0.0096  0.0037
16249W        W32323  10.865   1.355  13.087  0.0517  0.0113  0.2393
16250W        W32324   4.799  14.360  13.608  0.1925  0.0966  0.1705
16251W        W32325  14.301   7.664  11.337 -0.1347  0.2414 -0.3720
16252W        W32326   7.661  11.938  14.238  0.0862  0.0367 -0.2329
16253W        W32327  11.596   3.881   4.850 -0.0860  0.0240 -0.3157
16254W        W32328   8.831   8.898  12.740 -0.2460  0.0546 -0.0502
16255W        W32329  17.840   1.567  15.766  0.1291 -0.0791  0.0435
16256W        W32330   8.702  14.077   4.356  0.1402 -0.0418 -0.0579
16257W        W32331  13.656   0.291   3.380  0.0794  0.2253  0.0633
16258W        W32332  10.717  10.461  15.313 -0.0610 -0.2559 -0.0011
16259W        W32333  17.128  11.178  14.340 -0.0255 -0.2716  0.3234
16260W        W32334   3.811   6.626   2.552 -0.0494 -0.0270 -0.2542
16261W        W32335   6.635   6.658   3.636 -0.3594 -0.0614 -0.4347
16262W        W32336  13.644  14.036   4.697  0.0948 -0.6140 -0.0495
16263W        W32337   1.062  13.886   0.942  0.1497  0.0870  0.3030
16264W        W32338   0.607  16.213  12.758  0.1808 -0.0932  0.0508
16265W        W32339   6.445  13.535   2.028  0.1840  0.2022  0.0600
16266W        W32340  17.460  16.409   4.040  0.1637 -0.1609 -0.1420
16267W        W32341   7.913  17.162   5.902  0.3475  0.0275 -0.3796
16268W        W32342   8.051  14.315   3.891 -0.0873  0.1805  0.1946
16269W        W32343  18.156  17.735   3.726 -0.1230 -0.2954  0.1466
16270W        W32344   5.165  13.671   0.573 -0.4117 -0.0840 -0.1918
16271W        W32345  11.444  15.769   1.622  0.2752 -0.0191  0.3239
16272W        W32346  17.904   8.355  13.950 -0.1687 -0.1418 -0.1683
16273W        W32347  11.191  15.674   3.101 -0.1420  0.0022  0.2572
16274W        W32348   6.589   6.611   4.734 -0.0172 -0.0579 -0.1233
16275W        W32349   8.353  14.299   5.204 -0.0258 -0.4413  0.1213
16276W        W32350  18.269   1.712   2.891  0.1046 -0.2562  0.1451
16277W        W32351   3.992  14.588  14.470  0.2257  0.2423  0.3824
16278W        W32352  10.062   5.260  15.059 -0.1094 -0.1816 -0.1664
16279W        W32353   2.406   7.227  13.160 -0.0056 -0.1709  0.2509
16280W        W32354   0.665   1.489  11.612 -0.1369 -0.0455 -0.0244
16281W        W32355   0.346  14.382   1.495  0.0209  0.0487 -0.0389
16282W        W32356  14.799   5.941  14.671 -0.2611 -0.2160  0.0334
16283W        W32357   3.421  11.235   0.849 -0.0500 -0.0381  0.0009
16284W        W32358   0.317  14.239  15.830  0.1254  0.1580  0.0886
16285W        W32359   1.696   9.431   1.702  0.0540  0.0285  0.0415
16286W        W32360   3.557  16.822  12.062  0.1890  0.3981 -0.2820
16287W        W32361   2.624   1.365  15.678 -0.1960  0.3298 -0.0164
16288W        W32362   2.764   7.851   0.683 -0.2157 -0.1351  0.1212
16289W        W32363   0.031  15.855  12.082  0.3516  0.4682 -0.3513
16290W        W32364  12.739   7.616  12.597 -0.0312  0.1112 -0.1336
16291W        W32365  12.309   9.223   6.175  0.1354  0.1641  0.0882
16292W        W32366   7.581  10.703   0.689 -0.1655 -0.3384 -0.4564
16293W        W32367   0.166   6.536   2.033  0.1039 -0.2791  0.0341
16294W        W32368   0.537  10.864  15.801  0.1954 -0.1042  0.3792
16295W        W32369  11.097   6.548   4.951 -0.0497 -0.0563 -0.3277
16296W        W32370   3.060   9.364   4.243  0.1890  0.1909 -0.0740
16297W        W32371   6.281  16.264   4.147 -0.2715  0.0445  0.1403
16298W        W32372   3.115  18.142  14.189  0.0499 -0.2041 -0.0294
16299W        W32373   5.050  13.518   2.045 -0.1406  0.0951 -0.4525
16300W        W32374  15.743   3.259   3.775  0.1236 -0.2024 -0.1394
16301W        W32375  12.812  15.084   1.342 -0.2461  0.0398  0.3999
16302W        W32376  17.336   8.196  14.275 -0.2453  0.3788 -0.2728
16303W        W32377   0.020  10.001  15.490 -0.2292  0.3652  0.0286
16304W        W32378   0.517   9.821  14.482 -0.0458 -0.0925  0.2004
16305W        W32379  12.723  11.367   5.067  0.1554  0.1659 -0.2311
16306W        W32380   6.908  14.556   3.446 -0.4143  0.0214  0.1316
16307W        W32381  16.686   4.081  13.590 -0.0056 -0.1474  0.3142
16308W        W32382   4.748   5.969  13.401 -0.0068 -0.1091 -0.2389
16309W        W32383   1.118   8.195   0.282 -0.1165  0.3697 -0.2625
16310W        W32384  17.515  16.713  15.991  0.0482  0.0758  0.1128
16311W        W32385   1.101  10.246  15.880  0.0068 -0.2606  0.1294
16312W        W32386  13.513  13.479  12.830  0.2000 -0.0005 -0.0513
16313W        W32387  10.984   4.338   9.341 -0.0574 -0.0505  0.2186
16314W        W32388  13.494   2.515   5.160 -0.3081 -0.2073 -0.2555
16315W        W32389   5.507   6.205  14.161 -0.1320  0.0376  0.0292
16316W        W32390   5.368   8.105   2.908  0.2004  0.1746 -0.2051
16317W        W32391  12.205  10.187  15.673  0.2727 -0.1962  0.0501
16318W        W32392  18.165  10.344   2.565 -0.0492 -0.0756  0.5393
16319W        W32393   7.217   9.298   0.059  0.1201  0.4580 -0.3735
16320W        W32394   2.079   1.652  13.699 -0.2320 -0.0503  0.0902
16321W        W32395   8.518   2.244   3.046  0.0511 -0.0794 -0.0194
16322W        W32396   7.330  17.885   1.561 -0.2197  0.0136  0.0165
16323W        W32397  18.025   9.163  14.249  0.0269  0.2442 -0.3301
16324W        W32398  18.280  16.471  14.489  0.0680 -0.2978  0.3002
16325W        W32399  17.272   4.373  15.284  0.0612 -0.1509 -0.0638
16326W        W32400  15.517  14.122   1.899  0.1816 -0.0267  0.0768
16327W        W32401   4.550   0.489  12.981  0.1579  0.0062 -0.0632
16328W        W32402   5.104  12.325   3.002 -0.1458  0.0785  0.0918
16329W        W32403  15.473  16.125  14.989 -0.1021 -0.1547  0.2299
16330W        W32404   5.195  13.173   2.941 -0.0406  0.1296  0.0684
16331W        W32405   2.631   3.058   0.792  0.1829 -0.0600 -0.1995
16332W        W32406  13.628   4.551   4.947  0.0228 -0.1523  0.3979
16333W        W32407   5.109  15.829   4.557 -0.1949 -0.1099  0.0709
16334W        W32408   6.400  10.204   2.916  0.1362 -0.0086  0.0463
16335W        W32409  13.663  12.862   2.748  0.2970 -0.2012  0.0129
16336W        W32410  16.157   0.470  11.542  0.1351  0.0715  0.1602
16337W        W32411   1.050  15.593   5.146  0.0289  0.3016  0.0169
16338W        W32412  15.846   8.651   0.384  0.3400 -0.3108 -0.1798
16339W        W32413   3.563   8.098  12.874  0.0662  0.3573  0.2166
16340W        W32414   5.017   9.639  13.772 -0.0085 -0.0672  0.3620
16341W        W32415   5.162  17.557  13.114  0.1310  0.1396  0.0204
16342W        W32416  16.686  17.325   1.044  0.1351  0.0010  0.0023
16343W        W32417   6.858   3.678  11.923  0.1642 -0.0846 -0.1322
16344W        W32418  13.995  11.270   1.404 -0.1013 -0.3786  0.1291
16345W        W32419  11.009   5.637  14.913 -0.1818  0.2608  0.1299
16346W        W32420   5.718   1.079  15.148  0.1111  0.0248  0.4293
16347W        W32421  10.839  15.530  14.635 -0.0972  0.0237  0.3211
16348W        W32422  13.323  10.553   3.661 -0.1246  0.3103 -0.3610
16349W        W32423   9.325   9.999   0.461  0.2497  0.1690 -0.1831
16350W        W32424   9.332   4.765  15.915 -0.0562  0.2635 -0.0319
16351W        W32425  12.517   8.314  11.732  0.0587  0.2570  0.2278
16352W        W32426  17.616  13.223  11.965 -0.1396 -0.0263  0.2092
16353W        W32427   5.729   1.424  13.914  0.2350 -0.0325 -0.3422
16354W        W32428   5.745  17.114  15.267  0.2980  0.2745 -0.0209
16355W        W32429  16.845   0.068  15.149  0.3253  0.2169 -0.1074
16356W        W32430  14.119  16.679   5.879 -0.1022  0.2568 -0.0021
16357W        W32431   6.175   9.995  13.200  0.3486  0.1979 -0.1126
16358W        W32432  17.858  16.293   5.758  0.0956 -0.2470 -0.2001
16359W        W32433  12.491   6.036   2.304  0.3760  0.1259 -0.2427
16360W        W32434   5.600  13.609   3.619  0.1100 -0.0073  0.0767
16361W        W32435  16.538   0.575   3.788  0.1746 -0.0937  0.1814
16362W        W32436   1.396   9.040   2.421  0.0125  0.3952  0.1192
16363W        W32437  13.121  13.842  12.747 -0.0469  0.0878  0.0763
16364W        W32438   0.904   1.464   0.599  0.2406 -0.1767  0.2428
16365W        W32439   2.066  10.505  16.057  0.1054 -0.2492  0.1905
16366W        W32440  12.449  10.622   3.896  0.1563  0.1238  0.0365
16367W        W32441   3.865  14.000   1.927 -0.0053 -0.2412 -0.2044
16368W        W32442   9.111  14.048  15.845 -0.0022 -0.2198  0.2837
16369W        W32443   0.835   7.724  12.941  0.4749 -0.3136  0.0628
16370W        W32444   9.255   4.722   2.150  0.1363 -0.2365 -0.0940
16371W        W32445  13.392  17.268  11.848  0.1805  0.4646 -0.0238
16372W        W32446  14.684  16.417   4.068 -0.0615  0.1416  0.0123
16373W        W32447   1.948  18.152   4.433  0.0798  0.2280 -0.1259
16374W        W32448  12.246  10.979   4.293 -0.4762  0.0521  0.1115
16375W        W32449  12.187   7.032  12.241  0.2561 -0.0763  0.0971
16376W        W32450   4.541   0.398   0.783  0.0445  0.0505 -0.0662
16377W        W32451  12.566  13.439   0.068 -0.0355 -0.2363  0.1254
16378W        W32452  18.306   5.654  13.499 -0.4607 -0.2259  0.3519
16379W        W32453   6.455  16.855  14.474 -0.1468 -0.2156 -0.0123
16380W        W32454   8.647  14.002  14.546  0.0682 -0.0075  0.0549
16381W        W32455  12.141   5.750   0.584 -0.0990  0.1527  0.0896
16382W        W32456   0.672  13.389  13.556  0.4354 -0.2352 -0.1193
16383W        W32457   0.152  12.841   2.924 -0.1803  0.1769  0.3910
16384W        W32458  13.820  15.118   6.362  0.0607  0.1245  0.2523
16385W        W32459  17.917  15.530  15.241  0.1410 -0.0593  0.1743
16386W        W32460  11.117   9.369   4.894  0.3601  0.0677 -0.2131
16387W        W32461   7.710   4.096   0.056  0.0395 -0.1304  0.0756
16388W        W32462  10.732  10.119  13.499 -0.0710  0.0783 -0.0002
16389W        W32463   5.777  10.902  13.053 -0.0966  0.3396  0.2442
16390W        W32464  15.851   3.219  12.994  0.0072 -0.3239  0.2497
16391W        W32465   5.929  11.038  13.999 -0.0674  0.1898  0.3151
16392W        W32466  13.031  11.118   0.840  0.2647  0.0102  0.0944
16393W        W32467  15.528  10.109  13.637 -0.0399 -0.0761 -0.2898
16394W        W32468   4.776  15.776  16.324  0.0361 -0.1172  0.0625
16395W        W32469   9.684   4.513  12.441  0.0861 -0.1163 -0.0379
16396W        W32470  10.471   3.042   3.905  0.3871  0.2104  0.0480
16397W        W32471   6.717  13.870   4.352  0.2736  0.2727 -0.1122
16398W        W32472  12.681   3.441   5.310  0.4026 -0.2436 -0.0428
16399W        W32473   7.369  11.147   3.957 -0.1328 -0.0030 -0.1847
16400W        W32474   2.541   4.365   0.310  0.0363 -0.0149  0.1330
16401W        W32475   8.888   1.040  11.931  0.1025  0.0241 -0.0978
16402W        W32476   3.156   5.564  13.800 -0.0313 -0.3040  0.0070
16403W        W32477  18.277  12.116   4.876 -0.2768 -0.2309 -0.0377
16404W        W32478   7.749   2.527  12.855 -0.2537  0.1529  0.0554
16405W        W32479   7.370  13.509   0.412  0.1860  0.1982 -0.0463
16406W        W32480   2.439   9.494   5.661  0.0712  0.3689 -0.1253
16407W        W32481   0.061  15.076  13.433  0.1027  0.0745  0.1164
16408W        W32482  14.211   9.179   4.118 -0.5059 -0.1781 -0.2312
16409W        W32483  17.497  13.346  14.566 -0.2501 -0.0170 -0.4760
16410W        W32484  12.791   9.766  12.388 -0.0001 -0.0580 -0.0165
16411W        W32485  10.841   6.110  13.640 -0.0063  0.1980  0.1109
16412W        W32486   3.872   0.823   2.264 -0.0561  0.0414 -0.3937
16413W        W32487   7.597   7.076  12.387  0.0196 -0.2720  0.0079
16414W        W32488  11.467   9.614   1.403  0.3405 -0.0726 -0.2884
16415W        W32489  14.200   0.052   0.939  0.1475 -0.2609 -0.0633
16416W        W32490   2.222  13.489  13.157  0.0236 -0.0257 -0.1257
16417W        W32491  10.821  17.216  12.007 -0.3259 -0.1568  0.1580
16418W        W32492   6.750   5.609  11.677 -0.0061 -0.1383 -0.1363
16419W        W32493  15.682   0.250   0.581  0.1992  0.1530 -0.4976
16420W        W32494   6.220   7.632  13.219  0.3785 -0.2380  0.1597
16421W        W32495   4.548   8.803  14.544  0.1181 -0.2403 -0.2950
16422W        W32496   3.432   0.897  15.783 -0.0260 -0.0792  0.3296
16423W        W32497  17.106   3.472   3.150  0.0483  0.0628  0.1072
16424W        W32498   3.096  13.553   2.290 -0.1831  0.0828 -0.1895
16425W        W32499   3.037  12.752  13.229 -0.3071  0.0051  0.0618
16426W        W32500   7.229  13.245   4.978 -0.3252  0.0420  0.1438
16427W        W32501  14.631   4.301  15.129  0.0347  0.0530  0.0103
16428W        W32502   3.135  15.255  12.914  0.1352 -0.0105 -0.0299
16429W        W32503   4.350   5.348  14.786 -0.2585  0.0602  0.2704
16430W        W32504   8.071   8.159  16.347 -0.2937 -0.0915 -0.0975
16431W        W32505  14.144   4.954   3.331 -0.1928 -0.2602  0.0764
16432W        W32506  18.235   8.902  15.406  0.0328  0.2682 -0.0095
16433W        W32507  11.940  11.416   4.003 -0.0701  0.0120  0.0992
16434W        W32508  12.993  11.426   2.005 -0.2943 -0.0768 -0.0466
16435W        W32509   6.235  15.160  11.858 -0.0847  0.0911  0.1839
16436W        W32510  15.492  11.512  11.751  0.3205  0.2103  0.0514
16437W        W32511   7.165  16.718  13.030 -0.0718  0.1132  0.1440
16438W        W32512  13.460   5.610   3.268  0.0507 -0.3724  0.3194
16439W        W32513  17.659   5.833   1.655  0.0579  0.2148  0.0439
16440W        W32514   8.594   8.228  11.171 -0.2723 -0.1129  0.2643
16441W        W32515   0.517   2.075  15.012 -0.3643 -0.0699 -0.1202
16442W        W32516   0.075   7.795   5.462 -0.1297  0.2681  0.0374
16443W        W32517  10.690  13.078   5.731  0.3347 -0.0622 -0.0053
16444W        W32518   1.498   9.039  15.220 -0.2306 -0.1409  0.1038
16445W        W32519   9.837  12.383   0.707 -0.1088 -0.0212  0.2680
16446W        W32520   4.347   6.747   3.774  0.0204  0.2817  0.3110
16447W        W32521  15.129  11.782   0.541  0.1744 -0.1856  0.0697
16448W        W32522   8.461   5.325   0.967 -0.0323  0.1738 -0.1139
16449W        W32523   0.688  11.396   1.746  0.0127 -0.3649  0.1126
16450W        W32524   0.649   1.029  15.233 -0.2165 -0.0612  0.0778
16451W        W32525  11.507   3.801  12.368 -0.3893  0.2326 -0.1852
16452W        W32526  15.495  17.641   3.784  0.2037 -0.2299 -0.0675
16453W        W32527  17.509   9.370  14.269 -0.2951  0.1837 -0.3176
16454W        W32528  13.630  16.154   4.487 -0.1331  0.0998 -0.0761
16455W        W32529  17.215   7.505  12.944  0.1222  0.1333 -0.1878
16456W        W32530   6.642   7.372  14.975 -0.2572  0.2000 -0.2031
16457W        W32531   8.596   8.169   1.364 -0.1058  0.1718 -0.0442
16458W        W32532   4.992  15.884  12.915 -0.0509 -0.1602  0.0244
16459W        W32533   2.785   2.451   1.724  0.0511 -0.0297  0.0042
16460W        W32534  15.365  11.585  15.615 -0.0804  0.2148 -0.2080
16461W        W32535  15.697   3.744  12.925  0.0983 -0.2410 -0.1719
16462W        W32536  11.237   9.645   4.325 -0.1576 -0.0522 -0.1026
16463W        W32537   6.845   0.568   2.382  0.1475  0.1014  0.0008
16464W        W32538   8.611   9.764   2.683 -0.0166 -0.3411 -0.0848
16465W        W32539  15.573   4.254   4.415 -0.1026 -0.1763 -0.0110
16466W        W32540   8.852  14.157   4.913 -0.0950 -0.2421  0.1399
16467W        W32541  11.917   3.233  15.745 -0.0764  0.1756 -0.0140
16468W        W32542   7.142   9.791   4.159  0.0465 -0.2257 -0.0486
16469W        W32543   6.572  16.664  11.282 -0.0298  0.0924 -0.1057
16470W        W32544   4.250  13.768  12.028  0.1552 -0.0727 -0.2097
16471W        W32545  14.602   6.212   5.144  0.0003 -0.0066  0.1987
16472W        W32546  16.960  14.176   0.876  0.0365 -0.0517  0.2151
16473W        W32547  16.230  17.510   5.988  0.0588  0.2508 -0.0866
16474W        W32548   5.517  17.217   1.405  0.1013  0.1019 -0.0292
16475W        W32549   4.745  18.322  13.132 -0.1941  0.1275  0.0983
16476W        W32550   9.131   5.387  14.668 -0.4037 -0.1323 -0.0078
16477W        W32551   4.278  17.443   0.529 -0.2552 -0.0451 -0.0332
16478W        W32552   1.612   1.534   4.913 -0.0616  0.2333 -0.2092
16479W        W32553   6.825   5.127   4.285 -0.2695  0.3909  0.2200
16480W        W32554   9.270   3.051  12.539 -0.0614  0.1649 -0.3210
16481W        W32555   2.487   9.290   2.031  0.1859 -0.1258  0.0294
16482W        W32556  17.149  14.733   4.918 -0.0527 -0.1636 -0.2934
16483W        W32557   0.101   0.378   3.596  0.2037 -0.1470 -0.5559
16484W        W32558   1.343   3.547   2.217  0.0214 -0.0989  0.0046
16485W        W32559   9.395  12.315   4.117  0.1093  0.3093 -0.0554
16486W        W32560   2.404  17.227   0.326  0.2281  0.0573  0.0248
16487W        W32561  11.001   3.812  11.392 -0.0266  0.4488 -0.1294
16488W        W32562   6.838  12.234  13.270 -0.3026  0.1850 -0.4815
16489W        W32563  12.437   5.453   0.084  0.0682 -0.0270  0.2261
16490W        W32564  16.674   2.670  13.767 -0.0127 -0.1800  0.1454
16491W        W32565   6.330  14.686   4.289 -0.1962 -0.2108  0.0666
16492W        W32566  17.305  18.271  13.245 -0.1807  0.1188  0.0960
16493W        W32567  10.324  11.226  12.290  0.1840 -0.1572 -0.0382
16494W        W32568   8.506  13.516   5.561  0.0711 -0.2226  0.1207
16495W        W32569  11.267  17.696   1.694 -0.0433 -0.0949  0.0503
16496W        W32570  16.233   3.650   3.532  0.0316  0.0585  0.4449
16497W        W32571   2.089  16.122  13.484 -0.0046 -0.1029 -0.1740
16498W        W32572   1.016  16.759   1.252  0.2667  0.1161  0.1218
16499W        W32573  14.178   2.134  15.579  0.0277  0.0867  0.0451
16500W        W32574  16.714  15.482   1.237  0.1019  0.1810 -0.0820
16501W        W32575   3.536   0.952   2.579 -0.0152  0.3211 -0.1692
16502W        W32576  17.129  17.805  12.605  0.0595  0.2898 -0.2734
16503W        W32577  11.465  17.143  14.652 -0.2722  0.1289 -0.0185
16504W        W32578   9.467   5.005   1.232  0.3239  0.2472 -0.2918
16505W        W32579   9.139   2.224   4.757  0.2193  0.2169  0.0018
16506W        W32580  13.753   4.988  11.419  0.1911  0.0582  0.2028
16507W        W32581   6.384   9.174   3.857  0.0640  0.2266 -0.0342
16508W        W32582  17.155   4.950   0.574  0.1764 -0.0147  0.0352
16509W        W32583  17.066   1.656  12.985  0.3002  0.1330 -0.0558
16510W        W32584   0.793  12.383   5.897 -0.2104  0.4557 -0.2693
16511W        W32585   4.545   2.862  14.432  0.0012 -0.2423  0.0141
16512W        W32586   1.422  14.869   2.594  0.0135 -0.2019  0.1441
16513W        W32587  14.240   1.413  15.640  0.4596 -0.1216 -0.0351
16514W        W32588   4.539   2.911  13.869 -0.4808  0.1030 -0.0271
16515W        W32589  14.163   0.900  11.278  0.4919  0.1705 -0.0317
16516W        W32590  10.818  15.988   4.455  0.0240 -0.0481  0.1008
16517W        W32591   8.622  14.545  12.094  0.1355  0.1006 -0.0910
16518W        W32592   0.269  16.136   3.126 -0.1875 -0.2287  0.1179
16519W        W32593  13.190  16.847   0.636 -0.2937  0.2470 -0.1684
16520W        W32594   0.295   7.962   4.015  0.0247  0.1357  0.1823
16521W        W32595  14.704  14.117   3.470 -0.1967 -0.0834  0.0654
16522W        W32596   8.068   8.214  15.773 -0.2677  0.0355  0.2752
16523W        W32597  16.151   8.504   2.528 -0.1295 -0.3831 -0.0772
16524W        W32598   2.035  12.820  11.485  0.2416  0.3243  0.0374
16525W        W32599   9.079   7.213   3.262 -0.0323  0.4418  0.0665
16526W        W32600  10.787   5.236  16.171 -0.0538 -0.0394  0.1547
16527W        W32601  17.893   8.545   1.493 -0.1995 -0.1666 -0.0484
16528W        W32602  17.968   3.730   2.097 -0.2221  0.0782 -0.2432
16529W        W32603   3.892  15.309  16.033 -0.1803  0.1263  0.1388
16530W        W32604  10.967   5.426   4.078  0.1728  0.0868  0.0932
16531W        W32605   5.071   2.570   0.862  0.1074  0.1624 -0.0155
16532W        W32606   3.066  17.187  13.665 -0.1494 -0.2936 -0.3319
16533W        W32607   5.240   8.685  14.933 -0.2544  0.2324  0.1970
16534W        W32608  12.071  16.430  14.027  0.1624 -0.1841  0.0875
16535W        W32609   2.913   8.154   2.951  0.2034  0.4183 -0.2061
16536W        W32610   5.352  12.232   0.196  0.0648 -0.2911  0.2052
16537W        W32611   4.400   1.648   4.423 -0.0310 -0.0801 -0.0521
16538W        W32612   7.367  10.504   5.617  0.1087  0.2305  0.2911
16539W        W32613  14.592   9.128  12.615  0.2807 -0.1267  0.1001
16540W        W32614   2.112  12.964   2.150 -0.1878 -0.2656  0.1387
16541W        W32615   7.019   3.554   5.519 -0.4037 -0.1257  0.1197
16542W        W32616   5.153   1.252   0.424 -0.1710 -0.4911 -0.1497
16543W        W32617  18.224   7.266   4.271  0.1341 -0.2066 -0.1157
16544W        W32618   4.656  10.061   4.049 -0.2694 -0.2179 -0.0368
16545W        W32619  12.625  14.706  11.476 -0.0932  0.0657  0.0074
16546W        W32620   2.945  12.674   2.375  0.2605  0.1394  0.0926
16547W        W32621  17.742  10.621   2.681  0.1452  0.1359 -0.0029
16548W        W32622  17.344   2.091  11.189 -0.0833 -0.0739  0.3333
16549W        W32623  10.094   5.966  12.635  0.0887  0.2614  0.3299
16550W        W32624   3.126  17.997  12.420  0.2468 -0.3924 -0.0456
16551W        W32625   3.197   2.327   3.449  0.0056  0.1364  0.1855
16552W        W32626   2.127   5.794  15.977 -0.0782 -0.2431  0.1931
16553W        W32627  15.430   8.149   4.340  0.1861 -0.1155 -0.1940
16554W        W32628   1.525   4.615   0.396 -0.1092  0.0938 -0.1389
16555W        W32629   3.582  11.099  13.775 -0.2461  0.3153  0.0557
16556W        W32630   0.006  17.449   1.641  0.2356  0.0523 -0.1531
16557W        W32631  10.241   1.150   2.646 -0.0721  0.1229 -0.1131
16558W        W32632   6.847   3.210  11.754  0.0880 -0.4313  0.2748
16559W        W32633  15.796   9.352   5.194  0.1061 -0.1263  0.1984
16560W        W32634   5.711   4.221  13.704  0.0076 -0.3840 -0.2296
16561W        W32635   8.944  15.220   0.635  0.3515 -0.0961  0.1974
16562W        W32636   2.219  15.091  11.751  0.1442  0.0265  0.1358
16563W        W32637   9.865  16.404  15.354  0.0575 -0.1410 -0.1167
16564W        W32638   4.039  10.349  12.999  0.5038  0.1725  0.1235
16565W        W32639   0.238  11.437  14.007 -0.3318  0.1259 -0.0093
16566W        W32640  11.120  10.206  14.365 -0.0132  0.1495  0.0347
16567W        W32641   3.214  12.911  14.963 -0.1948  0.0500 -0.1381
16568W        W32642   2.739  17.139   6.172  0.0145 -0.2324 -0.2077
16569W        W32643  12.548  10.936   4.826  0.2469 -0.2063  0.1151
16570W        W32644   4.446  16.076   1.606 -0.4082 -0.0486  0.2370
16571W        W32645   4.086   8.131   3.679 -0.1546  0.0547 -0.2783
16572W        W32646   2.139  14.973   3.171 -0.1055 -0.3428  0.7951
16573W        W32647  14.352  13.505   4.857 -0.0366  0.2363 -0.0990
16574W        W32648  16.059   7.459   4.818  0.2401 -0.2454 -0.0484
16575W        W32649   2.008   5.296  11.913 -0.0125  0.3928  0.2365
16576W        W32650   7.811   8.437   1.676  0.1828 -0.1171 -0.0449
16577W        W32651  17.070   0.554  11.831  0.0355 -0.0584 -0.0816
16578W        W32652   7.184   9.326  13.213 -0.2682 -0.2003  0.0101
16579W        W32653  12.868   2.575  15.986 -0.3065  0.0637  0.2026
16580W        W32654   7.796   3.767   4.917 -0.4491  0.0398 -0.1316
16581W        W32655   4.343   9.435   1.467 -0.1165 -0.2199  0.1240
16582W        W32656   1.348  11.923   5.488 -0.0813  0.3408 -0.2101
16583W        W32657  16.875  14.350  15.683  0.2409 -0.1040 -0.3174
16584W        W32658   3.236   7.653   0.843  0.4301  0.0733 -0.2067
16585W        W32659  14.314  11.281   2.963  0.2700  0.1089 -0.0548
16586W        W32660   3.951   8.093   1.290 -0.1221  0.0586 -0.1565
16587W        W32661  13.570   9.418  16.385  0.0923  0.1372  0.0967
16588W        W32662  13.053  15.216  13.792  0.1957  0.0165  0.0173
16589W        W32663  14.674  17.835   1.652  0.1317  0.1419 -0.5663
16590W        W32664   1.800   8.669  14.902 -0.1337 -0.0210 -0.1700
16591W        W32665  17.416  15.561  14.393  0.1501  0.1322  0.1826
16592W        W32666  17.773  13.389  15.029 -0.0630 -0.2165 -0.1363
16593W        W32667   7.925   2.242   3.071  0.3752 -0.0871  0.0387
16594W        W32668  16.956  16.990  13.119 -0.0112  0.1430 -0.0778
16595W        W32669  13.779  10.496   5.529  0.1372  0.0332 -0.1121
16596W        W32670  13.380   7.518   4.408  0.1175  0.5324 -0.0850
16597W        W32671   7.594   2.000   4.852 -0.1614 -0.1931 -0.1878
16598W        W32672   9.932  12.284   2.278 -0.0210  0.2208  0.1294
16599W        W32673  16.695   4.574   5.392 -0.0912  0.0777 -0.1788
16600W        W32674   7.346  16.482   2.636 -0.2007 -0.1028 -0.0597
16601W        W32675  15.270   4.381   5.016 -0.1580 -0.0899  0.1083
16602W        W32676   0.593   5.372   4.607  0.1107  0.2676  0.0771
16603W        W32677  14.234   7.106   3.384  0.2021  0.1438 -0.4056
16604W        W32678   3.944  13.353  14.596 -0.0133  0.0230 -0.0849
16605W        W32679   5.216  13.763   5.010 -0.1605 -0.0802 -0.1822
16606W        W32680  15.212  14.358  15.500 -0.0892 -0.2423  0.2180
16607W        W32681   2.221   4.847   3.189  0.1462 -0.2921  0.0042
16608W        W32682   4.978  11.428  13.076  0.1168  0.5161 -0.1358
16609W        W32683   0.566   7.332   1.050 -0.1879  0.1123  0.0727
16610W        W32684   3.256  10.801   2.816 -0.1013  0.2088  0.1072
16611W        W32685   7.457   1.160  13.453  0.2230 -0.0136 -0.1986
16612W        W32686   1.066   2.004   0.647 -0.1157  0.2540 -0.0055
16613W        W32687  13.753   3.140   3.128  0.2340 -0.2331 -0.0560
16614W        W32688   6.442  16.349  12.697  0.0195 -0.3023 -0.1977
16615W        W32689  16.077  11.139  14.932  0.2780  0.2393 -0.3052
16616W        W32690   8.432   2.198  14.351 -0.0312  0.0803 -0.2173
16617W        W32691   9.060  13.337   5.523 -0.0687  0.1679  0.0542
16618W        W32692   4.395  12.928  13.856 -0.0209  0.2461 -0.0216
16619W        W32693  15.637  17.952  13.413  0.1534 -0.2569 -0.0902
16620W        W32694  13.779   5.831  14.653 -0.1769  0.1481 -0.2631
16621W        W32695   4.110   0.830   1.014  0.0737  0.0818 -0.0745
16622W        W32696   5.414  11.889  14.257 -0.2091 -0.1416  0.1731
16623W        W32697   0.207   6.173   5.848  0.0188  0.0928 -0.1453
16624W        W32698   9.255   2.887   4.321  0.0638  0.2178  0.0726
16625W        W32699  16.031  14.476  15.791  0.1604  0.0910  0.0850
16626W        W32700   0.100  11.888  11.031  0.1803 -0.1658 -0.0108
16627W        W32701  16.607   7.421   5.496 -0.1030  0.1109 -0.0041
16628W        W32702   6.300  17.169   3.015  0.0882 -0.0952 -0.1357
16629W        W32703  13.502   4.681  15.118  0.0591 -0.2118  0.0002
16630W        W32704  15.708  13.981  15.145 -0.1337 -0.2737 -0.0439
16631W        W32705   7.265  12.207  12.974  0.0837 -0.0398  0.2359
16632W        W32706  18.328  16.126   2.685  0.0571 -0.2241  0.2094
16633W        W32707   1.368   5.500  14.570 -0.0644  0.2869  0.3434
16634W        W32708   3.453  10.173   2.010  0.0904 -0.0698  0.1550
16635W        W32709   4.696   9.565   2.398 -0.2330  0.1205  0.1242
16636W        W32710  13.486  12.916   4.033 -0.0081  0.0691  0.1106
16637W        W32711  13.603  12.131   1.412  0.0312  0.1029  0.2532
16638W        W32712   9.416   2.987   0.587 -0.0210 -0.1069 -0.1836
16639W        W32713   7.601  15.387   0.700  0.2821  0.1164 -0.2674
16640W        W32714   7.510   6.020   4.259 -0.2241 -0.1027  0.4054
16641W        W32715   5.955  15.263  12.848  0.1984 -0.2228 -0.0705
16642W        W32716   6.798   4.987  15.894 -0.0409 -0.0374 -0.2904
16643W        W32717   9.027   9.831  12.945  0.5522 -0.2818  0.0588
16644W        W32718  11.160   7.496   4.498 -0.0114 -0.0392 -0.0002
16645W        W32719   1.774   2.376  14.411  0.0612 -0.2219 -0.2118
16646W        W32720   1.391   7.787  15.859 -0.2039  0.1561  0.1042
16647W        W32721   5.892   5.526  15.610  0.1223 -0.3674  0.2952
16648W        W32722  16.538   1.235  11.477  0.3564  0.1040  0.1679
16649W        W32723  10.839   8.945   2.537  0.3098  0.3673 -0.2055
16650W        W32724  10.740   8.154   0.017 -0.3284 -0.0430 -0.0283
16651W        W32725   6.660  12.242   0.606 -0.1387  0.1503  0.1560
16652W        W32726   4.203   1.408   1.177 -0.2638  0.0441 -0.1874
16653W        W32727  15.840   3.177  13.678  0.2783  0.0477 -0.0796
16654W        W32728  14.765   1.833  11.606  0.2762  0.0981 -0.0966
16655W        W32729  16.142  16.891  13.255 -0.1188 -0.0747  0.2351
16656W        W32730   4.498   1.963   4.864 -0.2126 -0.3604 -0.0946
16657W        W32731   1.518   5.947  16.033  0.0156 -0.0940 -0.0496
16658W        W32732  13.413   0.275  11.229  0.1071  0.1128  0.3881
16659W        W32733   2.680   8.841   2.191  0.0076 -0.2305  0.0125
16660W        W32734   3.569   4.674   3.119 -0.0828 -0.0073 -0.0704
16661W        W32735   6.611   0.247  12.163  0.2257  0.2145 -0.1666
16662W        W32736   1.028   6.929  13.023 -0.2380 -0.0829 -0.2803
16663W        W32737  11.552   8.951   4.669 -0.1283 -0.2038 -0.2208
16664W        W32738  14.710   2.662  15.093  0.1137  0.0266 -0.0309
16665W        W32739   8.422  16.076   4.867  0.0522  0.0526  0.1258
16666W        W32740  14.870   0.280  12.961 -0.1022 -0.6641  0.1528
16667W        W32741   9.916   7.782   1.831  0.0699  0.0829  0.5754
16668W        W32742   3.120  11.249   5.056  0.0993 -0.0645  0.0762
16669W        W32743   5.970   9.451   3.743  0.1595  0.1369  0.2014
16670W        W32744   8.898  14.870   2.449 -0.2954 -0.1873 -0.1669
16671W        W32745  11.070   0.513   0.120  0.1339 -0.3652 -0.0584
16672W        W32746   8.729   7.970  13.998 -0.4149  0.0431 -0.2254
16673W        W32747   5.066   8.349   1.924 -0.0433 -0.4165 -0.1239
16674W        W32748   8.650  13.816  11.262 -0.1999 -0.0070  0.0709
16675W        W32749   9.682   1.512  10.951  0.1174  0.0645  0.3000
16676W        W32750   2.795   6.030   0.627 -0.2079  0.2593 -0.3216
16677W        W32751   1.759  10.802  13.218  0.2276  0.0335  0.1789
16678W        W32752  13.826  10.982   1.068  0.1422 -0.0273 -0.0452
16679W        W32753  15.281   3.548  15.183  0.1169 -0.1550 -0.2669
16680W        W32754  15.034  10.195   4.815  0.0795  0.0031  0.5063
16681W        W32755  12.339  12.872   4.770 -0.2112  0.2346  0.0375
16682W        W32756   5.068  17.218   0.199  0.1450 -0.0346  0.2993
16683W        W32757   9.500   0.526   0.433 -0.0207 -0.0171 -0.0267
16684W        W32758  16.640   6.427  15.312  0.0780  0.3039  0.0778
16685W        W32759  11.763   3.932  15.021  0.1449  0.1644 -0.1242
16686W        W32760  18.010  16.167  13.296  0.2869  0.3084  0.1090
16687W        W32761  12.610   0.334  15.449  0.1820  0.0941 -0.1502
16688W        W32762  15.377  12.196  16.384 -0.2919  0.0379  0.1040
16689W        W32763  17.933  10.278   0.555  0.1202  0.2097  0.0274
16690W        W32764  17.110  12.874   1.039  0.3623  0.4410 -0.1179
16691W        W32765  15.415  18.183   2.794  0.0548  0.3220 -0.0917
16692W        W32766   2.732  17.931   1.927  0.2663  0.2057 -0.2335
16693W        W32767  12.712  17.918   1.904  0.0763 -0.0955  0.0323
16694W        W32768   2.949   8.715  15.639 -0.1636  0.2776  0.0074
16695W        W32769  16.691   8.023   4.806  0.0540 -0.1131  0.2218
16696W        W32770   3.667  12.639  15.746 -0.1666  0.1114 -0.1853
16697W        W32771   6.288   9.795  12.688 -0.4364 -0.0119  0.1512
16698W        W32772  16.716  11.004   3.129 -0.0923  0.0011 -0.1327
16699W        W32773  10.895   7.049  12.149 -0.1018 -0.1328  0.3122
16700W        W32774  16.937  14.382   2.353 -0.0246  0.1140  0.0672
16701W        W32775  17.938   4.436   5.671 -0.0968 -0.2085 -0.0211
16702W        W32776   7.857   7.260   5.602  0.0187 -0.0363  0.1029
16703W        W32777   2.561  14.250   2.451  0.0325 -0.3008  0.1858
16704W        W32778   6.195  16.613  13.165 -0.1070 -0.1089  0.2155
16705W        W32779   7.153   6.332   1.694 -0.2517  0.0389 -0.0582
16706W        W32780   6.563  10.668   4.490 -0.2787 -0.2612 -0.0866
16707W        W32781   3.338  16.559   1.477  0.2906  0.1780 -0.1905
16708W        W32782   9.358   0.041   1.604  0.2598 -0.2522  0.1933
16709W        W32783  10.366   8.252   3.917  0.4155  0.2305  0.1629
16710W        W32784   5.048  12.439  10.236  0.0355  0.1028 -0.2178
16711W        W32785   1.997   0.064   1.113  0.2028 -0.0054 -0.0127
16712W        W32786  13.006   9.926  11.549  0.3151 -0.1744 -0.1836
16713W        W32787   6.828   8.621   4.778  0.0646 -0.2952  0.6382
16714W        W32788  12.562  14.877   4.672 -0.2271  0.2177  0.2431
16715W        W32789  12.551  12.845  15.375  0.3562 -0.1048  0.1740
16716W        W32790  17.589  13.776   4.135  0.2157  0.0254 -0.4680
16717W        W32791   7.569  12.858  14.426 -0.0036  0.3630 -0.2389
16718W        W32792   6.255   4.499  14.364 -0.0405  0.1463 -0.1079
16719W        W32793  11.193   8.246   0.879 -0.0208  0.0252 -0.0967
16720W        W32794   6.740   9.860   2.141  0.1492  0.0303  0.2914
16721W        W32795   6.581   7.668  16.286 -0.0878 -0.0262 -0.1216
16722W        W32796   1.978  13.899   5.710 -0.2339 -0.0743 -0.3045
16723W        W32797   2.285   6.075   5.733  0.1668  0.2065 -0.3084
16724W        W32798   1.246  12.529   4.794  0.0769 -0.0970  0.0987
16725W        W32799   2.345   3.051  16.372  0.0123 -0.0654 -0.4430
16726W        W32800   4.256   0.168   5.330 -0.1852 -0.3231 -0.5240
16727W        W32801  11.124   3.116  16.130 -0.1900  0.2696  0.1734
16728W        W32802   3.404   2.236   2.526  0.2417  0.0300  0.2721
16729W        W32803   5.892  17.806  16.123  0.1394 -0.0998  0.0685
16730W        W32804   1.242  11.033   1.001  0.1082 -0.1034 -0.0056
16731W        W32805   1.854   9.883   4.831  0.0614 -0.1328 -0.1266
16732W        W32806   3.321   9.570  13.912  0.1506  0.4051 -0.0526
16733W        W32807   5.206  16.424   0.504 -0.0502 -0.0259  0.0764
16734W        W32808  14.761   3.925   0.043  0.1701  0.0633  0.1121
16735W        W32809   0.188  11.658   4.807  0.2296  0.0978  0.3863
16736W        W32810  10.484  14.732   0.330 -0.3061  0.1604  0.0887
16737W        W32811  14.123   4.989  12.804  0.1029  0.2008  0.0685
16738W        W32812  16.082   4.526   5.534 -0.1535  0.3132 -0.1239
16739W        W32813  17.232   1.598  11.044  0.0550 -0.1125  0.1236
16740W        W32814  16.582   7.615   3.162  0.0138 -0.0963 -0.0766
16741W        W32815   8.092   4.338  13.986 -0.2648 -0.3891  0.1407
16742W        W32816  17.334   9.373   2.586 -0.1508  0.4342 -0.2103
16743W        W32817   1.586   7.162  15.213  0.0548  0.0517 -0.1756
16744W        W32818  10.739  10.405   4.739  0.0874  0.1039  0.1662
16745W        W32819  11.814   2.888  11.529 -0.0725 -0.3351 -0.1436
16746W        W32820  14.767   7.567   3.181 -0.0738 -0.2156 -0.0530
16747W        W32821   9.482   5.953   3.456  0.0103  0.1632 -0.0630
16748W        W32822   0.071  10.704  12.737  0.0718 -0.1583  0.1509
16749W        W32823  17.936   7.824   5.225  0.1234  0.0570 -0.0795
16750W        W32824  16.270   0.313   1.855 -0.0294 -0.0624  0.1426
16751W        W32825  12.938   1.018  11.794 -0.5022 -0.1469  0.3229
16752W        W32826  17.465   4.259   6.354 -0.1223 -0.1158  0.0668
16753W        W32827  18.104   9.818   0.215 -0.0252  0.1867  0.0184
16754W        W32828   4.264   7.447   4.727 -0.1312  0.0225  0.3344
16755W        W32829   4.434  11.835  12.518 -0.2107 -0.1451 -0.0611
16756W        W32830  13.065   6.355  12.807  0.2837  0.0475 -0.3084
16757W        W32831  18.070  15.284   1.012  0.3051  0.1036 -0.1603
16758W        W32832  13.432   2.117  14.749  0.1728 -0.2037  0.2079
16759W        W32833  16.888   1.079  14.778 -0.2746 -0.1178 -0.0366
16760W        W32834  11.643   0.166  12.848 -0.2545 -0.0934  0.1814
16761W        W32835   1.012   4.026   3.900  0.1023  0.0615 -0.3088
16762W        W32836  18.190  10.351  12.346  0.1754  0.0509 -0.1243
16763W        W32837   6.451   8.745  11.762 -0.1411  0.0271 -0.1540
16764W        W32838   6.117   1.541  14.327  0.5894 -0.1313  0.1357
16765W        W32839  15.371   4.538  16.124 -0.2307 -0.0858 -0.2372
16766W        W32840   5.284  15.994   5.465  0.1677  0.3224 -0.2174
16767W        W32841   0.311   0.671   2.786 -0.0266  0.0307  0.3862
16768W        W32842   3.725  10.116  11.961  0.0138 -0.0788  0.3082
16769W        W32843   3.257   3.720   1.057  0.0749 -0.0790  0.0204
16770W        W32844  10.924  17.688  12.516  0.2273  0.0865  0.2859
16771W        W32845  15.352  10.573  13.502  0.0588  0.1025  0.0344
16772W        W32846  11.789  13.999   4.470 -0.0360  0.1163  0.0944
16773W        W32847   4.956  14.595   5.085  0.3565 -0.4649  0.1920
16774W        W32848  11.193   6.742  10.374 -0.1322  0.1461  0.1627
16775W        W32849   6.845  15.387  14.345 -0.0756 -0.0535  0.0985
16776W        W32850   8.461   5.672  11.148  0.1691 -0.1070 -0.1244
16777W        W32851   6.903   3.924  11.088 -0.1982 -0.0303  0.0691
16778W        W32852   0.128   8.784   2.791 -0.3413 -0.2674  0.0322
16779W        W32853   2.915   5.786  15.178 -0.1064 -0.2664  0.3658
16780W        W32854   7.651   8.206  15.334 -0.0545  0.0050  0.0232
16781W        W32855   2.368  12.305  12.035  0.1666 -0.3604  0.1728
16782W        W32856   3.645   9.211  15.473  0.0208 -0.4446  0.0284
16783W        W32857  16.251   8.357   3.710  0.1406 -0.4222 -0.4582
16784W        W32858   3.628   1.281   0.525 -0.2896  0.2215  0.1586
16785W        W32859   2.254   8.424  10.533 -0.0215 -0.4073  0.0543
16786W        W32860  17.501  15.613   2.576  0.0905 -0.1974 -0.3239
16787W        W32861  14.917   9.381  13.492  0.0293  0.2047  0.0452
16788W        W32862   3.914  14.371  12.990 -0.0506  0.0655  0.0367
16789W        W32863   8.457  17.336   5.590 -0.3464 -0.2641 -0.1260
16790W        W32864   5.105  10.414   2.459  0.2027  0.2543  0.0004
16791W        W32865   8.157   2.591  16.189 -0.4224  0.1415  0.1997
16792W        W32866  14.806   6.048  13.157  0.1695  0.1965  0.2922
16793W        W32867   6.854  14.318  14.698 -0.0294  0.0226 -0.2229
16794W        W32868   4.852  16.394   3.674  0.1297  0.1305 -0.0335
16795W        W32869   3.807  17.660  14.170 -0.0996 -0.0109  0.0270
16796W        W32870   5.371  11.462   0.914 -0.0644  0.1994 -0.3443
16797W        W32871   8.532  16.579   1.979 -0.0837  0.1532 -0.0236
16798W        W32872   3.435  13.766   0.096  0.0432  0.3689 -0.1480
16799W        W32873  17.732   4.252  15.718 -0.0210 -0.0077 -0.0781
16800W        W32874   9.820  17.000  12.509  0.1425  0.1608 -0.0339
16801W        W32875   8.580   9.799  13.215 -0.0890  0.2673  0.2047
16802W        W32876  14.360   3.162   0.884 -0.1526  0.1246 -0.0753
16803W        W32877  17.008  15.076   1.394  0.2268  0.1092  0.1336
16804W        W32878   3.248  12.612   1.168 -0.0123  0.4362 -0.2973
16805W        W32879   5.147   4.504  11.792  0.0423  0.3534  0.0713
16806W        W32880  16.013   5.160   3.405 -0.0159  0.3541  0.1497
16807W        W32881   7.116   1.237   2.533 -0.1422 -0.1909 -0.3664
16808W        W32882   5.437   4.015  12.287 -0.0084  0.0973  0.0630
16809W        W32883   4.948  10.688   0.505 -0.0421  0.1215  0.0928
16810W        W32884  15.848  14.511  11.508 -0.2557  0.1481  0.3400
16811W        W32885   9.399   6.620   2.241  0.1208 -0.1295 -0.0262
16812W        W32886  11.378   8.580  11.431  0.3267 -0.0444 -0.1657
16813W        W32887   8.565  10.845  12.213  0.1006  0.1119  0.3931
16814W        W32888   3.687   3.202  14.884  0.0019  0.2641  0.1634
16815W        W32889   7.260  12.827   0.889  0.2164  0.1245 -0.0201
16816W        W32890  10.538   7.758  16.117  0.1449 -0.1741  0.2661
16817W        W32891   1.109  17.915   1.041  0.0938 -0.1810 -0.2098
16818W        W32892  18.010  14.795  14.137 -0.2749 -0.1561  0.1964
16819W        W32893  17.676  14.296   4.912  0.1310  0.0283 -0.2076
16820W        W32894   6.010   6.007   4.634 -0.2070 -0.0591 -0.2486
16821W        W32895   8.450  15.705  10.987  0.0613 -0.3470 -0.0932
16822W        W32896   9.008  10.315  12.679  0.2962 -0.1264 -0.1287
16823W        W32897  16.893  13.642   0.575  0.3790  0.2524 -0.0120
16824W        W32898   4.032  18.315   3.475 -0.2432 -0.3296  0.0761
16825W        W32899  17.259  10.677   4.617 -0.3253 -0.1136 -0.0647
16826W        W32900  10.448  11.177  14.255  0.3922 -0.0503  0.0783
16827W        W32901  18.084   5.638  12.960  0.2416 -0.2842 -0.2492
16828W        W32902  13.047   5.503  12.591  0.4404 -0.2207 -0.1783
16829W        W32903   9.033   4.566   4.710  0.2227 -0.1429  0.1025
16830W        W32904  11.919   9.405  15.985  0.1089  0.2074 -0.1225
16831W        W32905  12.481  11.139   3.005 -0.0830 -0.1733  0.0358
16832W        W32906   5.148   9.398  14.712 -0.3101 -0.1431 -0.1534
16833W        W32907  11.312   0.540   1.024  0.1906  0.1985  0.0653
16834W        W32908   6.557   8.761   0.849 -0.3703  0.1158  0.1204
16835W        W32909   3.949  14.599   3.384  0.1622 -0.2324  0.0806
16836W        W32910  10.363  11.102   5.312 -0.3421 -0.2326  0.0923
16837W        W32911   1.754  14.661   4.534 -0.0891  0.0685  0.1803
16838W        W32912   7.085   2.996  12.190 -0.0877 -0.0227  0.3553
16839W        W32913   5.520  12.569   3.432 -0.1614 -0.1780  0.2127
16840W        W32914  12.590  16.490  13.962  0.1036 -0.1252  0.1549
16841W        W32915   0.707  17.657   4.415 -0.0215 -0.0256 -0.4155
16842W        W32916   8.800   9.233  15.871 -0.0426  0.1828  0.0943
16843W        W32917  10.993  11.602   2.591 -0.4310 -0.2640 -0.0084
16844W        W32918   5.624   9.413  14.320 -0.1677  0.1061  0.3020
16845W        W32919   7.119   1.747   2.422 -0.2709  0.1483 -0.0243
16846W        W32920  14.783   3.669   1.034 -0.0135  0.2043 -0.1481
16847W        W32921   9.259   6.597   1.692 -0.0744  0.1559  0.4124
16848W        W32922  15.688   1.283  11.897 -0.2059  0.0706 -0.0433
16849W        W32923  10.035   3.325   9.692  0.2206  0.0484  0.1589
16850W        W32924   9.605  10.008  11.943  0.0965 -0.1625 -0.0714
16851W        W32925   6.164  14.198   3.541 -0.2601  0.2713 -0.2118
16852W        W32926   7.732   2.639  14.233  0.0787 -0.1005 -0.1319
16853W        W32927  11.771   4.837  12.696 -0.1285  0.4060 -0.1900
16854W        W32928  11.405   3.815  13.168  0.2212  0.0686 -0.0499
16855W        W32929   6.689  15.618   2.846 -0.1010 -0.0093  0.2963
16856W        W32930   0.160  11.852   2.381  0.2651 -0.0925  0.1600
16857W        W32931  10.786   7.180   4.429  0.2426 -0.2609  0.4257
16858W        W32932   3.517   2.755  12.090  0.1981  0.0079 -0.0636
16859W        W32933  11.333   8.247   2.650 -0.0432  0.1689  0.3107
16860W        W32934  12.364   8.077  12.156  0.0235  0.0462 -0.1465
16861W        W32935  13.937   5.474   0.437  0.0246 -0.0096  0.2183
16862W        W32936   3.122   6.612  15.566  0.1675  0.3945 -0.0156
16863W        W32937  17.222   8.409  16.122 -0.0011  0.5383 -0.2365
16864W        W32938  11.249  17.081  12.917  0.0186  0.1438 -0.3741
16865W        W32939   9.480  13.544   1.283  0.0185 -0.0765  0.1337
16866W        W32940   7.109   6.450  12.145  0.2255  0.1583 -0.0073
16867W        W32941   1.383  16.290  16.199  0.2658 -0.2139  0.2583
16868W        W32942  15.851  10.888   2.435 -0.2814 -0.0554 -0.1987
16869W        W32943  17.270   4.293  15.890  0.1109 -0.1265 -0.1723
16870W        W32944  17.014  10.900  13.712 -0.1438 -0.2285 -0.1498
16871W        W32945   2.897  14.367  14.835  0.0285  0.1399 -0.0216
16872W        W32946  15.946  10.175  16.099 -0.1566 -0.0117  0.0476
16873W        W32947   1.322  11.395  15.134 -0.0936 -0.1328  0.0352
16874W        W32948   7.739  15.868  11.235 -0.1522  0.2182  0.1357
16875W        W32949   6.753   2.405   2.021 -0.1812  0.0554 -0.2074
16876W        W32950   7.495  14.161  13.564 -0.1913 -0.1702  0.2655
16877W        W32951  11.788  11.131  13.807 -0.2132 -0.0082 -0.1943
16878W        W32952   7.921   3.254   1.235 -0.3564 -0.2104 -0.1266
16879W        W32953  13.938   1.116   5.196 -0.0909  0.1590  0.2425
16880W        W32954  17.568   0.233   4.579 -0.0726  0.1013 -0.0903
16881W        W32955  10.482  12.391  16.033 -0.2347  0.3975  0.2574
16882W        W32956  15.295   5.524  15.335 -0.4497 -0.1846 -0.1745
16883W        W32957   2.066   0.713   0.014  0.3341  0.3792 -0.0971
16884W        W32958   7.992   6.233   4.319  0.1084  0.0786  0.1168
16885W        W32959  16.252  18.277   2.784 -0.3697  0.0869  0.3438
16886W        W32960   5.790  10.053   6.137 -0.2456  0.2561  0.0267
16887W        W32961   7.106  13.316  15.512  0.2682 -0.1408 -0.1212
16888W        W32962  16.305  14.820  15.645 -0.1058  0.0079  0.1819
16889W        W32963  13.607   1.497   4.935  0.1730  0.2839 -0.2037
16890W        W32964   8.091   5.961  12.422  0.0082 -0.0912  0.0680
16891W        W32965   1.554  16.596   1.247 -0.1612  0.0061  0.0821
16892W        W32966  12.972  16.747  14.281  0.0152 -0.0023 -0.3842
16893W        W32967  14.229   0.699   1.659 -0.2330  0.0063  0.0212
16894W        W32968  14.642   8.106   5.610  0.1017  0.3674 -0.0609
16895W        W32969  15.558  14.918   5.846 -0.2447  0.0147  0.0605
16896W        W32970   1.857  13.644   2.118 -0.0080 -0.1178 -0.2535
16897W        W32971   4.728  14.900  13.760  0.0729  0.2728 -0.1667
16898W        W32972   8.330  13.771   6.458  0.1094  0.1187  0.1260
16899W        W32973  15.526   8.294   5.543 -0.0059 -0.1215  0.0641
16900W        W32974  14.655  12.310   3.040 -0.0698  0.0027 -0.0076
16901W        W32975  10.777  12.924   5.184  0.1218 -0.3087 -0.0678
16902W        W32976   7.049  14.014   4.690  0.2099 -0.2988  0.1319
16903W        W32977  17.147   9.560   2.143  0.4028 -0.0952  0.2886
16904W        W32978   7.720  16.095   4.715 -0.2196 -0.2365 -0.0086
16905W        W32979   1.413  12.261  11.525 -0.2992  0.2072 -0.1261
16906W        W32980   5.928  18.070  11.768  0.0358 -0.1712 -0.4893
16907W        W32981   1.233   5.122  12.418  0.1501  0.1999 -0.0920
16908W        W32982   9.469  11.068   5.139  0.4826 -0.2268  0.5225
16909W        W32983   3.220   7.090  15.611  0.1467  0.0119 -0.1745
16910W        W32984  17.127   6.222   5.022 -0.1771 -0.1662 -0.0059
16911W        W32985  10.140  14.684  12.041 -0.0645  0.1979 -0.0722
16912W        W32986  12.127   4.913  13.502 -0.0474 -0.0182 -0.1221
16913W        W32987  13.494   6.260   1.693 -0.0364  0.1184  0.2126
16914W        W32988  14.568  17.683  11.624 -0.0404  0.0721 -0.2305
16915W        W32989  17.132   5.988  13.753  0.3690 -0.0426 -0.2404
16916W        W32990   5.672   6.968  12.812  0.0904 -0.3181 -0.0216
16917W        W32991   6.503  15.496  11.615 -0.2988  0.0758  0.1252
16918W        W32992  17.476   8.793  13.645 -0.0470 -0.0233 -0.1648
16919W        W32993  11.345  13.941   2.024 -0.1037 -0.4016 -0.1430
16920W        W32994   9.206  14.869   1.685  0.2435 -0.1538 -0.1995
16921W        W32995   0.075   8.104   3.177 -0.0992 -0.1615  0.1231
16922W        W32996   0.149  15.516   0.859  0.0424 -0.0657  0.2733
16923W        W32997  17.335   7.878  11.806 -0.3095 -0.1410  0.1483
16924W        W32998  10.894  11.864   5.260  0.1950 -0.0245 -0.3193
16925W        W32999  13.433   7.438   3.844 -0.1171 -0.1565  0.1558
16926W        W33000   0.010   7.021   2.013 -0.0761  0.1256  0.3516
16927W        W33001  13.752   7.203   0.210 -0.0931 -0.2682 -0.0820
16928W        W33002   2.205   6.224  14.175 -0.1153  0.0664 -0.0264
16929W        W33003  17.124   7.900   3.594  0.1479  0.1909  0.1190
16930W        W33004   4.885  11.355  16.223 -0.1034 -0.0628 -0.0422
16931W        W33005   0.062   3.039   3.394 -0.3524  0.2787  0.0817
16932W        W33006   7.901   5.567   5.777  0.0331  0.0997 -0.1607
16933W        W33007  14.885  15.132  13.714 -0.2639 -0.1715 -0.1992
16934W        W33008   6.742  14.291   4.062 -0.0021 -0.1429 -0.1448
16935W        W33009   4.663  12.074  11.574  0.1003  0.0737  0.0526
16936W        W33010   9.567  10.739  11.511 -0.0399  0.2559  0.0292
16937W        W33011   3.297  13.516  13.757  0.3009  0.0367  0.0832
16938W        W33012   5.565   5.268  11.903 -0.2322 -0.1326  0.1569
16939W        W33013  17.517  16.075   4.592  0.2479 -0.2268  0.0678
16940W        W33014   5.395   6.700  15.211  0.0399 -0.2707 -0.0315
16941W        W33015  16.356  10.718  12.736  0.0787 -0.0645 -0.1163
16942W        W33016   1.125   5.627  16.287  0.1379  0.3146 -0.0450
16943W        W33017  17.459  11.010  12.748 -0.1442 -0.0989  0.0150
16944W        W33018  13.856  13.737  15.603  0.0037 -0.3018 -0.0864
16945W        W33019  14.225   2.506  15.138  0.0813 -0.2708  0.0383
16946W        W33020  12.398   9.208   1.607 -0.2624 -0.0586 -0.2212
16947W        W33021   9.648  14.489  12.159 -0.0055 -0.1318 -0.0682
16948W        W33022   4.341  13.468  13.951  0.3694  0.0139 -0.0294
16949W        W33023  17.048  10.322  15.429 -0.1113 -0.1637 -0.1036
16950W        W33024   1.529  10.281  16.186 -0.0175 -0.1881  0.2751
16951W        W33025  12.587  15.674   5.354 -0.0129  0.2894 -0.0718
16952W        W33026  14.765   6.273  11.431 -0.0570 -0.1154 -0.1073
16953W        W33027  10.792  11.621   1.029 -0.1080  0.0895  0.4332
16954W        W33028   5.342  11.492  14.630  0.1955 -0.0307 -0.1085
16955W        W33029   5.503   8.556   2.098  0.0413 -0.0210 -0.1568
16956W        W33030   5.615   2.987  16.333  0.0673  0.1478  0.0943
16957W        W33031  17.803  13.881  13.798  0.3746  0.0566 -0.2998
16958W        W33032   1.814   0.339  13.274 -0.0855  0.0889  0.0082
16959W        W33033   5.758  15.899  11.675 -0.0740  0.0462  0.0362
16960W        W33034   6.948  16.215  11.307  0.2104 -0.0085 -0.0052
16961W        W33035  11.410   2.386   3.314  0.0373 -0.2916  0.0900
16962W        W33036  10.385  17.448  14.836 -0.0250 -0.0513  0.0363
16963W        W33037   1.097  17.957   3.344 -0.0330 -0.0946 -0.1787
16964W        W33038   1.405   4.087   5.312  0.1706  0.3352 -0.0521
16965W        W33039   7.566   1.942   1.158 -0.0514  0.0232 -0.3715
16966W        W33040   4.938   3.036  15.670  0.1330  0.0172 -0.1097
16967W        W33041   9.794   3.528  14.193 -0.1117  0.3137  0.1675
16968W        W33042  15.245   2.562   1.721 -0.0799 -0.1344  0.2275
16969W        W33043   1.061   1.222   1.436  0.0600 -0.0499  0.1709
16970W        W33044  12.852   0.585  13.983  0.1399 -0.1089  0.2167
16971W        W33045  17.175  10.639  12.573  0.3481 -0.0406 -0.0020
16972W        W33046   0.467  10.488   5.126  0.3413 -0.0676  0.0809
16973W        W33047  10.624  14.566   1.409 -0.0673  0.1046  0.0910
16974W        W33048   2.128  18.119  14.627  0.1867  0.1512  0.4298
16975W        W33049  14.754  18.120  13.904  0.3424 -0.0691 -0.0842
16976W        W33050  14.391   1.144  13.338 -0.3283  0.0688 -0.1669
16977W        W33051  16.428  16.823  16.161  0.0499 -0.3079 -0.0594
16978W        W33052   1.068   8.666  15.991  0.1820 -0.0022  0.1261
16979W        W33053  17.943   5.512   5.722 -0.1998  0.0038  0.0334
16980W        W33054  16.427   0.875  14.029  0.1706  0.1783 -0.0281
16981W        W33055  15.671   9.762   5.967 -0.2114 -0.2046 -0.1561
16982W        W33056  17.037   6.420   3.692  0.0170 -0.0247  0.1105
16983W        W33057  15.115  12.095   3.254 -0.0988 -0.1812 -0.1232
16984W        W33058   4.721   9.562   5.134  0.0057 -0.0100  0.2891
16985W        W33059   7.408   4.919  11.922 -0.0823 -0.1197 -0.1370
16986W        W33060   7.022   3.697   0.622 -0.0640 -0.0412 -0.2084
16987W        W33061  17.175   3.043   4.847  0.1003  0.0532  0.2063
16988W        W33062  11.115  17.831   0.271 -0.0116  0.2349 -0.0072
16989W        W33063  10.428  11.621   5.295 -0.1089  0.2736  0.0899
16990W        W33064   2.919   4.668  13.917 -0.3703 -0.2595  0.1149
16991W        W33065   6.757  17.136   0.079  0.1888 -0.1072 -0.0209
16992W        W33066   1.686  13.810   2.646  0.0852  0.0542 -0.0264
16993W        W33067  13.755   9.141  11.633 -0.0876  0.1062  0.0518
16994W        W33068   2.712  10.556   1.416  0.0653  0.0577  0.2460
16995W        W33069   9.892   7.986  14.067  0.1977 -0.0324  0.2690
16996W        W33070   4.412   1.056   0.008 -0.1062  0.1691  0.1083
16997W        W33071  15.170   0.243   0.697  0.1281 -0.0124  0.1553
16998W        W33072  10.367  16.143   4.661 -0.1304  0.1181 -0.1693
16999W        W33073  16.607  16.615  15.491  0.1955  0.0832  0.1692
17000W        W33074  12.029   9.402   0.684 -0.0112 -0.0337 -0.0488
17001W        W33075  10.166  16.999  11.512 -0.0538  0.1057  0.0942
17002W        W33076  16.667  10.332   5.393  0.0113  0.1229  0.0376
17003W        W33077   4.546   8.765  12.304  0.2391 -0.0219 -0.0790
17004W        W33078   4.569   4.567   5.176 -0.0111 -0.1266  0.1284
17005W        W33079   6.473  14.175  12.648  0.0299  0.0359  0.2899
17006W        W33080  12.651   3.540   3.872 -0.0412 -0.1919  0.1713
17007W        W33081   3.017   8.539  11.381  0.1521  0.2355  0.1863
17008W        W33082   5.681  16.356   1.861  0.3499 -0.1671  0.2415
17009W        W33083   5.551   5.699  15.897 -0.3623 -0.0709 -0.1180
17010W        W33084   0.286  13.929   0.773 -0.2490 -0.0021 -0.2561
17011W        W33085   6.535   7.129   4.687  0.0284  0.3627 -0.0813
17012W        W33086   4.608  14.090   3.247 -0.0788  0.4159  0.0971
17013W        W33087  14.513  17.404   6.343 -0.0869  0.3832  0.0854
17014W        W33088   9.455   9.547  12.188 -0.5290  0.1542  0.0518
17015W        W33089  13.213  14.426   2.926 -0.1680  0.1106  0.1344
17016W        W33090   1.359  15.993   5.605 -0.0430  0.0004  0.3121
17017W        W33091   9.422  18.125   4.033  0.1744 -0.2696 -0.1026
17018W        W33092   0.851  13.177  15.259 -0.0407 -0.2043  0.1780
17019W        W33093   5.252   0.743  16.062 -0.0867  0.0598  0.1157
17020W        W33094   2.448  10.115   2.535 -0.2295  0.2072 -0.0490
17021W        W33095   9.419   5.541   1.567  0.2001  0.1311 -0.0154
17022W        W33096   3.726  17.009  14.132  0.2240  0.0997  0.2541
17023W        W33097   9.815  17.676   3.510  0.1139  0.1704 -0.0943
17024W        W33098  11.316  11.001  15.784  0.0366 -0.1419 -0.0913
17025W        W33099   9.927   9.372  14.012 -0.3162  0.0247  0.2858
17026W        W33100   9.575   1.250  15.738  0.0217  0.1543  0.1787
17027W        W33101  11.029   9.330  13.046  0.1704  0.2793  0.1384
17028W        W33102   0.808  13.522  13.002 -0.3665  0.1584  0.1300
17029W        W33103   3.133   3.952   2.713 -0.1129 -0.0328 -0.0855
17030W        W33104  15.015  15.922   4.753 -0.3056 -0.2079  0.1205
17031W        W33105   6.453  16.151   2.208 -0.2954  0.1075 -0.0144
17032W        W33106   4.675   2.594   2.997 -0.0128 -0.3949  0.0254
17033W        W33107  13.397   9.353  15.706 -0.2691 -0.1677 -0.1391
17034W        W33108  11.173   2.150   2.823  0.0194  0.0908  0.1183
17035W        W33109   1.066  16.980   0.829  0.0055 -0.0844  0.2969
17036W        W33110  16.665   7.983  16.180  0.2595  0.0060 -0.0152
17037W        W33111  10.689   3.661   0.067  0.4103  0.1854  0.2615
17038W        W33112   8.381  16.847  10.824  0.3542  0.4135  0.1177
17039W        W33113   6.078   6.396   5.039  0.2596 -0.1272 -0.1360
17040W        W33114   7.915   6.869  12.065 -0.3507 -0.2152  0.0810
17041W        W33115  16.301   7.313  12.207 -0.1027 -0.0755  0.1053
17042W        W33116   6.350   4.522  14.998 -0.0843  0.0199  0.0229
17043W        W33117  10.129   7.187  11.042  0.3185  0.1142 -0.1244
17044W        W33118  17.958  16.691   3.926 -0.1705  0.0697 -0.0140
17045W        W33119  18.301  11.443   1.141  0.0419  0.1362  0.0032
17046W        W33120  13.873   8.282  15.743 -0.1205 -0.0731 -0.0627
17047W        W33121  10.997   7.215  16.216  0.0319 -0.0350 -0.2450
17048W        W33122   8.173  11.361  12.881  0.0758 -0.0822  0.0816
17049W        W33123   6.521  11.423   4.252 -0.1963 -0.0172 -0.0991
17050W        W33124  18.248   5.209  15.300 -0.0396  0.0930  0.2066
17051W        W33125   4.232  13.328  15.597  0.2037  0.0012 -0.1243
17052W        W33126   3.208   5.369  15.094  0.0399  0.1994 -0.2824
17053W        W33127   5.140  17.473  14.546  0.4534 -0.1330  0.1588
17054W        W33128   9.607  10.739   2.754  0.2468 -0.2396  0.0022
17055W        W33129   3.074  17.579  12.143 -0.3727 -0.1585  0.0498
17056W        W33130   7.485   0.562  13.701 -0.1462  0.0697  0.3107
17057W        W33131  18.185   0.497  16.393  0.0112 -0.2256 -0.1371
17058W        W33132   5.580   7.900   0.950 -0.0590 -0.0804  0.1395
17059W        W33133   7.125   0.335  12.031  0.2540  0.0576 -0.0165
17060W        W33134  17.035   3.348   1.497 -0.3302  0.3910  0.0934
17061W        W33135   6.997  11.020   0.305  0.1009 -0.1100  0.4243
17062W        W33136  18.113  13.701   0.828  0.1888  0.1905  0.1715
17063W        W33137   1.224  16.386  14.678  0.0181 -0.0007 -0.1857
17064W        W33138  11.796   6.985  14.694  0.5005  0.1874 -0.4138
17065W        W33139  16.777   0.900   3.175  0.1292 -0.0178 -0.3117
17066W        W33140  14.650   0.538   1.873 -0.0900  0.2772 -0.1285
17067W        W33141   8.465   2.119   1.746  0.0902  0.1402  0.2132
17068W        W33142  17.147  16.048   5.087 -0.2455  0.1993  0.2540
17069W        W33143  10.607   9.303   3.469  0.2904  0.0578 -0.2583
17070W        W33144   3.023   4.623  13.062 -0.0085  0.2559 -0.1603
17071W        W33145  15.755  11.444   1.558  0.1316 -0.0222  0.1722
17072W        W33146   3.820  10.354   1.788 -0.0771 -0.1290 -0.4077
17073W        W33147  13.531   1.761  12.532 -0.0238 -0.0577  0.0704
17074W        W33148   8.536  11.236   2.288  0.2207 -0.0339 -0.0383
17075W        W33149  14.106   4.723  13.243 -0.0519 -0.2384  0.2901
17076W        W33150  13.827   5.442   5.002 -0.1613  0.0930 -0.1175
17077W        W33151   1.694   2.255  12.144 -0.1089 -0.0023  0.1517
17078W        W33152   0.124  14.712   5.090  0.0750  0.3953 -0.0839
17079W        W33153   5.916  14.172   1.317 -0.2293 -0.1901  0.0976
17080W        W33154   4.766  16.080   5.883 -0.0312  0.2538 -0.0826
17081W        W33155   0.082   2.473   5.698 -0.0128  0.0150 -0.0525
17082W        W33156  14.992   7.121  14.294 -0.0919  0.0909  0.0567
17083W        W33157  13.268   4.866   3.841 -0.0738 -0.0672 -0.2477
17084W        W33158   9.059   0.236  16.069  0.1668  0.1289  0.3042
17085W        W33159   4.891  12.971  13.793 -0.0657  0.2939  0.2062
17086W        W33160   2.293   0.597   3.377 -0.1057 -0.0511 -0.5895
17087W        W33161  12.199   8.241   2.203 -0.2720  0.1288  0.0872
17088W        W33162   6.206   6.010   2.279  0.1401 -0.1826 -0.1155
17089W        W33163   7.341  15.635  15.332  0.1781  0.1305 -0.1418
17090W        W33164  12.453  14.786   2.180 -0.0100  0.3792  0.1514
17091W        W33165   1.061   7.520   5.154  0.2327 -0.4319 -0.0300
17092W        W33166   9.143  10.927  13.648  0.2146 -0.3378  0.1064
17093W        W33167  14.872   8.988  12.197  0.3956 -0.2257  0.0675
17094W        W33168   9.225  11.263   1.224 -0.1756 -0.2092 -0.2324
17095W        W33169   7.224  11.571   2.609  0.0585  0.1828  0.5253
17096W        W33170   5.707   2.240   4.891 -0.0374 -0.0352  0.1306
17097W        W33171  17.702   0.418  13.375  0.0006 -0.1013  0.1383
17098W        W33172   8.810   3.748   3.900 -0.1134 -0.0868 -0.0480
17099W        W33173  16.086  10.124  14.720  0.5195 -0.1672  0.2256
17100W        W33174   1.857   8.742  13.171 -0.1070 -0.0992 -0.1760
17101W        W33175   0.662   0.455   3.109  0.0307  0.0391 -0.3307
17102W        W33176   2.455   1.839  15.542 -0.1590 -0.3463 -0.0937
17103W        W33177  18.126   4.836   1.501  0.1464  0.3239 -0.1077
17104W        W33178  11.673   2.717  10.527  0.2836 -0.0315  0.1340
17105W        W33179   7.998  15.064   2.655 -0.2876  0.0890  0.0403
17106W        W33180   5.378   9.549  11.153  0.4879  0.1145  0.0324
17107W        W33181  12.769  13.859   5.223  0.0176  0.1036  0.2490
17108W        W33182   9.445   5.535   2.641  0.1394  0.3194 -0.0498
17109W        W33183   7.956   6.019  10.960  0.1756 -0.1149 -0.1635
17110W        W33184  17.969   3.206   1.078  0.0444  0.2438 -0.3336
17111W        W33185   9.105   2.528  14.424  0.0348 -0.3397  0.2928
17112W        W33186  13.318  15.975   0.009 -0.2386 -0.1671  0.0685
17113W        W33187  15.206  15.149   0.506 -0.3649 -0.0752  0.0148
17114W        W33188   6.502  16.703   0.854 -0.1254  0.0213  0.1490
17115W        W33189   1.756  17.958  14.927  0.1264  0.0391 -0.1414
17116W        W33190  11.440   2.087  14.906  0.1370  0.0566 -0.2478
17117W        W33191  17.653   7.001   4.202  0.1740 -0.0009 -0.1339
17118W        W33192  12.248   6.151  14.931  0.2458 -0.1001 -0.1325
17119W        W33193   0.687   2.855   3.529  0.0557  0.2638 -0.0187
17120W        W33194  14.182  13.517   3.484 -0.2484 -0.2356  0.2858
17121W        W33195  10.446  15.809  14.880  0.1096  0.2635 -0.0516
17122W        W33196   3.592  12.381  14.198 -0.0790 -0.1620  0.0915
17123W        W33197   2.991   7.980   2.458  0.0189  0.2325 -0.0844
17124W        W33198   9.375  15.816   4.383  0.2715 -0.0373 -0.0358
17125W        W33199   3.417  11.645   3.005 -0.0699 -0.4155 -0.0579
17126W        W33200   2.100   8.566  11.096  0.0571  0.0752  0.1452
17127W        W33201   8.116   6.009  13.792 -0.2582  0.0871 -0.0231
17128W        W33202  12.613  12.578  14.937 -0.0138  0.2432  0.3873
17129W        W33203  12.277  13.766   5.200 -0.0208 -0.0534 -0.0146
17130W        W33204   5.637  12.810   1.591  0.1748 -0.2346  0.0709
17131W        W33205   4.064   3.411  11.487  0.0209  0.0720 -0.3559
17132W        W33206   0.246  10.322  13.818 -0.3113  0.1270  0.1411
17133W        W33207   4.744   2.052  15.030 -0.0137 -0.0728  0.2699
17134W        W33208   9.401   9.951   4.552 -0.2276 -0.4960 -0.0074
17135W        W33209  11.172   3.925   5.925 -0.2403 -0.0245 -0.0117
17136W        W33210  16.310   8.551   4.755  0.2024  0.1015 -0.0663
17137W        W33211  13.503  12.182  15.444 -0.0569 -0.1504  0.1397
17138W        W33212   3.537  13.516  11.288  0.0444 -0.0787  0.0302
17139W        W33213   9.999   2.427  12.188  0.2679 -0.0972 -0.3490
17140W        W33214  10.350  10.600   5.384 -0.3659 -0.0193  0.1041
17141W        W33215  15.883   5.118   0.522  0.0466  0.0052 -0.1240
17142W        W33216   8.723  13.590  16.302  0.0690 -0.2255 -0.1971
17143W        W33217   0.894   1.365   4.094  0.2322 -0.1132  0.0015
17144W        W33218  17.610   8.600   2.086  0.3066  0.1423 -0.0500
17145W        W33219   8.751  17.937  12.912  0.1791  0.0525 -0.1281
17146W        W33220   2.208  16.756  11.474  0.2894  0.2632  0.1659
17147W        W33221  17.948  16.978  11.968 -0.0913  0.1813  0.3031
17148W        W33222   3.627   4.494   4.287 -0.1892 -0.0001 -0.0898
17149W        W33223   3.039  18.171   3.933 -0.0858  0.0158 -0.0655
17150W        W33224  18.041  15.431  12.304  0.1401 -0.1058  0.0246
17151W        W33225  11.355   9.866  14.805 -0.0550 -0.1186  0.1374
17152W        W33226   3.759  17.958  13.656 -0.0489 -0.2009  0.4425
17153W        W33227  11.196  12.634   4.332 -0.0328 -0.1683  0.0873
17154W        W33228  15.755  10.778  15.360 -0.0578  0.3051  0.0053
17155W        W33229   1.224   2.942   1.032 -0.0073 -0.0597 -0.0328
17156W        W33230   4.055  17.193   1.245 -0.0653 -0.0752  0.1698
17157W        W33231  15.488   4.480  14.305 -0.2263 -0.1141  0.3887
17158W        W33232   6.866  17.585  15.224  0.0957  0.2071  0.1077
17159W        W33233   3.142  10.742  15.521  0.1365  0.2125  0.0520
17160W        W33234   3.099   9.480  15.105 -0.0437 -0.1691  0.1051
17161W        W33235   7.938   9.412  11.623  0.4179  0.2599 -0.2209
17162W        W33236  14.470   0.823  11.686 -0.2912  0.1412 -0.2870
17163W        W33237   7.473   3.730  13.477 -0.1069 -0.2982  0.0860
17164W        W33238  14.260  11.494   5.063  0.0883 -0.1008 -0.1441
17165W        W33239   5.155   8.250  11.087  0.0653 -0.0170  0.0569
17166W        W33240  16.624  16.950   4.499  0.0193  0.0635 -0.2497
17167W        W33241  14.665   7.058   3.122 -0.0589 -0.0999  0.0524
17168W        W33242   1.160   8.084   4.433 -0.0198 -0.1338  0.2480
17169W        W33243  17.835   9.428   3.188  0.0852 -0.3151 -0.1207
17170W        W33244  11.784  13.866  11.950  0.1464 -0.2570  0.2005
17171W        W33245   8.703  11.329   2.795 -0.1738  0.1779  0.1815
17172W        W33246  12.989   4.509  14.759  0.1361 -0.0477  0.0897
17173W        W33247   9.445  12.475   3.321  0.2796  0.3638  0.1674
17174W        W33248   4.663   7.290   5.001  0.0779  0.1818 -0.0922
17175W        W33249   8.122   5.359  16.302 -0.2181  0.2476 -0.0837
17176W        W33250  15.148  17.068  11.734 -0.1473  0.4193 -0.0772
17177W        W33251   6.866  12.187   1.947 -0.2088  0.0244 -0.4005
17178W        W33252  11.497   4.393  14.997 -0.0596  0.3496  0.0109
17179W        W33253   3.591   0.119   2.528  0.0671  0.1078  0.1375
17180W        W33254   1.842   6.163   1.284 -0.0337 -0.2331  0.1503
17181W        W33255  11.102   6.746   0.559  0.1484  0.2476  0.0018
17182W        W33256  12.146  15.039  15.224  0.1036 -0.0586 -0.0438
17183W        W33257   8.815   5.696   5.106 -0.1661 -0.0289 -0.0450
17184W        W33258  12.727  13.243   4.399  0.3815 -0.2129  0.3359
17185W        W33259   1.501   8.150  13.620 -0.2815 -0.0341  0.0889
17186W        W33260   6.610   7.285   4.121  0.1623  0.0106  0.0361
17187W        W33261  14.786   9.284  15.061 -0.2863  0.1990  0.1904
17188W        W33262   5.993   9.665  11.943 -0.0055 -0.4530 -0.1398
17189W        W33263   1.833  14.767   3.699 -0.2047  0.0534  0.1595
17190W        W33264  10.480   4.325   0.097 -0.2190 -0.4394  0.1730
17191W        W33265   2.673   1.921  14.470 -0.1991 -0.1433 -0.0551
17192W        W33266  18.208  11.155   1.533 -0.1666  0.0659  0.0533
17193W        W33267  16.708   5.854   1.980  0.0767  0.3351 -0.2794
17194W        W33268   6.176   6.168  12.302  0.1781  0.1692  0.0442
17195W        W33269  17.623   2.130   6.788  0.3750 -0.0027  0.0102
17196W        W33270  16.247   6.655   0.335 -0.2606 -0.2078 -0.0780
17197W        W33271   8.075  12.935   3.233  0.2869  0.3626  0.1948
17198W        W33272  16.783   9.092  11.554  0.0762  0.0615  0.4139
17199W        W33273  14.422   1.902  12.188  0.2211  0.1203 -0.3095
17200W        W33274  11.929  15.418  13.092 -0.1840  0.3245  0.0532
17201W        W33275   0.514  10.798   0.656 -0.0555 -0.2548 -0.1310
17202W        W33276   5.416  10.347   3.082 -0.2149 -0.4040 -0.2289
17203W        W33277  14.993   7.727   0.192  0.1575 -0.1615 -0.0309
17204W        W33278   0.133   5.697   5.983 -0.3204  0.1829 -0.0346
17205W        W33279   5.605   5.201  14.611 -0.3918 -0.3304  0.0564
17206W        W33280   1.789  13.165  15.554  0.3422  0.1371  0.0071
17207W        W33281   8.993  13.601  14.367 -0.5568 -0.0698 -0.1899
17208W        W33282  13.913  10.920  15.214  0.1731 -0.4628  0.3825
17209W        W33283   2.935  13.399   0.703 -0.2259  0.0351 -0.2058
17210W        W33284   1.162   7.694  11.844 -0.0682 -0.1468 -0.1883
17211W        W33285   3.112  16.344  14.960  0.0912  0.0912 -0.0825
17212W        W33286   8.536  12.302  12.531 -0.2422 -0.1734 -0.3310
17213W        W33287  15.942   6.007  12.030  0.1953  0.1228  0.2117
17214W        W33288  15.188   7.090   4.147 -0.1929  0.3330 -0.1544
17215W        W33289   0.030  13.268   3.657 -0.2418  0.1589 -0.1103
17216W        W33290   6.522   4.379   0.902 -0.1973 -0.0877 -0.1987
17217W        W33291   2.309  17.715   0.802  0.1376  0.3473  0.1995
17218W        W33292  15.400   1.352   3.073  0.3800  0.2458 -0.1396
17219W        W33293   4.924   4.858   1.365 -0.1991  0.0354  0.0230
17220W        W33294  13.470   8.956  13.544  0.4349  0.0617  0.1241
17221W        W33295   1.214  15.316   3.926 -0.1601  0.0000 -0.0419
17222W        W33296  11.454   4.586   2.211 -0.1101 -0.1865 -0.2002
17223W        W33297   5.696  12.561  11.631 -0.2122 -0.3612  0.4315
17224W        W33298   2.290   6.794   3.458 -0.0369 -0.1350 -0.0389
17225W        W33299  16.873  11.626  11.900 -0.3664  0.1617 -0.0082
17226W        W33300  12.861   5.106   4.152  0.1367 -0.1739  0.2318
17227W        W33301   7.313  14.778   4.318  0.0134 -0.2516 -0.2868
17228W        W33302   5.646   2.582   2.609 -0.1231 -0.1703 -0.1805
17229W        W33303   7.057   7.419   4.209 -0.1012 -0.2622 -0.0557
17230W        W33304   3.701  11.736   3.772 -0.4095 -0.0524 -0.2293
17231W        W33305   1.143  14.652   5.298  0.1077  0.1463 -0.2908
17232W        W33306   3.578  10.279  13.294 -0.0571  0.3340 -0.1324
17233W        W33307   1.822   7.883   3.472 -0.1475 -0.2203 -0.1762
17234W        W33308  15.994  12.430  11.881  0.0893  0.0973  0.1492
17235W        W33309   1.938  11.207   0.284  0.0547 -0.0183  0.1977
17236W        W33310  14.733   8.013  15.298  0.0065  0.0195 -0.1437
17237W        W33311  16.745  13.265  13.527 -0.0770 -0.0743  0.2659
17238W        W33312   3.998  12.044   3.402  0.2006  0.1283  0.2570
17239W        W33313  13.978  15.158  15.291 -0.0799 -0.2316 -0.0816
17240W        W33314  17.692   6.403  11.862 -0.0221 -0.1632 -0.0859
17241W        W33315   7.149  17.452   0.209  0.0869  0.2594  0.2774
17242W        W33316  16.928  16.871  16.235 -0.2277 -0.1454 -0.0280
17243W        W33317  16.786   6.607  15.926 -0.1018 -0.1195  0.2230
17244W        W33318  12.191   5.048  16.228 -0.0420  0.0145 -0.0298
17245W        W33319  14.993   3.119  15.111 -0.0581 -0.5623 -0.2072
17246W        W33320   9.899  14.922   4.191 -0.1650  0.0958 -0.2732
17247W        W33321   5.732   5.175   2.054  0.3009  0.2976  0.1523
17248W        W33322  16.182   2.079   6.105  0.0821 -0.0966 -0.0020
17249W        W33323   9.677   3.038  11.679  0.4890  0.0822 -0.0976
17250W        W33324  11.787   0.734   1.849  0.2447 -0.0713 -0.1905
17251W        W33325  16.339   2.839   4.169 -0.1791  0.2986 -0.3738
17252W        W33326   3.534  16.713   0.657 -0.2675 -0.0882 -0.3674
17253W        W33327  13.954  16.052  15.085  0.1236  0.2292  0.1538
17254W        W33328   7.340   4.052  13.031  0.0256 -0.2289  0.0664
17255W        W33329   4.048  16.923  12.854 -0.0951  0.3239 -0.2161
17256W        W33330   9.740  18.125   1.787 -0.2644 -0.0068 -0.2900
17257W        W33331  17.812  11.613   5.641  0.0483  0.1708  0.2973
17258W        W33332   6.148   0.175   3.898  0.0068 -0.0000 -0.1109
17259W        W33333   8.108  11.366  14.908  0.2076 -0.3386 -0.3356
17260W        W33334   5.049  15.023   0.652 -0.3160  0.1509  0.1712
17261W        W33335   5.825  17.443   1.136 -0.3176 -0.0129  0.0285
17262W        W33336  17.576  12.523   1.672  0.1746  0.3066  0.2597
17263W        W33337   0.501   0.371   6.559  0.3703  0.1794  0.3058
17264W        W33338   4.747  16.349   2.783  0.0868 -0.1028 -0.0009
17265W        W33339  13.920  13.811  12.698 -0.0499 -0.0309  0.2120
17266W        W33340  15.500   2.875   4.567 -0.3071  0.1440  0.4977
17267W        W33341  16.746   5.605   0.224 -0.1147 -0.0560  0.0260
17268W        W33342  16.860   2.123  12.899  0.2214 -0.3014 -0.2115
17269W        W33343  18.158   5.878  16.352  0.2465  0.0997  0.0035
17270W        W33344  16.151  14.867   1.878 -0.2159  0.1287  0.0603
17271W        W33345  15.513   4.516  15.634  0.2648  0.1071  0.1314
17272W        W33346  12.452  10.092   1.725  0.1228 -0.2291  0.2105
17273W        W33347   8.530  11.671  12.717  0.0874  0.4062 -0.1161
17274W        W33348   3.490  16.239  16.374  0.3373  0.2874  0.0238
17275W        W33349  18.058   3.900   3.059  0.3954 -0.1519 -0.0343
17276W        W33350   2.617   2.293   0.257 -0.1056 -0.1497 -0.2331
17277W        W33351   6.568   8.145  14.412  0.1551  0.1966 -0.3878
17278W        W33352  17.912   4.956   4.469  0.0292 -0.0143 -0.1115
17279W        W33353  15.082   7.854   3.422  0.2771 -0.2426 -0.1622
17280W        W33354  10.395  16.934   3.250  0.1716 -0.1842 -0.1872
17281W        W33355   8.223  14.270  11.884  0.0295  0.1682 -0.2146
17282W        W33356  10.132  14.200   2.051  0.1233  0.0482 -0.1299
17283W        W33357  13.126   2.893  11.105 -0.3470 -0.1985  0.1253
17284W        W33358  10.656  10.930   2.520  0.2640 -0.2194 -0.1727
17285W        W33359   0.209   9.699   2.466  0.0897  0.1542  0.0205
17286W        W33360   0.846  14.861  12.131 -0.2106 -0.0925  0.1811
17287W        W33361  17.763  17.647  12.655 -0.1766  0.0961 -0.1729
17288W        W33362   0.364   7.024   5.546  0.0153 -0.0588  0.0117
17289W        W33363   9.940  15.282   4.749 -0.1885 -0.1551 -0.0191
17290W        W33364   7.080   7.769  14.895 -0.5073 -0.1837 -0.1099
17291W        W33365   5.594   4.542   2.349 -0.2069 -0.0573  0.0605
17292W        W33366   1.121  14.512  12.970  0.0803 -0.1182  0.0325
17293W        W33367   2.177   4.758   1.534 -0.1724 -0.1044  0.1687
17294W        W33368   8.371  17.769   0.721  0.0547  0.0919 -0.1347
17295W        W33369  13.526  18.013   3.216 -0.1149  0.1040 -0.1650
17296W        W33370   8.700   8.168  15.443  0.0868  0.1275 -0.2430
17297W        W33371  10.855   2.232   4.019  0.1519 -0.0473  0.1127
17298W        W33372  13.694  17.609  11.756  0.0414  0.2556 -0.0792
17299W        W33373   3.412  16.134  11.582 -0.0979  0.1595  0.0808
17300W        W33374  12.916  13.817  13.931 -0.2219 -0.2188  0.0589
17301W        W33375  14.604   6.874   2.026 -0.0660 -0.4647 -0.0614
17302W        W33376  18.230   2.556   1.270  0.2377  0.0196  0.3412
17303W        W33377  16.996   6.323  12.033  0.1746  0.1370  0.1605
17304W        W33378   5.663   4.390   0.300  0.0384  0.2059 -0.0273
17305W        W33379  10.435  16.866   2.318 -0.0620  0.0594  0.1036
17306W        W33380  17.831   5.661   1.177  0.0713 -0.2584  0.1222
17307W        W33381   0.605   2.318  13.116  0.2421  0.0556 -0.3562
17308W        W33382   0.715   8.181   4.005  0.0987 -0.2110  0.2476
17309W        W33383   7.300   6.055   5.288 -0.0177  0.1638 -0.0191
17310W        W33384   8.581   3.128  13.259 -0.1438 -0.0812  0.0345
17311W        W33385  15.620   5.399  14.365  0.4000 -0.0372  0.1587
17312W        W33386   7.385   4.214   3.332  0.0285 -0.1010  0.0502
17313W        W33387  11.335   1.438   2.255 -0.3965 -0.1991  0.0881
17314W        W33388   5.977   9.167   0.396 -0.4022  0.0167  0.0910
17315W        W33389   5.395  16.609   3.576 -0.1050  0.0767  0.1635
17316W        W33390   9.291  15.409   2.574  0.0250  0.1355 -0.0780
17317W        W33391   3.267   7.443  13.674  0.1132  0.2238  0.3713
17318W        W33392   8.296  10.093   4.768 -0.1141 -0.0837 -0.0024
17319W        W33393  12.485   6.370   0.996  0.6007  0.0594  0.2882
17320W        W33394  11.220   2.453  15.533 -0.2029  0.0546 -0.0686
17321W        W33395  12.620   7.266  13.418 -0.1012 -0.0458  0.1683
17322W        W33396   2.312   7.890  15.384 -0.1439  0.2229 -0.1106
17323W        W33397   5.869   3.274  11.127  0.0258  0.1835 -0.1487
17324W        W33398  18.037   7.457   2.503  0.1189 -0.0079  0.6216
17325W        W33399   5.254   1.396  13.860 -0.2552 -0.1303  0.1388
17326W        W33400   5.887   6.855   5.421 -0.0770 -0.1795  0.0725
17327W        W33401   8.099  15.328  15.589  0.2441  0.0682 -0.0356
17328W        W33402  10.493   4.500  11.014  0.0594 -0.3261 -0.1325
17329W        W33403   8.700  11.486   3.673 -0.3834 -0.2067 -0.0105
17330W        W33404   4.815   4.001   0.719 -0.5051  0.0205 -0.1235
17331W        W33405  17.297  12.461   4.916 -0.1143  0.1112 -0.0471
17332W        W33406   1.081   9.754   2.203  0.1863  0.1807 -0.4824
17333W        W33407  15.277   1.045   3.508 -0.1652 -0.0917  0.3303
17334W        W33408  17.686  12.914  13.826  0.0542 -0.2275 -0.1562
17335W        W33409   0.415   7.806   5.789  0.2030 -0.0716  0.0813
17336W        W33410  17.822   1.968  12.443 -0.2095  0.3384  0.1811
17337W        W33411  13.813   8.705   2.751 -0.0257 -0.3756  0.0635
17338W        W33412   9.526  13.264   3.759 -0.1685  0.1499  0.1893
17339W        W33413   5.911   4.744   4.195 -0.3158  0.1303 -0.0040
17340W        W33414  15.496   0.541  14.006 -0.0440  0.1579 -0.0368
17341W        W33415   6.716  10.313  16.164  0.1491  0.1435 -0.0216
17342W        W33416  12.206   4.917   0.765 -0.0088  0.1479  0.0391
17343W        W33417   0.660  12.238  13.670 -0.2091 -0.0977  0.1830
17344W        W33418  17.714   0.133   2.428 -0.0782 -0.1069 -0.0333
17345W        W33419   6.486   7.673  12.812 -0.1226  0.2057 -0.2580
17346W        W33420   5.875  16.855   2.841  0.1646 -0.1985  0.1697
17347W        W33421   4.433  11.356   2.562 -0.1365  0.0136 -0.2676
17348W        W33422   9.726   4.015  13.139  0.0599  0.3441  0.0619
17349W        W33423   4.483   1.693   0.756 -0.1020  0.1852  0.2340
17350W        W33424  11.305  16.929  15.098  0.2050 -0.6306 -0.1409
17351W        W33425  15.443   3.826  11.939  0.1300 -0.0244 -0.2804
17352W        W33426   1.843   4.398   2.366  0.1530 -0.0435  0.2389
17353W        W33427   4.040  18.005  16.116 -0.0075  0.0182  0.0166
17354W        W33428  11.404   3.160   0.709 -0.0943 -0.0535 -0.2080
17355W        W33429   2.437  14.556  14.562 -0.1998 -0.0137 -0.1297
17356W        W33430   9.547   3.836  14.541  0.2954  0.5619 -0.1727
17357W        W33431  13.869  17.189   5.162  0.2028  0.0403 -0.1034
17358W        W33432   4.832  13.474  14.108 -0.2778 -0.0960 -0.0284
17359W        W33433  16.027   7.973   1.252  0.0209  0.1270  0.0549
17360W        W33434   3.858   7.551  13.378  0.0083  0.0072 -0.2821
17361W        W33435  14.482  18.302   4.750 -0.1410 -0.0547 -0.0655
17362W        W33436   5.441   7.160   0.537  0.2246  0.0336  0.2116
17363W        W33437   6.315   1.204   0.583 -0.0640  0.4717  0.0043
17364W        W33438   8.054   2.905   0.096 -0.0615  0.2455 -0.4613
17365W        W33439   9.042  16.518   4.619  0.0692  0.0221  0.1867
17366W        W33440   3.270   1.453  15.858 -0.3130 -0.0888 -0.0805
17367W        W33441   2.492  13.233  12.824  0.2117 -0.0588 -0.1174
17368W        W33442   7.271   5.290  14.652 -0.0581  0.0124 -0.1297
17369W        W33443  11.411  14.082   3.188  0.0235 -0.1270 -0.0588
17370W        W33444   0.345  13.455   6.256  0.0795  0.0628  0.0474
17371W        W33445   0.690   1.353   0.139 -0.0938 -0.1559 -0.0351
17372W        W33446   1.005  11.774   1.008  0.1248 -0.1100 -0.0146
17373W        W33447  16.612  11.166  12.685  0.2185 -0.3805  0.4038
17374W        W33448   7.265   0.314   0.446  0.2338 -0.3144  0.0536
17375W        W33449  15.663   6.018  11.585  0.4749 -0.0429  0.3866
17376W        W33450   4.137   0.179   4.254 -0.0961 -0.3899 -0.0168
17377W        W33451  17.575  10.867  15.819 -0.0804 -0.2368 -0.1452
17378W        W33452   4.910   5.823  15.809  0.0854  0.2151 -0.0541
17379W        W33453  11.721   6.858  15.639 -0.1750 -0.0588  0.1935
17380W        W33454  14.507   9.037  13.420 -0.0263 -0.1304 -0.2047
17381W        W33455   8.982  12.659  13.848  0.0160  0.0143 -0.2516
17382W        W33456   8.617   5.804   3.823 -0.3004  0.1465 -0.0945
17383W        W33457   8.207  13.806  14.423 -0.1350  0.0012  0.1396
17384W        W33458  12.949   6.231   3.185 -0.2988 -0.2006 -0.1037
17385W        W33459   7.055   2.297   0.177  0.3710  0.0354 -0.0708
17386W        W33460   3.005  14.469  16.173 -0.3095 -0.1256 -0.0915
17387W        W33461   8.201   4.212  13.490 -0.3178 -0.2584  0.3321
17388W        W33462   8.767  17.140  11.029  0.0627  0.0226 -0.0891
17389W        W33463   1.942  11.070  11.781 -0.2222  0.0715 -0.0703
17390W        W33464   8.155   4.439  11.333  0.2419  0.0836  0.0543
17391W        W33465  11.134   2.239   0.307 -0.1277 -0.1979 -0.0094
17392W        W33466  14.493   9.746   1.738 -0.0185  0.2270  0.0637
17393W        W33467   2.319  15.763   0.705 -0.0674  0.1451  0.0596
17394W        W33468  11.404  12.783   1.536  0.1989 -0.0740 -0.2986
17395W        W33469  11.783   1.271  15.604 -0.0214  0.1049 -0.2233
17396W        W33470   2.104   2.305   5.276  0.1963 -0.0897 -0.0257
17397W        W33471  15.323  10.444  12.930 -0.1666 -0.0002 -0.0127
17398W        W33472  16.800  10.504   4.519  0.0814 -0.0685 -0.1595
17399W        W33473  17.487   7.332  15.949 -0.2567 -0.1473 -0.0243
17400W        W33474  14.436  16.034  14.878 -0.1539 -0.2787 -0.0318
17401W        W33475   1.042   8.182  13.082 -0.2793  0.2098 -0.0678
17402W        W33476  13.727  15.138   2.345  0.2275 -0.1214 -0.1885
17403W        W33477  17.391   2.434  11.752 -0.1398  0.3515 -0.0805
17404W        W33478   5.149  12.615   5.405 -0.0224  0.1363 -0.1350
17405W        W33479  15.669   5.632   2.232  0.0611  0.0487  0.0491
17406W        W33480   0.573  14.883  11.578  0.3153 -0.1716  0.4134
17407W        W33481   9.617  11.999   4.468 -0.1939 -0.0778 -0.0990
17408W        W33482   6.964   0.230   5.452  0.0727  0.2271  0.4345
17409W        W33483  12.357   0.125  12.784 -0.0662  0.1307  0.1181
17410W        W33484  13.296   3.911  14.068  0.0566  0.2839  0.0584
17411W        W33485   6.184   7.547  11.297  0.1583  0.1457 -0.1776
17412W        W33486   9.864   2.831  11.243 -0.4200 -0.0910  0.3640
17413W        W33487  11.946  16.878   4.169 -0.1214  0.2147  0.3179
17414W        W33488   9.176   7.689   3.547 -0.1110 -0.3082 -0.2794
17415W        W33489   9.405   5.943   3.990  0.0386 -0.2311 -0.0292
17416W        W33490   6.684  14.209  15.614 -0.2003  0.1714 -0.1953
17417W        W33491   5.663   6.282   4.473  0.1435 -0.1616 -0.1989
17418W        W33492   2.798  15.440   0.870  0.0738  0.1708 -0.0537
17419W        W33493  14.024  15.947   1.863  0.3276 -0.0049 -0.3731
17420W        W33494   1.713   0.892   6.510 -0.0546  0.3242  0.0226
17421W        W33495  15.105   6.879   1.323 -0.2923 -0.1682 -0.2111
17422W        W33496   7.850  11.094  11.645  0.4529 -0.3794  0.0916
17423W        W33497   7.509  15.572   1.725  0.2965 -0.3970 -0.1568
17424W        W33498   2.781  11.781  16.190  0.1917  0.0254 -0.3069
17425W        W33499   0.620  15.493   2.577 -0.0593 -0.0527 -0.2808
17426W        W33500   0.325  14.176   4.394 -0.1650 -0.0965 -0.1819
17427W        W33501   2.695  14.097  15.945  0.0656  0.0637  0.2618
17428W        W33502   3.266   7.458   4.637  0.0797 -0.1459  0.2069
17429W        W33503  14.019  14.672  14.054  0.0332 -0.1141 -0.1363
17430W        W33504   3.915  15.878   3.778 -0.0355 -0.1414 -0.0610
17431W        W33505  10.393   1.237  13.262 -0.0413 -0.3098 -0.1475
17432W        W33506  14.122   3.114   0.426  0.0078 -0.0869 -0.2725
17433W        W33507   7.723   3.172  14.920  0.3642  0.0783  0.1932
17434W        W33508  11.037   3.422   1.673 -0.1029 -0.0363  0.2610
17435W        W33509   5.880  14.464  12.766 -0.2857  0.0488 -0.0979
17436W        W33510  14.222   1.849   2.302  0.0519  0.3605  0.2643
17437W        W33511   0.935  15.204  12.496 -0.1621  0.4725 -0.1137
17438W        W33512   1.408  15.397  13.940 -0.1499 -0.1203  0.0771
17439W        W33513  14.369   9.639   5.267 -0.2618 -0.0260  0.2910
17440W        W33514   0.602  17.552  14.147  0.0254  0.0291  0.2290
17441W        W33515  17.195  14.992  15.209  0.3368  0.2009  0.2442
17442W        W33516  14.941   7.810  16.062  0.0744  0.1823 -0.2466
17443W        W33517   1.696  17.409  16.196 -0.3357 -0.5012  0.1361
17444W        W33518  17.762   4.348   2.792  0.0551  0.0163  0.0623
17445W        W33519   5.476   0.005  12.149 -0.0165  0.2294 -0.4576
17446W        W33520   2.458   9.133  13.896 -0.1406 -0.0573 -0.1752
17447W        W33521  10.230   5.398   2.347 -0.3523  0.0310  0.0670
17448W        W33522   1.858  15.160  15.950 -0.1504 -0.2560  0.2201
17449W        W33523  15.787   2.402   1.372 -0.1710  0.0924  0.1268
17450W        W33524  14.848   4.919  11.821  0.1162  0.0672 -0.1408
17451W        W33525   5.058  17.277   1.726  0.1155 -0.0435 -0.1496
17452W        W33526  12.548   5.779   5.565 -0.1736 -0.0288 -0.1712
17453W        W33527   8.783  11.300  13.983  0.1353 -0.2613 -0.1734
17454W        W33528   4.087   2.690  10.824 -0.0737  0.2086 -0.1899
17455W        W33529   5.036  17.395   2.722 -0.0098 -0.0123  0.3343
17456W        W33530  16.146  11.620  12.061 -0.2692  0.1639 -0.2560
17457W        W33531   7.632  11.140   2.541  0.1724 -0.2123  0.1571
17458W        W33532  15.012   4.169  13.257  0.0569  0.1017 -0.0898
17459W        W33533  13.678   9.761   4.519 -0.1719 -0.1436  0.4300
17460W        W33534  10.441  10.761  13.178  0.1693  0.1152  0.2058
17461W        W33535  11.669   4.577   4.608  0.1850  0.1857 -0.1195
17462W        W33536   8.389   0.907  13.653  0.4047  0.0003  0.0011
17463W        W33537   3.160  10.590  13.101 -0.1391  0.2021  0.1192
17464W        W33538   3.725   8.661   5.198 -0.1878 -0.3258 -0.2958
17465W        W33539  17.389   3.866  14.977  0.0116 -0.1587  0.0637
17466W        W33540   1.477  12.955  14.668 -0.2466  0.1527 -0.1743
17467W        W33541   9.192   3.983  10.621 -0.0367 -0.5176  0.0763
17468W        W33542  15.993   5.127   1.058  0.0796 -0.0689  0.0193
17469W        W33543   5.409  15.218   2.279  0.0453  0.1682 -0.0922
17470W        W33544   6.482   7.766   2.799 -0.1085 -0.1667  0.0273
17471W        W33545   8.933   8.188  14.947 -0.3156  0.1365 -0.2254
17472W        W33546   3.599   5.740   3.717  0.2235  0.1171 -0.1867
17473W        W33547  13.425  13.241   4.712  0.1073  0.1362  0.0237
17474W        W33548   9.208   9.380  12.944  0.1422 -0.2861 -0.0057
17475W        W33549   9.884   5.859   4.206 -0.3447 -0.1820  0.0595
17476W        W33550  10.721   4.384  12.058 -0.1934 -0.0536  0.4639
17477W        W33551   0.960   9.927   3.834 -0.2195  0.0817  0.0412
17478W        W33552  13.687  14.788  15.048  0.0763 -0.4195 -0.2348
17479W        W33553  17.264   0.922   4.047 -0.1085 -0.1183  0.0647
17480W        W33554  10.989   8.223  14.563 -0.2430  0.0246 -0.1039
17481W        W33555   8.491   2.795   4.377  0.0429 -0.1356 -0.4082
17482W        W33556  11.896  13.680  15.384 -0.1862  0.0420  0.2383
17483W        W33557  16.485  10.822  14.791  0.1262  0.0368  0.2470
17484W        W33558   5.401   5.437  15.493 -0.4218  0.2621  0.1214
17485W        W33559   8.782  17.352   2.567  0.1803  0.1792 -0.0317
17486W        W33560  15.790   9.612   4.239 -0.1256  0.1830 -0.2420
17487W        W33561   3.313  13.571  13.254  0.2028  0.0474  0.2904
17488W        W33562   2.742  16.698  14.136 -0.0817 -0.0920  0.2374
17489W        W33563  13.624   4.355  13.869  0.3348 -0.0477  0.2042
17490W        W33564   0.871   5.440   5.061  0.0168  0.2905  0.0277
17491W        W33565  12.215  10.529   5.510  0.5619  0.1109  0.1653
17492W        W33566   2.462  16.859  14.509  0.2078  0.2325  0.1019
17493W        W33567   8.971   0.580  14.649  0.0743  0.0692  0.4446
17494W        W33568  13.271   3.894  10.979  0.0622 -0.0035  0.0946
17495W        W33569   3.481  11.552   5.722 -0.0429  0.1231  0.3473
17496W        W33570  14.276  13.392  15.212  0.3241 -0.2157  0.4792
17497W        W33571   6.478   6.267  15.808 -0.0513 -0.2565  0.0488
17498W        W33572   9.165   8.481  12.562 -0.3182 -0.2569 -0.2589
17499W        W33573  16.745   3.308   3.550 -0.0850 -0.1815  0.1061
17500W        W33574   6.056   8.683   0.941  0.0863  0.0475  0.3296
17501W        W33575  11.563  17.972  15.258 -0.1369 -0.3375  0.2317
17502W        W33576  17.503  18.250   0.549  0.0589  0.2938 -0.1437
17503W        W33577  18.044   7.808   0.080 -0.1788  0.0717  0.2241
17504W        W33578   8.393   4.757   2.954 -0.0071  0.2163 -0.0831
17505W        W33579  16.850  12.741  11.875  0.0240  0.1029 -0.0223
17506W        W33580   3.383  12.953   5.619 -0.0145  0.0441  0.2385
17507W        W33581   7.199   0.163   3.609 -0.0186  0.2082  0.2483
17508W        W33582   3.264  16.788   1.915 -0.3068  0.0630 -0.1157
17509W        W33583  11.142   8.613  13.039 -0.0652 -0.0197  0.2358
17510W        W33584  13.762  10.818  14.161 -0.0130 -0.0509  0.1706
17511W        W33585   4.965  18.220  10.830  0.0719 -0.0516  0.0317
17512W        W33586  12.308  14.641  15.394 -0.2747 -0.0084  0.1646
17513W        W33587  17.672   1.124   1.537  0.2128  0.2110 -0.0270
17514W        W33588  12.140  15.738   4.385  0.1291  0.1625  0.2215
17515W        W33589   3.984  18.136   5.230 -0.1300  0.3488 -0.1972
17516W        W33590   8.970   4.383  14.651 -0.1582 -0.0746 -0.0710
17517W        W33591   4.611   7.743   5.053  0.0542  0.0997 -0.1009
17518W        W33592   5.142   2.327   4.909 -0.2033 -0.2650  0.0385
17519W        W33593  11.167  17.091  13.865 -0.0065 -0.0421 -0.2065
17520W        W33594   1.544   8.970   5.349  0.1887  0.1794 -0.1758
17521W        W33595  17.475   6.491  15.063  0.2399 -0.1003 -0.0600
17522W        W33596   0.981   3.697  14.408  0.0339 -0.0397  0.5105
17523W        W33597  13.258   3.079  15.880 -0.0310  0.1464 -0.2575
17524W        W33598  10.173   7.435   3.566  0.0395  0.0259 -0.0301
17525W        W33599  10.475   6.159  14.689  0.1256  0.1040  0.3624
17526W        W33600   2.553  13.086   3.432 -0.0579  0.3120  0.3037
17527W        W33601  13.540   9.193   1.804  0.0323  0.1096  0.1879
17528W        W33602   6.260   2.513  11.551 -0.2246 -0.0773  0.1415
17529W        W33603   4.216  15.815   1.029 -0.1283  0.2346 -0.2757
17530W        W33604  15.885   6.228  15.798  0.1291 -0.2340  0.2033
17531W        W33605   2.309  16.107   3.530  0.2963 -0.1001 -0.2505
17532W        W33606  13.226   6.660   0.561  0.1842  0.1498  0.0232
17533W        W33607   7.489   2.910   1.162  0.2709  0.4104 -0.0026
17534W        W33608   1.899  17.071   3.360 -0.0198 -0.1464  0.1942
17535W        W33609   4.156   4.355  11.605  0.1908  0.2981 -0.0782
17536W        W33610  12.984  10.961  13.049  0.0149  0.4724  0.1180
17537W        W33611   7.184  15.518   3.610 -0.0403 -0.1036 -0.2820
17538W        W33612   4.274   9.459   5.484  0.2602  0.0499  0.3901
17539W        W33613   6.728   0.405  13.983 -0.0896  0.2814  0.0762
17540W        W33614   7.229  17.918  13.677  0.3558 -0.0734  0.0445
17541W        W33615   5.449   1.917  11.622 -0.0260  0.0713  0.0753
17542W        W33616  15.115   5.689   0.217 -0.0064 -0.2788  0.2626
17543W        W33617   2.847  12.876  12.733 -0.2513  0.1039 -0.0243
17544W        W33618  11.011   2.905   5.709 -0.1837 -0.0914 -0.1187
17545W        W33619   0.831   9.817   5.538 -0.1628  0.0190 -0.3222
17546W        W33620   1.782   4.485   0.917  0.1588 -0.1289 -0.0044
17547W        W33621  12.038  12.713   3.856 -0.0007  0.0565  0.1019
17548W        W33622   8.569   7.260  12.569 -0.0631  0.0230  0.1095
17549W        W33623   9.765   5.423   5.098  0.0168  0.0993 -0.1983
17550W        W33624   3.076   5.448   1.348  0.2465  0.3106  0.0507
17551W        W33625  17.795  12.978  11.538 -0.0313  0.1626  0.0565
17552W        W33626   4.007  10.555   1.020 -0.1673  0.0756 -0.1358
17553W        W33627   5.623  13.825   4.659  0.1871  0.0452 -0.0560
17554W        W33628   0.906   6.758   3.524  0.0765  0.0604  0.0811
17555W        W33629  17.122   9.155  15.777 -0.2560 -0.2174 -0.3309
17556W        W33630   7.565  10.152  11.460 -0.2010  0.0807 -0.0531
17557W        W33631  10.590  17.066   2.784 -0.0307 -0.1298  0.0633
17558W        W33632  14.472   5.660  13.034  0.2409 -0.3506  0.1073
17559W        W33633  17.177   8.769  12.546  0.2295  0.0940  0.0899
17560W        W33634   2.828   0.907  14.712 -0.1842 -0.1037 -0.1583
17561W        W33635  11.863  13.996  14.394 -0.2321 -0.1084 -0.1033
17562W        W33636  15.656  14.732  12.414 -0.0542  0.1410  0.1728
17563W        W33637   8.018  17.004  13.637 -0.1250 -0.1407 -0.4232
17564W        W33638   6.502   6.009  11.914  0.0443  0.1615  0.0129
17565W        W33639  10.379  13.857   5.169 -0.0498 -0.1047  0.3747
17566W        W33640  17.248   9.754   0.952 -0.0946  0.3601  0.7174
17567W        W33641   8.114  14.028  15.259  0.2877 -0.2719 -0.2865
17568W        W33642   1.848   1.631  14.457  0.0516  0.4824 -0.0099
17569W        W33643  11.390  15.396  11.500  0.1104  0.0303  0.2641
17570W        W33644   7.624   1.563   1.838  0.0710 -0.1717 -0.1429
17571W        W33645   1.896  10.565   4.900  0.0675 -0.0675  0.3817
17572W        W33646  12.104   7.741   6.257  0.0431  0.1222  0.0034
17573W        W33647   4.432  12.119   5.178  0.1104 -0.3610 -0.0298
17574W        W33648  16.514   0.952   0.965 -0.1752 -0.2614 -0.2772
17575W        W33649   5.547  11.024  15.800  0.2777  0.3023  0.2200
17576W        W33650  17.647   9.594   2.082 -0.1817  0.2115  0.0018
17577W        W33651   8.992   5.627   1.175  0.4468 -0.1643 -0.0135
17578W        W33652   5.985   7.681   2.601  0.2137 -0.0588  0.1880
17579W        W33653   2.225  12.202   3.411  0.1755 -0.0783  0.1921
17580W        W33654  15.704   8.390  11.784 -0.0064 -0.3252  0.3554
17581W        W33655   7.449   5.617   3.170  0.0963 -0.2699 -0.1385
17582W        W33656  16.427   5.912   5.741 -0.0725 -0.1856 -0.0193
17583W        W33657   1.236  10.953  15.312 -0.0208  0.0420  0.1394
17584W        W33658   7.069   6.708   3.929  0.2779 -0.0414 -0.0532
17585W        W33659   1.130  15.408   2.308  0.3146  0.0005 -0.1359
17586W        W33660  18.056  13.229  16.150 -0.2629  0.0939 -0.0122
17587W        W33661   0.011   4.190  14.222  0.0329 -0.0364  0.0129
17588W        W33662   8.333  14.922   1.815 -0.3740  0.0551 -0.0611
17589W        W33663   4.515   4.888   2.787 -0.0187 -0.0958  0.1700
17590W        W33664  15.011  13.115  15.940 -0.2728  0.1441  0.1004
17591W        W33665  13.407  14.462   1.227 -0.0521  0.2298  0.1985
17592W        W33666   5.757   8.083  14.447 -0.0819 -0.3228 -0.3120
17593W        W33667  14.842  12.028  12.665 -0.0847 -0.1591 -0.2370
17594W        W33668  16.415  16.267  14.768 -0.0128  0.1110 -0.1054
17595W        W33669  17.436   2.998   1.665  0.0995  0.1057 -0.0147
17596W        W33670  16.412   4.296   0.130  0.0206 -0.0512 -0.1827
17597W        W33671   9.057  11.270  14.424 -0.4908 -0.1090 -0.0065
17598W        W33672   7.948   0.156  11.859  0.1242 -0.0455  0.0635
17599W        W33673  11.852   2.509  16.053 -0.3096  0.0069 -0.0344
17600W        W33674  16.488  11.025  16.337  0.4325  0.1112  0.1532
17601W        W33675   2.608   5.149   5.250 -0.0138 -0.0856  0.0167
17602W        W33676  11.731  17.883   2.848  0.1212 -0.0417 -0.1048
17603W        W33677   9.927   6.086  14.626  0.2578 -0.4008 -0.1572
17604W        W33678   0.344  11.911  11.522  0.1272 -0.0868 -0.1721
17605W        W33679  13.099   3.057   4.102  0.1433 -0.1051 -0.1749
17606W        W33680  13.640   0.551  12.392  0.1121  0.1261  0.0978
17607W        W33681  18.060   4.673  15.879 -0.0066 -0.3239  0.0429
17608W        W33682   4.703  12.339   4.718 -0.0869 -0.0782  0.3727
17609W        W33683   8.841   3.196   3.232  0.1662 -0.1004 -0.2685
17610W        W33684   5.353   2.722   0.452  0.0562 -0.1896 -0.1809
17611W        W33685  14.453  16.541   4.889  0.1384  0.2174 -0.0030
17612W        W33686   0.204   8.440  13.191  0.0841 -0.0851 -0.0255
17613W        W33687  14.067   4.682   4.669  0.2951  0.1506 -0.0142
17614W        W33688   4.166   0.572  12.668 -0.3818  0.0661 -0.0774
17615W        W33689   5.026   4.614  14.087 -0.2275  0.0417 -0.0953
17616W        W33690  16.956   3.031   0.182 -0.0826 -0.0376  0.0627
17617W        W33691  14.881   0.665   0.476  0.0740  0.0243 -0.3287
17618W        W33692  17.437   0.941   2.842 -0.2059 -0.1909  0.4386
17619W        W33693  10.604  11.904   0.552  0.3202 -0.1031  0.2064
17620W        W33694  17.008   2.442  11.325 -0.0835 -0.0618  0.2106
17621W        W33695  11.824   4.734  12.159  0.3525  0.1546 -0.1273
17622W        W33696   2.504  13.077  11.479 -0.1703 -0.2151 -0.3341
17623W        W33697   3.459   2.830  15.116  0.0726  0.0287  0.1104
17624W        W33698  15.287   1.148  15.343 -0.0827  0.0183  0.1274
17625W        W33699   9.629   5.998  12.289  0.1265  0.1651  0.0301
17626W        W33700   8.660  14.031  12.176 -0.1764  0.0424 -0.3834
17627W        W33701  13.945   1.706   3.735 -0.2389  0.0474  0.0209
17628W        W33702   6.983  16.584   2.967 -0.4397 -0.0558  0.1872
17629W        W33703   5.157   2.023   4.159 -0.1213  0.1909  0.0300
17630W        W33704   8.011  12.833  14.235 -0.0084 -0.0448 -0.0928
17631W        W33705   3.121  16.223  12.546 -0.1719  0.0992 -0.2129
17632W        W33706   0.757   2.472  15.150 -0.4996 -0.0705  0.0207
17633W        W33707   6.234   2.574   0.671 -0.0121 -0.0168 -0.1704
17634W        W33708   1.769  12.881   0.904  0.2299 -0.0711  0.0045
17635W        W33709  10.840   7.640  12.338 -0.0145  0.2133  0.0273
17636W        W33710   3.550   2.974  11.515  0.0480  0.0060 -0.3143
17637W        W33711   9.376  12.713   2.906 -0.3838 -0.0726 -0.0787
17638W        W33712   8.601  11.128   4.974  0.1061 -0.2200 -0.0849
17639W        W33713  10.795  16.158   2.801  0.0291  0.2033  0.1989
17640W        W33714   5.367   1.672   0.149 -0.0001 -0.2804  0.3169
17641W        W33715   6.643   3.376   1.006 -0.2457 -0.1925  0.2514
17642W        W33716   8.737  12.649  11.740  0.2838  0.1842  0.2284
17643W        W33717  17.346   5.314   0.829 -0.1444  0.3286 -0.0500
17644W        W33718   2.420   6.325  15.479  0.0607 -0.3474 -0.0883
17645W        W33719  11.462   0.122  15.349  0.1033 -0.2033 -0.1416
17646W        W33720  14.871   2.857   1.540  0.0781 -0.0189 -0.0916
17647W        W33721   3.087  16.303  16.043 -0.5414 -0.1402 -0.1066
17648W        W33722   0.203   1.644  11.809 -0.1858  0.0640  0.0540
17649W        W33723   1.524   1.453  13.447  0.0906 -0.0146  0.0364
17650W        W33724   3.551   3.183   2.085  0.3591  0.2174 -0.1185
17651W        W33725   8.378   9.975   1.257  0.0013 -0.1528 -0.0021
17652W        W33726   3.030   3.770   3.714  0.0587 -0.2486  0.1620
17653W        W33727   7.047  14.729   4.891 -0.1212  0.0739  0.0185
17654W        W33728  18.295   8.458  12.020 -0.1838 -0.0185 -0.1613
17655W        W33729  13.636  11.843  15.872  0.5867 -0.1632  0.0021
17656W        W33730   9.262   0.072  12.230  0.1218 -0.0272 -0.2995
17657W        W33731   3.315  15.358   0.596  0.2455 -0.0277  0.1089
17658W        W33732  16.250  15.043  11.615 -0.0223 -0.3325  0.2452
17659W        W33733  17.060   5.363   2.136  0.0426 -0.2064  0.1961
17660W        W33734  14.391  11.666   0.829 -0.1480 -0.2162 -0.4146
17661W        W33735   9.660   0.305  15.933 -0.1513 -0.1112 -0.1781
17662W        W33736   0.349  18.046   5.726  0.2152 -0.2423  0.0653
17663W        W33737  15.367  12.680   4.625  0.0151 -0.1147 -0.2257
17664W        W33738  12.902   5.782   2.403  0.0520  0.3008 -0.1678
17665W        W33739  13.307  15.480   3.506 -0.0699  0.1606 -0.0361
17666W        W33740   5.762  11.643  13.966 -0.1618  0.0939  0.3404
17667W        W33741  17.576   7.408  14.130  0.0223 -0.5367 -0.2205
17668W        W33742   2.855  10.259   4.578  0.0450 -0.3133  0.0161
17669W        W33743  12.560  14.494   0.925 -0.3691  0.4976  0.1161
17670W        W33744   9.825  10.124   4.129 -0.4472  0.1840  0.1451
17671W        W33745   5.778  15.755   3.205 -0.1045  0.0313  0.1595
17672W        W33746   0.608  10.602   2.564 -0.2607  0.1975  0.1551
17673W        W33747  12.918  13.214  11.789  0.4249 -0.1792  0.4035
17674W        W33748   1.910   8.494   3.386 -0.0334 -0.0013 -0.0365
17675W        W33749  10.123   4.736   1.762  0.2603 -0.0994  0.0185
17676W        W33750  17.151   2.000   3.444 -0.0355 -0.0295 -0.0781
17677W        W33751  16.132   0.342  15.121 -0.2227 -0.0619 -0.1293
17678W        W33752  16.742   1.625  11.817  0.0486 -0.2542 -0.0065
17679W        W33753   2.839  11.634   0.370 -0.0487 -0.0436  0.1866
17680W        W33754  12.242  11.252  13.866 -0.1779 -0.1197 -0.4763
17681W        W33755  12.502   0.802  16.207  0.1474  0.0665 -0.1385
17682W        W33756   0.841   4.838  16.236 -0.4332  0.0339 -0.2211
17683W        W33757  17.035  15.915   4.652  0.0647 -0.0441  0.0511
17684W        W33758   9.349   4.369  11.993  0.1308 -0.1731  0.2161
17685W        W33759   4.669   1.831  12.987  0.1827  0.0008  0.2291
17686W        W33760   8.989  14.556   2.015 -0.0081 -0.1119 -0.3437
17687W        W33761  18.152   2.771   5.116 -0.2318  0.2589  0.2279
17688W        W33762  15.969   3.580   4.015 -0.0667  0.2457  0.0883
17689W        W33763   8.885   2.120  15.137 -0.0236  0.2416  0.1885
17690W        W33764   5.954   8.541   1.553  0.1086 -0.2088  0.0365
17691W        W33765   2.040  14.922   4.207 -0.1195 -0.2543  0.1213
17692W        W33766   0.024  11.284   2.445  0.2593  0.2928 -0.1684
17693W        W33767  15.037  13.081  13.060  0.0956 -0.0937 -0.1564
17694W        W33768   6.188  16.796  15.216  0.2039  0.2627  0.1156
17695W        W33769   3.454   4.548  14.217 -0.0131  0.3242 -0.0458
17696W        W33770   5.834  18.285  12.846 -0.2546  0.1322  0.0666
17697W        W33771  16.087   9.783  12.744 -0.0811 -0.0625  0.2018
17698W        W33772   1.951  16.905  12.259  0.1523  0.0081  0.2919
17699W        W33773   6.935  18.022   1.216 -0.0126 -0.0633 -0.0022
17700W        W33774   7.818   3.347   0.011  0.1531 -0.4143 -0.3001
17701W        W33775   9.507   1.484  11.429  0.1044 -0.2301  0.0046
17702W        W33776  14.630   4.215   4.285  0.0768  0.0660  0.0564
17703W        W33777   4.854  16.008   0.816 -0.1095 -0.1185  0.0159
17704W        W33778   0.093  15.127  11.414 -0.1289  0.0998 -0.1592
17705W        W33779   8.789  12.864   3.730 -0.2569  0.3353 -0.0677
17706W        W33780  10.679  10.349   6.049 -0.1032  0.0272  0.1048
17707W        W33781   1.983   9.047   0.172  0.0322 -0.0042 -0.1638
17708W        W33782   5.967  10.421  13.129  0.0928  0.0455  0.1069
17709W        W33783  12.873  16.790   1.040 -0.0544 -0.2014 -0.0621
17710W        W33784   9.463   4.580   3.948  0.1055 -0.0063 -0.1441
17711W        W33785  13.189  11.806   1.543  0.1755  0.0656 -0.0304
17712W        W33786  15.569   1.267   5.969 -0.0917 -0.1541  0.3855
17713W        W33787  14.730   0.749  16.054  0.1063  0.0892  0.0649
17714W        W33788   2.913   6.104  12.512  0.4050 -0.0149 -0.0583
17715W        W33789   6.703   8.526   2.671 -0.0306  0.0201  0.1038
17716W        W33790   6.322  12.197  10.646  0.0246 -0.0304  0.0781
17717W        W33791  17.823   8.347  10.990  0.3337 -0.0320 -0.1165
17718W        W33792   5.377   7.096   1.299  0.0538  0.0849 -0.2468
17719W        W33793  10.365   9.078  13.522 -0.2398  0.2583 -0.1311
17720W        W33794   2.940  16.961   3.678 -0.0168  0.0420 -0.0548
17721W        W33795   2.885  14.895   4.874 -0.1931  0.1989  0.1405
17722W        W33796  15.252   8.574   6.033  0.0212 -0.0295 -0.0390
17723W        W33797   9.621   6.989  14.919 -0.2781 -0.0480 -0.2404
17724W        W33798  11.935   0.907  15.316  0.1169  0.2282  0.1260
17725W        W33799   4.328   2.524  12.887 -0.0518 -0.1076  0.1551
17726W        W33800   3.851  15.822   2.048 -0.2336 -0.2634 -0.5140
17727W        W33801   3.066   5.697   0.341  0.3744 -0.2195  0.1865
17728W        W33802  13.454  16.039   3.969  0.3607  0.0702 -0.0986
17729W        W33803  11.812   7.420   0.087 -0.4091 -0.0010 -0.0121
17730W        W33804   8.692   5.465  14.544 -0.0064  0.1911  0.4462
17731W        W33805   8.799   0.914  15.724 -0.1180  0.3897 -0.0503
17732W        W33806  13.464   4.002   4.061 -0.0411 -0.1069  0.0151
17733W        W33807   4.213  16.761   1.030  0.1961  0.1391 -0.1664
17734W        W33808  15.158  18.086  14.201  0.1681  0.3873 -0.4406
17735W        W33809  17.329   5.061  13.714  0.1424  0.0211 -0.0260
17736W        W33810   7.386  11.432  13.389  0.1546 -0.0550 -0.2704
17737W        W33811   5.691   6.268   2.720 -0.0164 -0.0529 -0.0818
17738W        W33812   2.819  13.220   2.761  0.1809  0.1984 -0.2126
17739W        W33813   2.172   1.048   3.690  0.0999  0.0720 -0.2608
17740W        W33814   3.390   7.376   5.150  0.0868 -0.0464  0.0943
17741W        W33815  10.169  17.441   4.168  0.0015  0.0606 -0.2739
17742W        W33816  13.183  13.181   4.272 -0.0906 -0.1213  0.0971
17743W        W33817  13.242   6.725   5.180 -0.2382  0.0503 -0.3133
17744W        W33818  14.011  13.074   4.028  0.3717  0.0217 -0.1105
17745W        W33819  16.862   1.949  16.163  0.1334  0.0556  0.0767
17746W        W33820   0.421   1.246   4.160 -0.1184  0.1182 -0.0019
17747W        W33821  15.446  16.523  14.631 -0.0793 -0.0736  0.1071
17748W        W33822  13.144   0.218  14.505  0.1995 -0.1059  0.0260
17749W        W33823   7.885   9.934   1.029  0.1814 -0.0195 -0.0888
17750W        W33824   6.049   1.601   0.605 -0.0587 -0.1239 -0.1508
17751W        W33825   5.190   6.641   3.755  0.0792  0.1270 -0.3056
17752W        W33826   9.943  11.154  14.597 -0.0857  0.1529 -0.0375
17753W        W33827  10.226   5.709   1.630  0.0476 -0.0128  0.1576
17754W        W33828  10.465   0.635  11.372 -0.1807  0.1284 -0.2591
17755W        W33829   2.844  14.983  10.973 -0.1090  0.0341 -0.0136
17756W        W33830  17.121  17.148  12.139  0.0495 -0.2975 -0.2215
17757W        W33831   6.728   4.130  13.391  0.0439 -0.0996 -0.3161
17758W        W33832   9.056  10.754   4.059  0.2742 -0.3053 -0.0637
17759W        W33833   7.553  12.129   1.013  0.5169 -0.0808  0.1099
17760W        W33834   2.341  15.862  15.094 -0.4439  0.0158  0.3042
17761W        W33835  10.637  13.337  14.333  0.0482 -0.0288  0.2418
17762W        W33836   5.079   6.402  13.128  0.2523  0.0900  0.1347
17763W        W33837  11.450   7.308  13.859 -0.1005 -0.4739 -0.0748
17764W        W33838  12.107  13.480  13.515 -0.2226 -0.2822  0.0524
17765W        W33839   4.087   8.488  13.661 -0.0990 -0.2289 -0.0409
17766W        W33840   0.654  15.584   0.727 -0.0789 -0.3133  0.0035
17767W        W33841   5.260   6.604  11.717 -0.1655  0.2245  0.0393
17768W        W33842   4.559  12.515  14.090 -0.0133  0.2725 -0.2443
17769W        W33843  16.952  14.705   1.893 -0.2843 -0.3751 -0.0823
17770W        W33844  13.798  14.559   1.638 -0.1629 -0.0404  0.0611
17771W        W33845  10.992  12.989   4.057 -0.1575 -0.1295  0.0044
17772W        W33846  17.339   1.188   4.881 -0.0018  0.2581 -0.3593
17773W        W33847   4.737   2.301  13.105 -0.2734 -0.0695  0.0137
17774W        W33848   4.213   6.378  14.817 -0.1510 -0.3678  0.2212
17775W        W33849  11.339  14.928  14.772  0.2056  0.0119  0.2049
17776W        W33850   9.927   3.251  14.608 -0.3068  0.1552  0.1437
17777W        W33851   1.208   1.669   3.117  0.1582  0.0700 -0.0872
17778W        W33852  15.221   5.895  13.353 -0.5040  0.0523  0.1437
17779W        W33853  12.922  12.891   3.909 -0.3562  0.1115  0.1359
17780W        W33854   3.184   3.071   4.873 -0.2741  0.2243 -0.0101
17781W        W33855   8.597   9.960  12.758 -0.0455  0.0840 -0.0125
17782W        W33856  17.237  16.375  11.997 -0.4406 -0.1644  0.0898
17783W        W33857   1.359  17.536  12.846  0.0668 -0.1114 -0.0891
17784W        W33858   6.838  16.945   3.801  0.0243 -0.0748  0.1936
17785W        W33859  13.567  14.513   6.241 -0.0545 -0.1611  0.0330
17786W        W33860  12.982   4.229   4.476  0.0623 -0.2199  0.0187
17787W        W33861   4.311  17.596  13.154 -0.3575  0.0215 -0.3042
17788W        W33862  16.709  12.325   3.139 -0.0993 -0.0925  0.0502
17789W        W33863  18.043   4.189  12.758 -0.0121 -0.1852  0.2319
17790W        W33864   8.766  12.089  14.698 -0.2568 -0.2957 -0.2158
17791W        W33865   9.005  10.216  15.474  0.0213  0.1727 -0.3812
17792W        W33866  16.954   3.173  11.775 -0.1638 -0.0092 -0.0899
17793W        W33867  14.224   3.931  14.344 -0.2599 -0.2627 -0.2417
17794W        W33868   2.433   2.686   5.438 -0.0285  0.0345  0.1683
17795W        W33869   2.070   7.158  16.049  0.0701  0.1267  0.4377
17796W        W33870  16.916   9.087   2.332 -0.0861 -0.1663 -0.0078
17797W        W33871  12.005   6.422  13.612 -0.1994  0.0109 -0.0392
17798W        W33872   7.369   0.468   4.391  0.2156  0.0351 -0.1442
17799W        W33873  13.960   4.362  13.562  0.1993  0.1245  0.1656
17800W        W33874  11.646  12.843  14.955 -0.0491  0.2662 -0.2972
17801W        W33875  12.189   0.830  11.610 -0.0938 -0.1391  0.1534
17802W        W33876   3.626  14.642  15.384  0.1021 -0.2007  0.1258
17803W        W33877   3.135   3.345  13.439 -0.0670  0.0377 -0.1600
17804W        W33878  17.762  13.893  12.538 -0.0376  0.1293 -0.2686
17805W        W33879   9.238   5.526   5.969  0.1675  0.0137 -0.0923
17806W        W33880   7.041   8.184   2.374  0.2528  0.1095  0.1044
17807W        W33881   1.349  16.262   0.303  0.1485  0.2792  0.3536
17808W        W33882   0.113   4.705  11.944  0.1330 -0.1181 -0.2579
17809W        W33883   5.557   4.730   5.211  0.0215 -0.0580 -0.0561
17810W        W33884  15.389  14.091  16.344 -0.0145 -0.4113  0.4583
17811W        W33885   1.633   4.598   1.373 -0.0970 -0.3509  0.2664
17812W        W33886   6.948   6.314   3.341 -0.1258 -0.1832 -0.1200
17813W        W33887  13.216   2.260  14.298  0.0856  0.2647 -0.0149
17814W        W33888   9.585   4.525  15.177 -0.0170  0.1266  0.0349
17815W        W33889   2.915  16.461   4.539 -0.3926  0.3419  0.0947
17816W        W33890  12.088  11.315   5.464 -0.0063 -0.0283 -0.1404
17817W        W33891  10.967   9.685  12.172 -0.1326  0.0096 -0.0794
17818W        W33892   5.013  11.652   1.960  0.3233 -0.1097  0.0087
17819W        W33893   3.038   9.451   3.053 -0.0406  0.0368 -0.0004
17820W        W33894   7.819  12.314  14.636 -0.1016  0.2582  0.0424
17821W        W33895  13.845  18.072   0.880  0.0805 -0.0343 -0.1503
17822W        W33896  16.106  12.094  13.813  0.1759 -0.1525  0.2138
17823W        W33897   2.658  13.145  12.293  0.0421  0.0181  0.1491
17824W        W33898  10.407  12.357  11.331 -0.1153  0.0672 -0.0968
17825W        W33899  16.986  18.008  14.333 -0.2382  0.0501  0.1943
17826W        W33900   3.556   7.612   5.866 -0.0398 -0.3578 -0.0405
17827W        W33901   5.428   0.837   4.556 -0.0622  0.1860  0.0118
17828W        W33902  11.389  17.774  16.215  0.6211 -0.1319  0.1036
17829W        W33903  11.477  16.543   4.042  0.0108 -0.1673 -0.1201
17830W        W33904  10.865   6.603   4.496  0.0277  0.1204  0.0112
17831W        W33905  13.143  18.317  16.156  0.0657 -0.1033  0.1042
17832W        W33906  13.095  13.087  16.385  0.1974 -0.3622 -0.2036
17833W        W33907   7.507   7.013   3.448 -0.0456  0.1623  0.1264
17834W        W33908   1.878  16.367  12.149  0.3848  0.0141  0.2654
17835W        W33909   5.217  15.631   3.996  0.1930  0.1039 -0.1468
17836W        W33910  15.697  15.956   4.504  0.0737  0.1110 -0.0348
17837W        W33911  13.439   9.011  16.123 -0.0118 -0.2321  0.2965
17838W        W33912  13.295   1.260   4.110 -0.2066  0.2721  0.1828
17839W        W33913   7.770  14.036  15.956  0.0778 -0.3185  0.2391
17840W        W33914  17.012  14.614   3.470  0.0195 -0.0697 -0.2730
17841W        W33915  18.142   8.614   0.584 -0.0545 -0.2816  0.2419
17842W        W33916   0.365  11.962   1.013  0.1525  0.1313  0.1859
17843W        W33917   6.982  15.180   2.797 -0.2426  0.2622 -0.0415
17844W        W33918  10.396   1.301  15.259  0.2086  0.1940  0.0767
17845W        W33919  10.493  11.047   3.969 -0.0641  0.0905  0.3164
17846W        W33920  17.604  11.429  13.033  0.1288  0.0675 -0.0557
17847W        W33921  10.738  15.007  13.744  0.4094  0.0174 -0.0459
17848W        W33922  16.558   9.199  15.751 -0.2310  0.0953 -0.0979
17849W        W33923  13.551  13.166   1.777 -0.0205 -0.1561 -0.3849
17850W        W33924   5.650   4.549  15.191 -0.1681  0.2241  0.0733
17851W        W33925   8.180   0.690  11.491  0.1283 -0.3217  0.0504
17852W        W33926  11.048   8.449   3.874  0.1393  0.1591  0.0500
17853W        W33927  14.099  10.073   4.598 -0.2839 -0.0448 -0.0976
17854W        W33928   4.562  17.170   2.593 -0.1706  0.3042  0.0851
17855W        W33929  11.956   4.063  16.270  0.0090  0.3140  0.1320
17856W        W33930   1.920   3.789   3.218 -0.1683  0.0378 -0.2392
17857W        W33931   7.210  15.709   4.088 -0.3115  0.2038  0.2270
17858W        W33932   7.592  13.198   2.636  0.1571  0.0512  0.2796
17859W        W33933   1.461   7.342   6.098  0.2124 -0.2147 -0.0919
17860W        W33934   1.011   2.505   0.677  0.0785 -0.1442  0.1547
17861W        W33935   3.592  16.406   1.980  0.2525 -0.1041  0.0480
17862W        W33936   2.002   1.844   2.912 -0.3666 -0.2704  0.3868
17863W        W33937   6.372  10.226   3.393  0.0557 -0.1406  0.1647
17864W        W33938   7.105   8.921   1.873  0.0627  0.0427  0.2784
17865W        W33939   8.147   6.482   0.131 -0.0341  0.0721  0.0774
17866W        W33940  15.898  13.209   0.982  0.0477  0.0138 -0.0646
17867W        W33941  12.797   4.007   0.959 -0.1877 -0.1411  0.0453
17868W        W33942  11.588   4.618  15.442  0.6816 -0.0024 -0.1412
17869W        W33943   3.765   5.412  12.651  0.0273 -0.1528 -0.0553
17870W        W33944   5.455  12.734  13.075 -0.0888  0.2074 -0.1010
17871W        W33945   2.837  13.891   0.558  0.1110  0.0032 -0.1415
17872W        W33946  14.702  13.033  13.439  0.1736 -0.1137 -0.3183
17873W        W33947  13.187  12.312  13.093  0.0063  0.0578  0.0956
17874W        W33948   1.472  10.541  15.587 -0.5083 -0.0963 -0.1162
17875W        W33949   0.381   5.234  14.980 -0.1358  0.4187 -0.0187
17876W        W33950  12.255  16.335   3.566 -0.1381 -0.0028 -0.4045
17877W        W33951   2.974  12.313   4.357 -0.3018  0.3032 -0.1294
17878W        W33952  16.891  12.105   2.721  0.1291 -0.0083 -0.0802
17879W        W33953   3.761  16.658  16.386  0.0231 -0.1633 -0.1053
17880W        W33954  10.628  10.095  15.634 -0.3115 -0.6173 -0.0513
17881W        W33955   9.703   0.717   3.289  0.1471 -0.2966 -0.1913
17882W        W33956  13.753  13.462  12.200  0.2156 -0.0012  0.2828
17883W        W33957   0.618   5.673  11.886  0.2329 -0.1269 -0.2255
17884W        W33958   4.673   1.063   3.750  0.0860 -0.2901 -0.2078
17885W        W33959   4.187  15.024   0.230  0.2079  0.3757 -0.0086
17886W        W33960   6.939   3.691  15.202  0.0702 -0.0328 -0.0424
17887W        W33961   8.096  16.536   3.093 -0.0858 -0.1334 -0.0739
17888W        W33962   5.145   0.528   4.953 -0.2217  0.0141  0.1519
17889W        W33963   7.976  17.834  13.538 -0.0781  0.0071  0.0896
17890W        W33964  10.956   1.976  12.263  0.2286  0.1519  0.2578
17891W        W33965   2.564   6.600   1.390  0.0791  0.1539 -0.1283
17892W        W33966   3.348   7.351  14.146  0.4215 -0.1774 -0.1325
17893W        W33967   9.656   3.746  13.600 -0.0284  0.1833  0.2445
17894W        W33968   2.802   7.776   1.892 -0.0691 -0.3020 -0.0457
17895W        W33969  11.473   7.719   2.666 -0.0135  0.3343  0.1860
17896W        W33970  12.554   4.193  14.560 -0.0279 -0.0027  0.1617
17897W        W33971  16.743  12.342   4.919  0.1528  0.0595  0.1836
17898W        W33972  13.487   5.039   0.870 -0.0311 -0.1426 -0.2353
17899W        W33973   2.589  16.772  13.096 -0.1994 -0.1426 -0.0943
17900W        W33974   2.278   8.004  12.585 -0.0630  0.1702  0.1885
17901W        W33975  18.249  15.418   1.451 -0.2600  0.0667 -0.2570
17902W        W33976  15.160   2.934   2.893 -0.2565 -0.0154  0.0357
17903W        W33977  18.140  15.215  14.947  0.2041  0.0667  0.0594
17904W        W33978   5.482  14.063  14.957 -0.1090 -0.0977  0.3779
17905W        W33979  17.273  18.177  15.633 -0.0975  0.3544 -0.2868
17906W        W33980   4.318   8.193  13.017 -0.1316 -0.0998 -0.1860
17907W        W33981  11.733   0.170  11.501 -0.1677 -0.0766  0.5142
17908W        W33982   4.141  14.337   2.446 -0.1750  0.0017 -0.0459
17909W        W33983   3.587   7.706   0.292 -0.2312 -0.1135  0.0505
17910W        W33984   2.669  12.767  13.662  0.2602 -0.1135 -0.1207
17911W        W33985   8.300   6.597   9.842  0.0226  0.1260  0.1878
17912W        W33986   4.891   8.093   1.423 -0.0214  0.1173 -0.0583
17913W        W33987  16.277   6.015  12.472 -0.2040  0.0295 -0.0448
17914W        W33988  10.414  16.547   2.867  0.1428  0.0325  0.0319
17915W        W33989   6.668   4.827  10.620  0.1264 -0.1804  0.1910
17916W        W33990  16.425   7.127   4.961  0.3041 -0.0022  0.1627
17917W        W33991   6.245  14.500   5.368 -0.0474  0.0218 -0.0454
17918W        W33992   5.518   4.572  10.923  0.0987  0.0752  0.1833
17919W        W33993  13.856  12.934  13.906  0.0848  0.1082  0.1564
17920W        W33994  16.464   8.858   0.076 -0.0625  0.2511  0.0628
17921W        W33995  18.098   1.089   3.117 -0.1787 -0.0932 -0.0007
17922W        W33996   0.506  13.933   1.704  0.0243  0.0195 -0.0212
17923W        W33997   7.746  18.070  13.136  0.1723  0.0421  0.0489
17924W        W33998   0.465  17.296  13.048  0.1149 -0.2689 -0.2896
17925W        W33999   8.284   9.657   0.205 -0.0597  0.1266 -0.2734
17926W        W34000   5.702   3.778  15.419 -0.3371  0.1433  0.0994
17927W        W34001   9.953   0.032   4.013 -0.3499 -0.2086  0.1111
17928W        W34002   6.829  14.217   0.389  0.0499 -0.2696 -0.2230
17929W        W34003   1.049  16.358  12.075  0.0756 -0.1405  0.1702
17930W        W34004  10.454  17.404   3.738 -0.0822 -0.1559  0.0981
17931W        W34005  12.136   6.845   2.572  0.1261 -0.0684  0.0444
17932W        W34006  13.756   3.973   0.439 -0.0471  0.2689  0.1251
17933W        W34007  10.702   6.752  15.050 -0.0600 -0.1797 -0.0384
17934W        W34008   0.436   4.843  13.148  0.0957 -0.0976  0.0025
17935W        W34009   8.921  14.257   5.437 -0.0515 -0.0064  0.0683
17936W        W34010   7.863   1.697   2.211  0.3463  0.1618  0.2341
17937W        W34011   7.550   2.508   4.793  0.2244 -0.0009 -0.0364
17938W        W34012   4.350  17.861  14.177  0.2219 -0.1209  0.1033
17939W        W34013  15.400   3.452   5.117  0.1326 -0.1024 -0.0655
17940W        W34014   6.518  11.083  15.407  0.1852  0.3396  0.0726
17941W        W34015  17.221  13.100  12.348  0.3399 -0.2428  0.0704
17942W        W34016   7.463  17.402  12.632 -0.0625  0.2427 -0.4271
17943W        W34017  12.499   4.722  16.076 -0.0457  0.3700 -0.1784
17944W        W34018   1.296   0.338  13.383 -0.2329  0.1756  0.2241
17945W        W34019  11.212   7.847   0.475  0.0603 -0.2865  0.0436
17946W        W34020   3.152   5.128   1.733  0.0633  0.0439  0.1622
17947W        W34021   1.286  15.260  16.366  0.1723 -0.1375 -0.1716
17948W        W34022  11.235  11.420  13.146  0.0567 -0.0482  0.0264
17949W        W34023   6.730  17.813  11.860 -0.0504 -0.0374 -0.2057
17950W        W34024   8.737   3.092   2.726  0.0597  0.2074  0.1412
17951W        W34025   5.351  10.718   3.867 -0.3921 -0.0799  0.1908
17952W        W34026   3.952  14.266   5.161  0.1946 -0.2012  0.2721
17953W        W34027  18.019  13.657   4.997 -0.0609  0.0166  0.0961
17954W        W34028  15.362   8.584  13.034  0.0210  0.0574 -0.2282
17955W        W34029  12.599  17.721  14.298 -0.0459  0.1241  0.1073
17956W        W34030   8.127   1.974  13.937  0.0252  0.0411  0.2701
17957W        W34031   2.020  14.627   0.704 -0.1031  0.1669  0.0463
17958W        W34032   2.126   7.890   4.079 -0.2321 -0.0560  0.0017
17959W        W34033  16.859  14.524   1.453  0.0794 -0.0744  0.1570
17960W        W34034  17.228   1.476  14.980 -0.0069  0.1637  0.2397
17961W        W34035   2.013   9.742  14.257  0.0503  0.0292 -0.3592
17962W        W34036   8.674  14.758   3.286  0.0798 -0.0162  0.0482
17963W        W34037   6.991   4.320  11.948 -0.2949 -0.2664  0.3645
17964W        W34038  11.452  15.186   3.130  0.0335 -0.0374 -0.0880
17965W        W34039  10.264   0.176  11.581  0.1792 -0.1165 -0.0141
17966W        W34040   2.923   5.319   0.046  0.1254  0.1603  0.0415
17967W        W34041   1.401  11.569   2.238 -0.2546 -0.0135  0.0900
17968W        W34042   0.175  13.446  16.289  0.1235 -0.0095 -0.0744
17969W        W34043   6.209   8.290  11.933 -0.0052  0.0354 -0.1856
17970W        W34044  13.562   5.190  13.534  0.1334 -0.4232  0.2067
17971W        W34045   5.033  18.237  12.379  0.1920  0.1183  0.0380
17972W        W34046   9.316   8.544  11.797  0.0279 -0.2075 -0.1978
17973W        W34047  17.356   3.275  12.154  0.1006 -0.1401 -0.2795
17974W        W34048  15.353  10.624   1.215  0.1241  0.0337 -0.2067
17975W        W34049  13.099  11.584   5.851 -0.3959  0.0359 -0.1925
17976W        W34050  15.461   0.061   3.266 -0.0913 -0.0422 -0.1200
17977W        W34051  10.725  13.715   0.916 -0.4393 -0.1654  0.3821
17978W        W34052  17.908  11.852   3.595 -0.2482 -0.0805 -0.0331
17979W        W34053  13.023   4.204  16.221  0.0429  0.2910  0.0995
17980W        W34054  14.393  13.690   4.330 -0.2510  0.1449 -0.1054
17981W        W34055  14.163  17.470   2.812  0.1652 -0.1589  0.0439
17982W        W34056   5.192   0.429   0.658 -0.0064 -0.0440  0.3150
17983W        W34057  11.029  15.900  12.506 -0.0419 -0.0591 -0.1167
17984W        W34058   6.106  13.368  12.931  0.0955 -0.1120 -0.2302
17985W        W34059  14.046   9.802   1.947 -0.1265  0.0470 -0.0786
17986W        W34060   3.004  13.760   4.336  0.1135 -0.1994  0.0936
17987W        W34061  18.064   1.904  12.893  0.3599  0.1566  0.0597
17988W        W34062   9.754   0.331   5.122  0.2742 -0.5364  0.0037
17989W        W34063  15.089   1.318   2.523  0.0420  0.3945 -0.4545
17990W        W34064  11.471   7.273   1.181  0.1042  0.1935 -0.0814
17991W        W34065  10.321   8.266   2.579  0.0192 -0.1631  0.1360
17992W        W34066   4.780  14.732  16.093  0.3036 -0.0333  0.0748
17993W        W34067   8.058  17.294   3.563 -0.1577  0.2536 -0.1751
17994W        W34068  16.637  11.903  14.972  0.0438  0.2338 -0.1345
17995W        W34069   7.193   2.337   1.766 -0.0798 -0.1988  0.1262
17996W        W34070   2.209   3.075  13.068 -0.0145  0.0366 -0.2031
17997W        W34071  16.547  14.494  14.189  0.0116  0.0199  0.2690
17998W        W34072  10.150   7.264   2.729  0.1056 -0.5241 -0.2095
17999W        W34073  16.775   8.378   4.432  0.0760 -0.0785  0.0023
18000W        W34074   8.941  17.835  11.630 -0.1206  0.0306  0.1053
18001W        W34075   0.621  16.253   1.111  0.1782 -0.2210  0.0751
18002W        W34076   4.258  17.561   3.970 -0.3061 -0.1607 -0.1737
18003W        W34077   5.068  14.109  12.199  0.2388  0.1343 -0.2088
18004W        W34078   2.568  12.840   0.077 -0.0128  0.0054  0.1465
18005W        W34079   5.843  14.698  11.800  0.1742  0.2019  0.0346
18006W        W34080  12.324   1.698  12.029 -0.0966  0.2408 -0.2805
18007W        W34081  17.287   8.760  13.044  0.0933 -0.1334  0.3179
18008W        W34082  12.695  14.181  15.367  0.3365 -0.1040  0.1670
18009W        W34083  12.923   6.796  14.311  0.1276 -0.3930 -0.5267
18010W        W34084  12.279  10.001  16.165  0.0427 -0.1167 -0.4080
18011W        W34085   1.369   6.378  13.757  0.0983 -0.0147  0.1004
18012W        W34086   2.308  11.075  15.146  0.3317 -0.1359  0.0977
18013W        W34087  17.486   7.569  13.663  0.0173 -0.1105 -0.2069
18014W        W34088   0.895   1.839   5.615 -0.2371  0.0049  0.0088
18015W        W34089   9.465   3.997   5.169 -0.0753 -0.1622  0.1241
18016W        W34090   7.811   2.342   5.646  0.0023  0.4358 -0.0550
18017W        W34091   1.595   8.653   4.216  0.3240 -0.0429  0.1470
18018W        W34092   7.348   6.105  12.496  0.2069 -0.1061 -0.0594
18019W        W34093  17.141   4.192  13.819 -0.0111  0.1846 -0.0594
18020W        W34094   8.445   6.840   1.760 -0.2946  0.1638 -0.0326
18021W        W34095   5.971  10.016   0.391 -0.4627 -0.0860  0.1014
18022W        W34096  14.021  14.332  12.957  0.4648  0.0984 -0.0438
18023W        W34097   6.781  17.509   2.174  0.0923 -0.2389 -0.3418
18024W        W34098   2.534  12.385   0.533 -0.1081 -0.1489  0.2473
18025W        W34099   4.104   8.595   4.777 -0.1140 -0.0410 -0.0039
18026W        W34100  11.164  11.962   1.879  0.2081 -0.1781 -0.0093
18027W        W34101   0.384  18.173   1.795  0.1901 -0.3557  0.2130
18028W        W34102  14.957  11.977  15.688 -0.0386  0.0802 -0.1078
18029W        W34103  17.220   7.766  16.362  0.2007  0.1931 -0.1940
18030W        W34104  12.833   8.809  14.436 -0.0024 -0.2055  0.0720
18031W        W34105  11.488   7.005   4.925  0.0344  0.3072  0.3447
18032W        W34106  16.824  12.231   1.945 -0.1478 -0.0351  0.0566
18033W        W34107   0.350   2.739   4.952  0.1066  0.0733 -0.0733
18034W        W34108   0.746  15.959  12.284 -0.3718 -0.2463  0.1399
18035W        W34109   7.642   6.654   4.108  0.1903 -0.2942 -0.1308
18036W        W34110   3.589  16.820   1.135  0.0084 -0.0436  0.3738
18037W        W34111  14.772   7.124  13.837 -0.0984 -0.0218  0.1972
18038W        W34112   2.641  13.666   2.664 -0.0328 -0.2456 -0.0531
18039W        W34113  15.919   3.641   3.074  0.0262  0.0378  0.0029
18040W        W34114   1.163   7.512   1.505 -0.4609 -0.0416  0.5582
18041W        W34115  17.541   2.405  14.606 -0.1151  0.0100  0.0289
18042W        W34116  13.129  15.115  12.291 -0.0153 -0.1680  0.3523
18043W        W34117   4.158  12.168  15.915 -0.1234  0.4383 -0.2053
18044W        W34118  10.188   6.531   3.763 -0.2848 -0.0352  0.1068
18045W        W34119   7.783   9.495   0.146  0.2852  0.0148  0.0562
18046W        W34120   2.295  13.267  16.319 -0.1352  0.1326  0.1071
18047W        W34121   9.933   4.899  12.589 -0.1122  0.1189 -0.2669
18048W        W34122   0.798   1.945  13.458 -0.2488  0.0461  0.1268
18049W        W34123  16.727   7.541  12.573  0.1289 -0.1237  0.1199
18050W        W34124  10.784   3.634   2.132 -0.1067  0.0278  0.1111
18051W        W34125  17.442  17.271  15.868  0.0737 -0.0586 -0.4150
18052W        W34126   4.077  11.711   5.092  0.4048 -0.2033  0.1313
18053W        W34127  17.500   3.348   2.449 -0.2125 -0.2147  0.0232
18054W        W34128  10.910   7.985  14.124 -0.0523  0.0779  0.1816
18055W        W34129  10.908  12.829   1.270  0.0874 -0.0106  0.1219
18056W        W34130   0.655   3.078   2.241  0.2235  0.0904 -0.1128
18057W        W34131  13.072  18.041  13.526  0.0705  0.4287  0.0694
18058W        W34132   3.777  17.106  11.672  0.2127 -0.2043 -0.4735
18059W        W34133  11.308   6.359   4.535 -0.2168  0.3175  0.1189
18060W        W34134   4.372   0.577  15.893  0.0399  0.0042 -0.1719
18061W        W34135   4.673  16.148  13.462 -0.2915 -0.1824  0.0451
18062W        W34136  12.314   1.336   1.496  0.3959 -0.3472  0.2426
18063W        W34137  16.499  10.562   1.376  0.0950  0.1649 -0.0802
18064W        W34138  11.705   0.974   0.894  0.0978  0.0296 -0.4474
18065W        W34139   0.177   0.636  12.792 -0.1662  0.1804  0.2022
18066W        W34140  14.327  14.489   0.221 -0.2440 -0.0719 -0.1935
18067W        W34141   4.388  16.135  14.489 -0.1976 -0.0536  0.1517
18068W        W34142   2.635   7.049  14.935  0.1331 -0.2557  0.1079
18069W        W34143   2.810  16.269  13.893 -0.1549 -0.0237  0.1348
18070W        W34144   7.184  12.431  13.767  0.0243 -0.2662 -0.1934
18071W        W34145   4.705  10.655   2.654  0.0265  0.0255 -0.0808
18072W        W34146   2.716   3.527   0.003 -0.0774 -0.2802 -0.1317
18073W        W34147  10.882   6.313  15.566  0.3554  0.1194 -0.2093
18074W        W34148  14.334  17.384   3.928 -0.0148 -0.1921  0.0987
18075W        W34149   4.292  12.125  12.949  0.2796 -0.0846 -0.1700
18076W        W34150  17.143  11.855   2.044 -0.2634  0.2226  0.3004
18077W        W34151  12.656  10.621  11.264 -0.0548 -0.0055 -0.1623
18078W        W34152  16.178   5.600   3.145 -0.3296 -0.0979 -0.0317
18079W        W34153  13.667   5.706   1.928  0.0558  0.1664  0.2315
18080W        W34154  10.929   3.785  14.574 -0.1206  0.4148 -0.0503
18081W        W34155   0.861   5.584  14.555 -0.1640  0.7333 -0.1460
18082W        W34156   3.199   0.682   1.684 -0.3600  0.1594 -0.1883
18083W        W34157   8.817  12.622   2.352 -0.0959  0.0406 -0.0998
18084W        W34158   2.332  11.198   5.355  0.2068  0.3090  0.4918
18085W        W34159   9.325  13.607  13.776 -0.0085  0.1011  0.2332
18086W        W34160  18.267  11.992  12.467 -0.0769  0.0106  0.0514
18087W        W34161   4.065  14.937  15.450  0.1273  0.1454 -0.2015
18088W        W34162  17.418  16.112  13.163  0.0718 -0.0325 -0.1551
18089W        W34163   2.091   9.563  16.257  0.1143 -0.5776  0.2270
18090W        W34164   2.336  17.164  13.185 -0.2668 -0.0227 -0.0117
18091W        W34165  17.521   5.061   0.152 -0.0486 -0.2381  0.1377
18092W        W34166  13.264   4.158   5.801  0.1703 -0.0061  0.0891
18093W        W34167  16.619   4.760  12.803  0.3083  0.0439 -0.1900
18094W        W34168  14.308  14.178   5.746 -0.0381 -0.1121 -0.1135
18095W        W34169   7.361   5.407  13.219  0.1069 -0.2103 -0.0695
18096W        W34170   8.000   2.715   5.352  0.0611 -0.3796  0.1147
18097W        W34171   5.075  14.518   3.482  0.0551 -0.1772  0.2147
18098W        W34172   7.779  10.865   1.615  0.1031  0.1092 -0.3448
18099W        W34173  15.065  15.072  16.348  0.1020  0.0943  0.0304
18100W        W34174  12.128   3.948   4.850 -0.0054  0.1415  0.2026
18101W        W34175   4.489  16.821  15.646 -0.2990  0.0667  0.4743
18102W        W34176  10.177   2.104   0.111 -0.1857  0.0506 -0.1894
18103W        W34177  13.234  17.691   0.147  0.1811  0.1906  0.2235
18104W        W34178   6.291   9.980   5.993  0.1080 -0.0494  0.4210
18105W        W34179  13.742  17.561  10.398  0.1840 -0.5089  0.0988
18106W        W34180  16.448  16.993   4.948 -0.0946 -0.0929 -0.1414
18107W        W34181  11.488   0.008  12.424 -0.1882  0.1314  0.0721
18108W        W34182  15.470   8.814  13.626  0.3133  0.1080  0.1645
18109W        W34183  16.597   8.709   3.857  0.0035  0.1381 -0.2700
18110W        W34184   2.683  11.006   1.927  0.2328 -0.0343 -0.0262
18111W        W34185   8.559   5.475   4.294  0.0833  0.0440  0.0766
18112W        W34186  13.680  16.401   1.195  0.2169 -0.0875  0.0159
18113W        W34187  15.161   3.667   3.534  0.0036  0.2067 -0.1601
18114W        W34188   1.114   0.130   2.219  0.1374  0.0094 -0.2886
18115W        W34189   8.855   8.398  13.555 -0.2240 -0.1142  0.0574
18116W        W34190  11.983  17.196   0.070 -0.1855 -0.0272 -0.2696
18117W        W34191   1.905  11.973   2.680  0.2655  0.1772  0.0824
18118W        W34192  17.541   3.716  16.029  0.3392  0.0215  0.1641
18119W        W34193   9.993   0.511  14.234  0.0515 -0.1504 -0.1586
18120W        W34194   6.254   8.853  15.940  0.0119  0.2048 -0.0547
18121W        W34195   4.061  17.881   4.355  0.1314  0.0280  0.0477
18122W        W34196   9.427   3.230  10.652  0.1563 -0.2079  0.2210
18123W        W34197  15.033   4.945  13.726  0.1268 -0.3395 -0.1271
18124W        W34198   8.769   0.725   1.320 -0.3246 -0.3622 -0.3751
18125W        W34199   0.356   4.744  15.055  0.1785  0.3573 -0.2545
18126W        W34200   4.103   6.907   0.609  0.0273 -0.3512  0.0507
18127W        W34201  14.009   1.465  13.446 -0.2606 -0.0753 -0.0256
18128W        W34202   6.256  13.288   0.957 -0.1403 -0.3644  0.3100
18129W        W34203   0.301   5.487   4.175  0.0841 -0.0295 -0.3558
18130W        W34204   1.308   9.570  13.145  0.1677  0.0647 -0.0200
18131W        W34205  11.917  12.031   2.794  0.2262 -0.3256 -0.4041
18132W        W34206   2.743   1.653   0.714 -0.0395 -0.3438  0.2248
18133W        W34207  12.446  14.014   0.826 -0.0598 -0.1416 -0.2920
18134W        W34208   1.544   6.721   4.479  0.0520 -0.2612 -0.2373
18135W        W34209   7.481   4.540   0.886 -0.1456  0.0773  0.0164
18136W        W34210   3.908   7.202   4.987 -0.0999  0.2343  0.0472
18137W        W34211   7.116  13.534   4.578  0.0299 -0.1077  0.0304
18138W        W34212  15.968  15.074   1.359  0.1234 -0.0396 -0.1005
18139W        W34213   4.296  17.486  15.311  0.1406 -0.4808  0.1432
18140W        W34214   1.295  16.455   3.711  0.1099 -0.0650 -0.2448
18141W        W34215  10.683  17.584   4.177 -0.1087 -0.4286  0.3508
18142W        W34216  17.517  13.312  14.047 -0.0380  0.3753 -0.3020
18143W        W34217   0.866   6.330   1.903 -0.1604  0.2840  0.1278
18144W        W34218  12.585   7.828   3.730 -0.0243  0.1170  0.0984
18145W        W34219   2.001   9.627  15.515 -0.0884  0.1269  0.1878
18146W        W34220  10.305  14.767   6.283  0.0409  0.2602 -0.1335
18147W        W34221  12.330  12.529  16.008 -0.1314 -0.1297  0.2444
18148W        W34222   5.690  13.370  15.207 -0.1930 -0.3691 -0.1834
18149W        W34223   4.229   5.387  11.892  0.1542 -0.2493 -0.0741
18150W        W34224   1.542   9.527   4.497 -0.0256 -0.0675  0.1452
18151W        W34225   0.483   2.940  14.921  0.1066  0.2695 -0.1391
18152W        W34226  15.006  10.307   1.242 -0.1011 -0.0749  0.2632
18153W        W34227   1.180   9.606  15.227 -0.3007  0.3011 -0.0237
18154W        W34228  15.850   5.836   6.155  0.1909 -0.2450  0.0099
18155W        W34229   2.199  13.260   0.429  0.0375 -0.1009 -0.3425
18156W        W34230  15.843   3.614  13.920  0.1036 -0.0976 -0.3465
18157W        W34231   5.758  17.804   0.817 -0.0047  0.0286  0.0675
18158W        W34232  12.433  15.189   0.451 -0.2017  0.1307 -0.0153
18159W        W34233  11.751   1.587  14.501 -0.0044 -0.0100  0.0404
18160W        W34234   4.275  15.433  11.388  0.1743 -0.2734  0.0984
18161W        W34235   2.747  17.242  14.110  0.3220 -0.0078  0.0398
18162W        W34236   6.179  15.480  15.887  0.1593  0.0229 -0.2875
18163W        W34237   9.472  16.235  11.440 -0.1063  0.1192 -0.0750
18164W        W34238   7.807  16.742  14.670  0.0856 -0.0687  0.2682
18165W        W34239   1.539   7.182   5.357 -0.0811  0.0170 -0.0348
18166W        W34240   2.968  13.865  14.029 -0.0300 -0.2701 -0.0172
18167W        W34241   0.969  15.119   3.496 -0.0316  0.0211  0.1106
18168W        W34242   8.672   9.273   4.246 -0.1631  0.0730  0.1679
18169W        W34243   4.273   1.124   2.338 -0.0029  0.1562  0.0715
18170W        W34244  10.463  15.210  11.448  0.0602 -0.0058  0.0936
18171W        W34245  14.559   7.449  11.711 -0.0448  0.2197  0.0678
18172W        W34246   1.117   6.111  16.203 -0.1035 -0.0344 -0.4995
18173W        W34247  10.324   9.105  14.085 -0.2597 -0.0754  0.1487
18174W        W34248  14.726  10.576  15.148  0.0372 -0.0049  0.2327
18175W        W34249  14.233  14.409  15.862 -0.0714  0.0538 -0.1114
18176W        W34250   1.383   8.586  14.699  0.3941 -0.2166 -0.0737
18177W        W34251  14.180   9.864  12.911 -0.1960  0.1165 -0.2877
18178W        W34252  11.443  10.269   2.063  0.1725  0.0646 -0.2834
18179W        W34253   8.352   2.843  15.333  0.3127  0.1525  0.2087
18180W        W34254   1.758   6.064  15.643  0.1358  0.0078  0.1188
18181W        W34255  14.153   3.649  12.003 -0.2168 -0.2034 -0.1653
18182W        W34256   2.680  12.144   3.087 -0.2704 -0.2525 -0.1719
18183W        W34257   2.092  16.594   3.413 -0.1428  0.0768  0.1174
18184W        W34258   0.658   3.661   3.090 -0.0028  0.2727 -0.1106
18185W        W34259   2.050  10.804   2.983  0.1655  0.0087  0.1291
18186W        W34260   2.877  13.047  14.552 -0.1100  0.0663  0.0989
18187W        W34261  11.975   6.969  11.272  0.0372  0.0931 -0.1577
18188W        W34262  13.685   8.103  13.388 -0.0050  0.0560 -0.4819
18189W        W34263   9.696   8.140   3.385 -0.0782  0.2715 -0.1748
18190W        W34264   9.712  13.119  16.305 -0.3270  0.4385  0.0785
18191W        W34265   9.036   4.238   5.063  0.2123 -0.0466 -0.1472
18192W        W34266   2.634   5.744   3.501 -0.1476  0.0240 -0.1168
18193W        W34267  10.378   9.819  14.779  0.4759 -0.0437  0.0655
18194W        W34268  11.602   6.522  16.321  0.2719  0.3416  0.1529
18195W        W34269   2.114  16.398   3.924  0.0240 -0.0124 -0.1826
18196W        W34270   1.338   5.390   4.349 -0.1965 -0.0054  0.0016
18197W        W34271   8.318  14.871  15.627 -0.1493  0.2583  0.0693
18198W        W34272  15.889   9.878   2.345  0.0549  0.0916 -0.4413
18199W        W34273   9.877   4.124   3.714  0.0143  0.2863  0.2843
18200W        W34274  13.317  16.491   4.153  0.0385 -0.3038  0.0403
18201W        W34275  10.958  18.305   0.176  0.0014  0.1186  0.1879
18202W        W34276   8.969  10.453  12.149  0.1314 -0.2713 -0.3351
18203W        W34277   5.162  16.968   1.042  0.1330 -0.0983  0.0289
18204W        W34278   6.956   6.922   4.394  0.0972  0.2072  0.0727
18205W        W34279   9.848  18.273  11.875 -0.2956 -0.2497  0.0835
18206W        W34280   7.853   6.212   2.305 -0.0850 -0.1462 -0.2955
18207W        W34281   2.828  18.171   4.412  0.0902 -0.2744  0.0952
18208W        W34282  10.115   7.794   2.382  0.1035 -0.0129  0.1138
18209W        W34283  13.871  16.608  15.768 -0.1859 -0.1759  0.0120
18210W        W34284  17.199   0.865  12.270  0.0654 -0.0675  0.3191
18211W        W34285   5.432   8.897  14.072 -0.2115 -0.2184 -0.0637
18212W        W34286   5.229  14.212   5.273 -0.1878 -0.0307 -0.4821
18213W        W34287   8.406   5.076   3.851  0.1281  0.0206 -0.2262
18214W        W34288   7.142   7.910   0.057 -0.0984 -0.0900 -0.0859
18215W        W34289   3.944  15.070   3.651 -0.1146 -0.0529 -0.6218
18216W        W34290   7.766  15.125  11.458  0.0193 -0.1571 -0.0305
18217W        W34291  10.410   7.907  12.556  0.1578  0.2491 -0.1214
18218W        W34292  17.621  10.053   3.191 -0.2588 -0.0497 -0.2932
18219W        W34293  15.004   8.985   0.427 -0.1851  0.0014  0.1090
18220W        W34294   7.880   5.819  16.218  0.1338 -0.2019 -0.2133
18221W        W34295  17.014   2.283  12.043 -0.0222  0.2411  0.1058
18222W        W34296  15.597  12.362  11.576  0.4051 -0.1069  0.1624
18223W        W34297  17.237  12.294  11.506  0.1867  0.0613  0.0943
18224W        W34298   4.906  15.526  12.557 -0.1873  0.0599 -0.0197
18225W        W34299  10.869  12.841  13.204 -0.0097 -0.3072  0.1945
18226W        W34300  14.856  10.118  12.704 -0.0274 -0.0306 -0.0905
18227W        W34301  13.126   9.217  14.657  0.2324  0.0810  0.0971
18228W        W34302  14.383   2.754   0.539  0.0064 -0.1118  0.3818
18229W        W34303   8.980   4.029   3.472  0.2009  0.1236  0.1984
18230W        W34304  11.405  17.857  12.333  0.1435  0.1444 -0.0593
18231W        W34305  10.381   6.039   3.644  0.5769  0.3975  0.0902
18232W        W34306   3.244  17.112  10.919 -0.0177 -0.1422  0.1272
18233W        W34307  17.659   0.377  16.248 -0.1418 -0.0783  0.2970
18234W        W34308   8.161   8.181   3.067 -0.3393  0.2384  0.0125
18235W        W34309  17.605   9.663  15.133 -0.0317 -0.2315 -0.0066
18236W        W34310   6.689   7.503  11.563 -0.0013 -0.3427  0.0651
18237W        W34311   3.599   4.790  13.586  0.1500  0.3412  0.0405
18238W        W34312   2.515  16.135   4.089 -0.1152 -0.1018 -0.2955
18239W        W34313   7.479   8.047  16.083 -0.1522 -0.1671  0.2136
18240W        W34314   9.899   4.355   4.980 -0.2026 -0.3375  0.1276
18241W        W34315  17.156   7.947   5.049  0.0168 -0.1405 -0.1762
18242W        W34316   2.183  17.375   2.297 -0.0959 -0.0932 -0.1265
18243W        W34317   0.408  11.181   3.298  0.1770 -0.0129 -0.0027
18244W        W34318  17.247  12.519   0.039  0.0744 -0.0607 -0.2027
18245W        W34319  14.530  17.821  16.353  0.1404  0.3138 -0.0817
18246W        W34320   7.398  13.360  14.538  0.1818  0.2280 -0.0546
18247W        W34321  10.991   9.455   3.773 -0.1574 -0.1873  0.1774
18248W        W34322   1.785   1.307   0.840 -0.1765 -0.0042  0.1245
18249W        W34323  12.606   0.326   0.312 -0.0362 -0.0479 -0.1146
18250W        W34324   7.064  16.270  11.851  0.3040  0.0990 -0.2375
18251W        W34325  15.818   0.610   1.594 -0.1550  0.0650  0.2127
18252W        W34326  10.432   1.372  12.006  0.0282 -0.1059 -0.0261
18253W        W34327  15.320  11.320  15.168  0.2075 -0.0294 -0.0372
18254W        W34328  16.336   9.335  14.219  0.0226  0.0164 -0.2742
18255W        W34329  17.033  10.670  12.054  0.2723 -0.0088  0.4478
18256W        W34330   0.220   1.867   3.306 -0.0698 -0.0001  0.0139
18257W        W34331   2.623  17.691   0.359  0.0519 -0.0841  0.2422
18258W        W34332  17.654   0.906  14.239 -0.0761  0.0184 -0.1362
18259W        W34333  11.070   6.048  11.062 -0.1212 -0.0183  0.1371
18260W        W34334   9.219   3.816  15.339 -0.1705 -0.1762 -0.2431
18261W        W34335  10.032   5.388  15.975  0.3684 -0.2884 -0.0104
18262W        W34336  10.917   9.643  13.441 -0.1147 -0.1673  0.2335
18263W        W34337   0.323   9.430  12.114 -0.0200 -0.4789 -0.1958
18264W        W34338  14.705   1.414   4.833  0.0045  0.0918  0.2074
18265W        W34339   8.841   0.683  16.331 -0.0446  0.0934  0.1280
18266W        W34340  14.598   8.163  12.117  0.1814 -0.2937 -0.0711
18267W        W34341  14.799   1.227   3.822  0.1377 -0.1563 -0.0240
18268W        W34342  15.983   9.495   4.699  0.1682 -0.1981  0.3073
18269W        W34343   6.711   5.571   4.454 -0.2202  0.0220 -0.1758
18270W        W34344  11.005  17.715  15.521 -0.3629 -0.2364 -0.0240
18271W        W34345   2.610   1.520  11.964 -0.0310 -0.0242 -0.4119
18272W        W34346   4.379   0.829   1.839  0.1558 -0.0237 -0.2022
18273W        W34347  16.407   9.903   2.345  0.1292  0.1741  0.2665
18274W        W34348   4.673  12.041  15.573 -0.1452  0.0030  0.0891
18275W        W34349  14.302   9.185   1.397  0.2495 -0.5323 -0.1179
18276W        W34350   4.834   9.244   0.190 -0.2102  0.1166 -0.2027
18277W        W34351   8.674  10.213   2.844  0.0959 -0.4339 -0.0389
18278W        W34352  15.669   9.287   1.184  0.1948 -0.3281  0.1189
18279W        W34353  13.382   6.943  14.380 -0.0161  0.0712  0.1660
18280W        W34354   3.450  10.215   0.988  0.1482 -0.0956 -0.3634
18281W        W34355   4.775  16.314  14.703  0.2080 -0.2406 -0.2416
18282W        W34356   9.671  15.449  14.918  0.1182  0.1505 -0.0504
18283W        W34357   3.070   9.691   2.591 -0.0070  0.1234  0.2034
18284W        W34358  10.079   2.227  15.003 -0.1728 -0.0026 -0.1628
18285W        W34359   2.309  13.370   4.837 -0.3544  0.5027 -0.1570
18286W        W34360   6.516  16.392  13.545 -0.0436  0.1180 -0.0924
18287W        W34361  14.791   7.341  14.690 -0.0911  0.3523 -0.0194
18288W        W34362  17.963   9.063  12.715 -0.1660 -0.0232  0.3427
18289W        W34363  16.007   4.872   1.963  0.0238  0.1598 -0.0474
18290W        W34364  14.610   9.627  15.546 -0.0404 -0.0681 -0.2931
18291W        W34365   8.318   9.028  12.556 -0.1059  0.2438  0.0961
18292W        W34366  10.222   3.326  12.537  0.1733  0.1848 -0.1124
18293W        W34367   8.433   4.957  15.941 -0.2685  0.1579 -0.0725
18294W        W34368  14.523   5.243   1.433  0.0542  0.3218 -0.1334
18295W        W34369  15.223   5.440   2.172  0.1760  0.2020  0.0894
18296W        W34370   1.440   9.641   3.309  0.2884 -0.4070 -0.1178
18297W        W34371   0.011   5.186  13.131 -0.0646 -0.0911 -0.1430
18298W        W34372   6.265  16.696  10.801 -0.0033  0.0387  0.1341
18299W        W34373  12.875  11.619   4.236 -0.0578 -0.0528 -0.1107
18300W        W34374  14.945   6.083   1.747 -0.0379 -0.0490  0.2660
18301W        W34375   1.983  15.800  11.041 -0.1195  0.0278  0.0548
18302W        W34376   6.730   4.724   1.224 -0.0205  0.0970 -0.1391
18303W        W34377   2.506  12.412   5.130 -0.0895  0.3199 -0.2235
18304W        W34378   4.930  18.063  11.864  0.1026  0.0844 -0.0176
18305W        W34379   0.238  14.571  13.446  0.2341  0.1374  0.1861
18306W        W34380  11.128   3.353   1.171 -0.2202  0.1217 -0.2298
18307W        W34381   8.463   7.870  14.511  0.0187 -0.0733  0.2168
18308W        W34382  10.083  15.573   2.499  0.5286 -0.1444  0.0286
18309W        W34383  14.637   7.675  14.317 -0.0258 -0.1133 -0.0324
18310W        W34384  18.169  14.287  15.925  0.0424  0.0051 -0.2385
18311W        W34385   0.779  14.771   5.706  0.5318 -0.3041  0.1197
18312W        W34386   3.150  12.507  13.621  0.1089 -0.2399  0.0455
18313W        W34387   3.510  11.057   3.134  0.0257 -0.3298 -0.0099
18314W        W34388  15.818   2.958  10.821  0.2322 -0.2308  0.2961
18315W        W34389  15.800   9.722   1.610 -0.0142  0.2469  0.2659
18316W        W34390   6.128  10.517   2.538  0.0646  0.0816 -0.1631
18317W        W34391  16.308  16.270  16.318  0.0407  0.2058 -0.1040
18318W        W34392   8.725   0.756   0.793 -0.0143  0.0350 -0.1059
18319W        W34393   9.064   2.850   1.990 -0.0347 -0.1311  0.0701
18320W        W34394   8.025   5.445   0.770  0.0861 -0.1521  0.0720
18321W        W34395   8.426  16.071   1.759 -0.1788 -0.1882  0.0551
18322W        W34396   5.844   2.175   1.325 -0.1410  0.3652 -0.0813
18323W        W34397   1.696   4.718   5.254 -0.0302  0.0700  0.0818
18324W        W34398   4.662   4.283  15.590  0.1075 -0.0192 -0.4723
18325W        W34399   6.680  15.736   1.996  0.3860  0.3249  0.0249
18326W        W34400  10.265   6.432  13.788 -0.1895 -0.1141  0.2769
18327W        W34401   7.760   6.345  16.143 -0.2864  0.0064  0.0987
18328W        W34402  17.549   8.564  15.175 -0.0727  0.2940  0.0181
18329W        W34403  15.945   5.891   3.896 -0.1822 -0.1184 -0.3145
18330W        W34404  13.017  16.108   4.148 -0.0691  0.3493 -0.3819
18331W        W34405   8.023   1.150  15.220 -0.0721 -0.2077  0.0818
18332W        W34406   9.505  12.577  11.468  0.1857 -0.1199 -0.2770
18333W        W34407   9.516  18.076   2.759  0.1351  0.1625 -0.3206
18334W        W34408  13.992   8.123   4.513 -0.1504 -0.3946 -0.1512
18335W        W34409   9.682  15.344   2.282  0.0694 -0.2592  0.0754
18336W        W34410   7.007   0.195   4.101 -0.1772  0.0187 -0.2449
18337W        W34411  12.836   4.054  14.148  0.1646 -0.0525  0.2764
18338W        W34412  15.029   8.448  15.307  0.1492 -0.0304  0.1686
18339W        W34413   7.037   3.971  12.352 -0.2480  0.2617 -0.2545
18340W        W34414   5.969  14.060  15.907 -0.2576 -0.2671 -0.0247
18341W        W34415  13.212   1.681   1.178  0.1964  0.0616 -0.0941
18342W        W34416   4.959  16.408  12.237  0.1376  0.1674 -0.1215
18343W        W34417   6.020  16.125   4.539 -0.0887  0.2705 -0.1863
18344W        W34418  14.230  17.752  11.971  0.2133 -0.2838  0.1801
18345W        W34419  14.280   2.873  11.889 -0.0389 -0.1592  0.1446
18346W        W34420   6.341  14.734   2.868  0.0377  0.0353 -0.4336
18347W        W34421   1.998   0.828   1.775  0.3838 -0.2756  0.1142
18348W        W34422   2.469   7.684   4.937  0.2081 -0.1430 -0.0697
18349W        W34423   1.570   0.063  16.279 -0.0319 -0.0691 -0.2816
18350W        W34424   8.148  10.414   1.418 -0.0779  0.1783 -0.1950
18351W        W34425   0.429   4.030   2.819 -0.1416  0.0911  0.1565
18352W        W34426   7.462   2.466   0.428 -0.2911 -0.1587 -0.1270
18353W        W34427   5.833   3.207  11.930 -0.0691  0.1080  0.0298
18354W        W34428  15.264   3.023   4.960  0.2800  0.4318  0.1095
18355W        W34429   0.774   1.055  13.693  0.2395 -0.2165 -0.3545
18356W        W34430  13.690  15.811  13.613  0.2119 -0.2534 -0.1558
18357W        W34431   0.457  14.666   0.198 -0.0979 -0.0783 -0.1692
18358W        W34432  15.189   2.453  15.380 -0.0408 -0.0995 -0.1787
18359W        W34433   8.856  13.699   4.695  0.0489  0.1590 -0.0620
18360W        W34434  17.691  17.521  16.296 -0.3358 -0.0441  0.0125
18361W        W34435  16.098   6.704   1.043 -0.1050 -0.2234 -0.0282
18362W        W34436  13.064   7.912   5.632 -0.1146 -0.3311  0.1696
18363W        W34437   5.080   0.623   3.588  0.1029 -0.0731  0.5089
18364W        W34438  10.746  12.071   6.566  0.3066 -0.2238 -0.2388
18365W        W34439   2.053   0.283  13.677 -0.3800 -0.1685 -0.0771
18366W        W34440  16.132  12.271  15.917 -0.1473 -0.2400 -0.1951
18367W        W34441  13.428  10.655   1.928 -0.1944  0.0250 -0.2447
18368W        W34442   7.346   6.543  16.329  0.2152  0.1181 -0.1163
18369W        W34443   1.726   9.282   3.458 -0.0145  0.1807  0.2127
18370W        W34444  12.224   5.612  14.983 -0.1388  0.0970  0.1157
18371W        W34445  13.704   9.777  12.602  0.2874 -0.1368 -0.1582
18372W        W34446   1.060   7.021   1.866 -0.0024  0.0788 -0.0583
18373W        W34447   4.627  14.858   0.329 -0.0485  0.0991  0.0927
18374W        W34448  15.556   0.270  12.138 -0.0959  0.4418  0.3811
18375W        W34449   6.949   0.990  16.359 -0.0017 -0.2413  0.4315
18376W        W34450  16.054  11.754   0.350  0.0459 -0.2050 -0.1929
18377W        W34451   9.877   1.383  12.724  0.1221 -0.2061 -0.0336
18378W        W34452   2.760  14.591  12.620 -0.2740  0.1040  0.0850
18379W        W34453   3.575   1.983  14.960 -0.1140 -0.0197  0.3249
18380W        W34454   7.016   8.171   1.829 -0.1569  0.0629  0.0371
18381W        W34455  10.468   3.959  16.060 -0.2273 -0.0608  0.2038
18382W        W34456  14.835   0.983  15.519 -0.2734  0.0113 -0.1249
18383W        W34457   4.098   9.601   4.560  0.1320  0.0195 -0.0217
18384W        W34458  15.670   9.157   4.140 -0.0941 -0.2500  0.1810
18385W        W34459   8.043  14.691   4.935 -0.0233  0.1621  0.2757
18386W        W34460   3.326   1.789  11.625  0.0992 -0.0305 -0.2909
18387W        W34461   3.014  13.801   1.035  0.1059 -0.2821 -0.0397
18388W        W34462   5.261   7.666  13.864  0.2656  0.1990  0.2435
18389W        W34463   7.708   6.227   3.856 -0.0191 -0.0426  0.0172
18390W        W34464  10.504   8.621  12.541  0.2681 -0.1580  0.0525
18391W        W34465  18.135   9.348   2.087  0.0475 -0.0892 -0.0232
18392W        W34466   1.728  13.580  13.099 -0.1081 -0.1259 -0.3167
18393W        W34467   8.376   8.825  13.045  0.1699 -0.1274  0.3938
18394W        W34468  14.095   9.574  11.831 -0.1765 -0.0937 -0.3559
18395W        W34469   7.347   0.206   2.357  0.0462  0.0200 -0.1451
18396W        W34470   5.701  11.992  14.994 -0.3321  0.1797 -0.1019
18397W        W34471  16.593  16.465  12.489 -0.0389 -0.0866 -0.1454
18398W        W34472  16.925   3.708   0.207 -0.2882 -0.1864 -0.2206
18399W        W34473   9.695   5.226  14.692  0.1935 -0.3518 -0.0343
18400W        W34474  13.969  16.170   2.318 -0.1733  0.3165 -0.4358
18401W        W34475   1.279  11.765   4.498  0.0569 -0.1943 -0.0879
18402W        W34476   6.830  12.656   5.809  0.0629 -0.0134 -0.2454
18403W        W34477  13.905   7.436   1.137  0.1064  0.1146 -0.3311
18404W        W34478   0.633   1.820   0.340 -0.1692 -0.1132  0.0860
18405W        W34479  16.806   5.482   4.923 -0.1433 -0.3773  0.2937
18406W        W34480  12.634   7.953  16.344 -0.0100 -0.1948 -0.1269
18407W        W34481  14.171   9.239  14.866 -0.1654 -0.0904  0.0153
18408W        W34482   6.547   5.613  10.713 -0.1441 -0.0477  0.1947
18409W        W34483   5.701   4.790   0.020 -0.0333 -0.2313 -0.1666
18410W        W34484  13.854  10.737  12.730  0.1460 -0.1086  0.1609
18411W        W34485  13.328   0.435  14.079  0.0335 -0.0370 -0.0246
18412W        W34486  17.757   7.959   1.393 -0.1877  0.0585  0.0282
18413W        W34487  10.865  12.025  14.606 -0.0018  0.1882  0.0625
18414W        W34488   2.710  16.029  15.686  0.1462 -0.0085  0.0803
18415W        W34489   6.542  12.516   5.150  0.0648 -0.3426  0.0071
18416W        W34490  15.500  15.338   5.419  0.0753 -0.2258 -0.1248
18417W        W34491  14.785  13.517   2.896  0.0128 -0.1138 -0.0692
18418W        W34492  16.970   5.982   2.927 -0.4370  0.0550  0.0775
18419W        W34493   2.108  16.658   5.561  0.0308 -0.0926 -0.1688
18420W        W34494  17.137   1.340   3.231  0.1099  0.2031 -0.0235
18421W        W34495  12.109   6.350  13.006 -0.3637 -0.0803  0.0630
18422W        W34496  15.829  12.827   3.953  0.0883 -0.1339 -0.2111
18423W        W34497   8.064   7.404  11.171  0.0966  0.3280 -0.1111
18424W        W34498   4.162   7.055   4.326  0.1064  0.0782  0.0674
18425W        W34499   4.717   4.792   2.299 -0.1595 -0.0066  0.0848
18426W        W34500  17.675   3.723   3.692 -0.0968 -0.1035 -0.0572
18427W        W34501  15.743   5.235  15.802 -0.0795 -0.4789 -0.2390
18428W        W34502  12.514   6.098  15.464 -0.5086 -0.0474  0.1254
18429W        W34503  12.577   1.850  15.717 -0.0517 -0.2346  0.2302
18430W        W34504   4.322   6.719   2.828 -0.1412 -0.0756  0.1899
18431W        W34505   4.521   7.275   3.604 -0.3295  0.0609 -0.0878
18432W        W34506   1.436  15.536  14.954  0.1011  0.0059  0.0410
18433W        W34507  10.598  12.512  13.589 -0.1086 -0.0105  0.0394
18434W        W34508  16.384   7.021  12.983  0.0102 -0.1551 -0.0730
18435W        W34509   8.133   0.068  13.340  0.1819 -0.0379  0.1361
18436W        W34510  17.288   3.086   6.176  0.0548  0.1672  0.0160
18437W        W34511   9.665   4.879   0.312 -0.0127 -0.2240 -0.0283
18438W        W34512  18.073   8.851  12.145 -0.0370 -0.1016 -0.2330
18439W        W34513   8.522  13.675  12.723 -0.2320 -0.0547  0.0109
18440W        W34514   7.651   1.717  15.139  0.2168  0.0512 -0.0152
18441W        W34515   8.970  14.881  13.487  0.1355  0.1493  0.2117
18442W        W34516   2.384   5.858  12.797 -0.0814 -0.1242  0.1975
18443W        W34517  15.011  15.153   3.380  0.0535 -0.1712  0.1939
18444W        W34518  14.116  17.096   5.628  0.0570  0.1296  0.0031
18445W        W34519  12.801   1.787   1.733  0.0506 -0.0158 -0.1601
18446W        W34520  10.840  15.016  14.683 -0.0538  0.2010  0.0836
18447W        W34521  17.774   4.664  11.340 -0.1639 -0.1750 -0.0497
18448W        W34522  17.638  11.737   2.666  0.0919 -0.5192  0.0313
18449W        W34523   1.612   5.258  13.134 -0.1368 -0.1427 -0.1967
18450W        W34524  14.883  13.298  16.383 -0.2917  0.1619  0.3486
18451W        W34525  12.162  11.458  13.016  0.1471  0.1250  0.2347
18452W        W34526   9.872   0.949   5.821 -0.1265  0.2932 -0.2530
18453W        W34527   8.776  15.560  14.501 -0.0423 -0.1767  0.1198
18454W        W34528  18.177   2.013   2.471  0.1598  0.1291  0.2407
18455W        W34529   7.185   7.484  11.607 -0.1697  0.4120 -0.2614
18456W        W34530  12.249  15.408  14.204  0.2735  0.3120  0.0334
18457W        W34531  18.143   2.457   4.555 -0.0331  0.1348  0.1161
18458W        W34532  11.604  11.787  12.200  0.0873 -0.1324  0.0245
18459W        W34533   1.989   5.341   5.389 -0.0622  0.1101  0.4192
18460W        W34534  16.024   8.600  11.181  0.2478 -0.0989  0.3548
18461W        W34535  11.324  13.229  12.802  0.1157 -0.2918 -0.0237
18462W        W34536   0.883   6.444   0.096  0.1932 -0.0912 -0.2385
18463W        W34537  16.751  16.257   4.832 -0.0891 -0.2215  0.0133
18464W        W34538  17.114   6.681  11.204  0.2256 -0.1677 -0.0485
18465W        W34539  15.878   0.631   2.091 -0.0650  0.3216  0.0292
18466W        W34540  10.671  11.665  11.807  0.1987 -0.0486  0.1346
18467W        W34541  14.557   2.653   2.723  0.0484  0.2027 -0.4027
18468W        W34542  16.913   4.880   3.022 -0.4127 -0.1355 -0.2066
18469W        W34543   3.731  15.501   4.785 -0.4556 -0.0937 -0.1152
18470W        W34544   0.584   7.639   3.715  0.1831 -0.0185  0.0150
18471W        W34545   7.403  10.086   1.311  0.3590 -0.0335 -0.2104
18472W        W34546   2.594   1.819  14.968  0.3505  0.0808  0.1792
18473W        W34547   2.457   9.446  14.314  0.0371 -0.4004  0.3063
18474W        W34548  14.720   9.437   0.238  0.0574 -0.0649  0.1430
18475W        W34549   6.678   3.491   2.248  0.1449  0.1019  0.1220
18476W        W34550   1.462   1.934  12.869 -0.0649 -0.1088  0.0018
18477W        W34551   3.165   3.285   2.426 -0.1041 -0.0604  0.1081
18478W        W34552   5.996  10.492   0.607 -0.3336 -0.1957 -0.1773
18479W        W34553   6.414   1.008  16.011 -0.0149  0.0379 -0.0118
18480W        W34554   4.713   8.678   5.318 -0.0163  0.0754 -0.0678
18481W        W34555   1.321  15.122  12.190 -0.0359 -0.1713 -0.0633
18482W        W34556  11.513   3.135   4.952  0.2354  0.0694  0.2747
18483W        W34557  17.438   6.579   5.141 -0.0114 -0.2975 -0.1162
18484W        W34558   3.227  12.181  12.510 -0.0193 -0.3773  0.0573
18485W        W34559  12.447  12.659  14.407  0.3118  0.1042 -0.1460
18486W        W34560   4.107  17.274   4.337 -0.1063 -0.2868 -0.2034
18487W        W34561  15.189  13.206   4.685 -0.0079 -0.1698 -0.1037
18488W        W34562   3.684  15.906   3.273  0.1152  0.0997 -0.0322
18489W        W34563   2.377   2.778   3.364  0.0408 -0.0216 -0.0896
18490W        W34564   3.068   3.717  14.352 -0.3124  0.3352 -0.0370
18491W        W34565   1.153   3.586  16.154 -0.1565  0.3343 -0.0123
18492W        W34566   2.147  12.456  15.889 -0.2696 -0.0298 -0.2264
18493W        W34567  13.149   0.045   4.790  0.0199  0.1653 -0.4155
18494W        W34568   5.950   9.660   4.669 -0.0026 -0.1313 -0.0840
18495W        W34569  13.414  10.166   6.205 -0.2772 -0.0636 -0.1147
18496W        W34570  17.110   3.892   0.612  0.3029  0.2519 -0.0981
18497W        W34571   6.794   5.521   6.230 -0.0552  0.0207  0.4352
18498W        W34572  15.968   9.625  11.862  0.2138  0.2956 -0.2140
18499W        W34573  15.086  12.679   4.058 -0.2642 -0.0600  0.0609
18500W        W34574   3.655   7.288   3.461 -0.1828 -0.2254  0.0575
18501W        W34575  14.615   6.477   6.198 -0.0531 -0.1933 -0.0474
18502W        W34576   7.089   9.003  14.960 -0.2608  0.0593 -0.3299
18503W        W34577   1.272  14.606  12.038 -0.5031  0.3261  0.1493
18504W        W34578  16.138  16.993   0.258  0.1425  0.0326 -0.0561
18505W        W34579  18.320  12.248  11.444 -0.2232  0.0164  0.0902
18506W        W34580  13.681  11.836  14.558 -0.0939  0.0519  0.0643
18507W        W34581   2.241   1.719   1.108  0.2535 -0.1832  0.1080
18508W        W34582   4.399  16.228  15.664  0.0421  0.0513  0.1690
18509W        W34583  16.026   2.689   5.294  0.1797  0.1232  0.1533
18510W        W34584   7.564  18.313   2.817 -0.1285 -0.0305 -0.0749
18511W        W34585   2.594   1.612  13.630 -0.1117 -0.3202 -0.0537
18512W        W34586  16.636   5.620  13.413 -0.2448 -0.1430  0.1200
18513W        W34587   6.850  18.129   4.389 -0.0890 -0.1512  0.0100
18514W        W34588   2.049   8.357  12.809 -0.0193  0.3262 -0.0283
18515W        W34589   3.292   8.320   2.176  0.0921  0.2100  0.5130
18516W        W34590  12.186   2.989   2.209 -0.3569 -0.2703 -0.2230
18517W        W34591   6.021  10.338  11.689 -0.1030  0.3993 -0.1279
18518W        W34592   3.164   4.315   5.911 -0.0963 -0.2445  0.1944
18519W        W34593  12.213   9.140   1.102 -0.0486 -0.0415  0.1802
18520W        W34594   8.167   2.888   1.953  0.0062  0.2408 -0.2410
18521W        W34595  17.082   5.837   0.739 -0.1042  0.0618  0.1391
18522W        W34596   9.901  10.858   5.327 -0.2715  0.1119  0.0949
18523W        W34597   2.717   4.217   5.719 -0.2786 -0.1595 -0.2426
18524W        W34598   3.275   1.761  16.365  0.2403 -0.1457  0.2061
18525W        W34599   4.829   9.137   3.040 -0.0505 -0.4231  0.0526
18526W        W34600  14.342  14.483  14.403 -0.1168  0.0009 -0.0219
18527W        W34601   1.463  14.360   3.582  0.0380 -0.2180  0.3811
18528W        W34602   1.158   3.403   4.925 -0.2335 -0.1577 -0.1255
18529W        W34603   3.545  11.351  16.375  0.0409 -0.0131 -0.2007
18530W        W34604  13.209   1.232   3.591  0.0080  0.0615 -0.2484
18531W        W34605   1.755  17.293  13.096 -0.1051 -0.0863 -0.0481
18532W        W34606  13.281  10.541   5.638 -0.1218  0.2496 -0.1956
18533W        W34607  15.918   9.802  13.429 -0.1310 -0.1184 -0.5509
18534W        W34608  16.814  12.654  14.291 -0.2119 -0.1198  0.1590
18535W        W34609  10.983  13.625  11.655  0.0753 -0.0869 -0.4494
18536W        W34610   5.046   1.121   3.323 -0.1303 -0.3429 -0.2399
18537W        W34611  10.700  13.769   2.441  0.2109 -0.1452 -0.3788
18538W        W34612   4.036  15.907  13.695 -0.1323  0.0581 -0.0474
18539W        W34613   6.090  10.868  11.605  0.4222  0.2467  0.1925
18540W        W34614  10.952   0.966   1.540 -0.3565  0.1031  0.0503
18541W        W34615   9.366   0.093  14.787 -0.1310 -0.2991  0.0975
18542W        W34616  16.917   8.254   5.526  0.1250 -0.0511 -0.0367
18543W        W34617   4.008  11.928  13.775  0.0279  0.1050 -0.4234
18544W        W34618   1.860   4.243  12.262 -0.1073  0.0276  0.0255
18545W        W34619   5.326  17.063   3.443  0.3021  0.1780  0.0162
18546W        W34620  12.038   3.078  15.152 -0.1084 -0.3851 -0.1275
18547W        W34621  14.220   7.706  11.913  0.2369 -0.0437 -0.0264
18548W        W34622  15.757   6.569   2.611 -0.0136  0.0389 -0.1077
18549W        W34623   7.325  15.784  15.789 -0.2527 -0.5358 -0.2244
18550W        W34624   3.040  10.033  14.188 -0.0050  0.1914  0.1508
18551W        W34625  15.401   0.965   1.813  0.0128 -0.1264 -0.1301
18552W        W34626   9.302  14.597  13.273 -0.0005 -0.1278 -0.0605
18553W        W34627  13.484  11.096  12.878  0.0910  0.0858 -0.0733
18554W        W34628  13.473  15.211   4.541 -0.2032 -0.1254  0.0315
18555W        W34629   6.215   6.605  13.523 -0.1312  0.3596  0.2059
18556W        W34630  15.869   1.185   4.712 -0.3708 -0.0291  0.0234
18557W        W34631  17.743  10.490  11.973  0.1528 -0.0597 -0.2337
18558W        W34632   6.478   4.964  14.128 -0.0782  0.1359  0.0138
18559W        W34633  12.302   1.137   4.984 -0.4176  0.3591  0.0316
18560W        W34634  14.105   5.658   3.858  0.1134 -0.1115  0.4463
18561W        W34635   7.630  12.034  12.075  0.3473  0.2867  0.2808
18562W        W34636   2.457  16.031   0.222 -0.1592  0.2709 -0.3639
18563W        W34637   2.782  18.055   4.921  0.1096  0.1189  0.0428
18564W        W34638   8.611  16.139  11.475  0.1544  0.1929  0.1518
18565W        W34639  14.407   7.924   6.288  0.1439  0.1511 -0.1284
18566W        W34640   1.488  10.119  11.649 -0.1083  0.2718  0.0570
18567W        W34641   2.837  13.911  10.969  0.3826 -0.1837 -0.0448
18568W        W34642  14.530   2.834   4.984  0.0695 -0.1023 -0.2640
18569W        W34643   7.705  14.725   6.012 -0.0752 -0.1006  0.1483
18570W        W34644  14.289   3.325   2.138 -0.2367  0.0248 -0.1277
18571W        W34645  13.350  14.664   2.211  0.0149  0.2872 -0.0510
18572W        W34646  11.532  10.011   0.166  0.1819  0.4808  0.1223
18573W        W34647   2.295   5.748   5.390  0.0201  0.1950 -0.1418
18574W        W34648  15.244  13.379   3.390  0.2365 -0.0563 -0.2844
18575W        W34649   2.488   9.909   6.044 -0.1083 -0.0965  0.0475
18576W        W34650  14.047  15.086   1.986 -0.2491  0.1192  0.1275
18577W        W34651   2.645  15.852   3.201 -0.0344 -0.0656 -0.0428
18578W        W34652   0.083   0.412  15.311 -0.2117 -0.0510  0.2538
18579W        W34653  10.232  17.369   2.011 -0.4578 -0.0404  0.2069
18580W        W34654  10.382   1.445   2.176  0.1083  0.1911  0.0384
18581W        W34655   5.312   8.071  14.708  0.1168 -0.4921 -0.0174
18582W        W34656   8.239  15.770  11.456  0.2088  0.0257  0.0566
18583W        W34657   5.641  14.019   6.326  0.0314 -0.0284  0.2682
18584W        W34658  13.325  13.616  15.816  0.0887  0.0855 -0.0263
18585W        W34659   5.831  14.770   5.966  0.1153 -0.0588 -0.1293
18586W        W34660  12.375   3.487   2.150  0.3364 -0.1293 -0.1406
18587W        W34661   6.462  17.058   5.551 -0.2368  0.0434 -0.0177
18588W        W34662   5.894   8.109   2.789 -0.1241  0.2536  0.2181
18589W        W34663  16.805   5.405   4.395 -0.0394 -0.1411  0.1137
18590W        W34664   7.355   8.480  15.695  0.0126 -0.2518  0.0141
18591W        W34665   0.296   3.671  15.029  0.1536  0.1743  0.2175
18592W        W34666   5.682  15.673   0.971 -0.3548 -0.0244 -0.2133
18593W        W34667   3.095  13.410  14.250  0.2083  0.0354 -0.2076
18594W        W34668   0.368  17.022  12.605  0.0933 -0.0627  0.1685
18595W        W34669   6.056   3.866  16.094  0.0944  0.2458 -0.0174
18596W        W34670   4.518  15.041   4.903  0.0435  0.0977 -0.0540
18597W        W34671  12.004   2.550  12.516 -0.1897 -0.3885 -0.2294
18598W        W34672   2.176  12.625   1.046  0.1292  0.2466  0.0185
18599W        W34673   5.428  15.466   5.549 -0.0227  0.1662 -0.0035
18600W        W34674   0.138   3.715  12.815 -0.3187 -0.1009 -0.0786
18601W        W34675   1.196   1.176   0.235 -0.2633 -0.2991 -0.1509
18602W        W34676  16.544   6.272   3.811 -0.1132 -0.3181  0.0064
18603W        W34677  15.692   9.361  11.460  0.1748 -0.1507 -0.2221
18604W        W34678   3.293   1.609   4.992 -0.0821 -0.1177 -0.1992
18605W        W34679   8.063   5.174  11.686 -0.1940 -0.0499  0.1511
18606W        W34680  15.346   0.508  11.363 -0.0855 -0.1031 -0.0115
18607W        W34681   1.524   6.136   5.235 -0.2699  0.1634  0.0864
18608W        W34682  11.005  18.011   5.048 -0.3392  0.2443 -0.1934
18609W        W34683   2.272  12.408   0.066  0.3523 -0.0084  0.1413
18610W        W34684   2.802   2.098   2.564  0.1990 -0.2070 -0.0537
18611W        W34685   7.343   4.483  15.143  0.1336  0.1512  0.1327
18612W        W34686   3.027   9.507  16.047 -0.2800  0.0834  0.1548
18613W        W34687   2.329   4.889  15.950  0.0452 -0.2277 -0.3081
18614W        W34688   6.382   3.080  14.270 -0.1546  0.0315 -0.1623
18615W        W34689   5.594  14.407  13.741  0.4775  0.0622  0.1823
18616W        W34690  13.275   5.773   1.598  0.1389 -0.1789 -0.1517
18617W        W34691   7.183  13.530  13.152  0.1593 -0.4432  0.1026
18618W        W34692   0.745   3.691  14.819 -0.1776 -0.1253  0.0517
18619W        W34693  15.497   7.567  15.327  0.0973 -0.0162  0.2855
18620W        W34694   7.488   6.524   1.349  0.2066 -0.0008 -0.1069
18621W        W34695  14.786   2.820  12.808 -0.0751  0.0233  0.0629
18622W        W34696  10.070   8.228   2.101  0.1024 -0.0498 -0.4941
18623W        W34697  15.810   3.586  16.012 -0.0944  0.0238  0.2258
18624W        W34698   7.736  10.381  15.336 -0.0518  0.1712  0.0193
18625W        W34699  14.720   1.013   2.635 -0.2362 -0.0721  0.2020
18626W        W34700   0.766  16.966   3.363  0.2417 -0.0324  0.0624
18627W        W34701  15.231   7.914   1.007 -0.3877 -0.0052 -0.1332
18628W        W34702   5.086  12.170   2.159  0.2457 -0.0972 -0.1747
18629W        W34703  11.790   2.274   0.618  0.2238 -0.2323 -0.0412
18630W        W34704   6.921   2.929  16.168  0.3520  0.2244 -0.1310
18631W        W34705  10.754  17.141  13.142 -0.3007  0.0182 -0.0094
18632W        W34706  14.162  12.344   3.526  0.1264  0.2136 -0.0114
18633W        W34707   7.680   8.194   0.697  0.1530  0.2120  0.1978
18634W        W34708   1.775  15.299  15.465  0.1538 -0.5277 -0.0869
18635W        W34709  14.798   8.686   4.623  0.0608 -0.0343  0.0268
18636W        W34710   6.200   9.599  15.507  0.4071 -0.1423 -0.3140
18637W        W34711  10.630   4.753   3.691  0.0161 -0.2966  0.2285
18638W        W34712  15.199  10.040  13.224  0.1315  0.0477 -0.0292
18639W        W34713  17.960  11.262  15.861  0.0015  0.0412  0.1370
18640W        W34714  17.191   9.755  14.312  0.0867  0.0629  0.2663
18641W        W34715   9.748   1.616   3.283  0.0151 -0.0584  0.2994
18642W        W34716   6.304   7.034   3.776 -0.1065  0.4804 -0.0240
18643W        W34717   1.994  13.448  12.698  0.2052  0.3062  0.0309
18644W        W34718  11.815   5.080   1.712  0.2050  0.0261 -0.0165
18645W        W34719  14.597   8.040   3.272 -0.1923 -0.2397  0.0102
18646W        W34720   0.918   8.304   1.341  0.2288 -0.2218  0.0420
18647W        W34721   0.829  13.682   3.245 -0.1953  0.0114  0.5179
18648W        W34722  17.693   8.158   4.960  0.2886 -0.0280 -0.4068
18649W        W34723  13.751   5.744  11.820  0.1443 -0.0311 -0.1138
18650W        W34724   4.206   4.269   2.306 -0.1025 -0.0892 -0.1012
18651W        W34725   0.274   4.036  11.348  0.2647  0.1092  0.1985
18652W        W34726  12.986   4.356   1.606 -0.0419  0.1235 -0.0484
18653W        W34727  15.243   7.551  14.097  0.0655  0.1635  0.0230
18654W        W34728   1.143  11.691  14.709 -0.0508 -0.1125  0.2150
18655W        W34729  14.583  18.224   0.282 -0.1463  0.1843 -0.1454
18656W        W34730  15.633  17.632   2.509  0.3026 -0.2538 -0.1050
18657W        W34731   2.154   2.467   2.343 -0.1627  0.1960  0.1339
18658W        W34732  12.300   4.552  11.903  0.2351  0.0073  0.1169
18659W        W34733  12.056   7.060   3.889 -0.2439  0.1994  0.1306
18660W        W34734  17.095   8.789   0.019 -0.1426  0.1120 -0.2151
18661W        W34735   6.435   9.333  15.957 -0.0299  0.1141 -0.0788
18662W        W34736   5.798  17.428  13.420 -0.0982  0.0567  0.1887
18663W        W34737   8.412   7.327   0.107 -0.0259  0.0256 -0.1948
18664W        W34738  18.309   1.780   2.076 -0.0900  0.0154  0.1066
18665W        W34739  13.727   2.185  11.246 -0.0804  0.1259  0.1302
18666W        W34740  17.117   5.951   0.055  0.0416 -0.0519  0.0303
18667W        W34741  18.329  12.012  13.322 -0.0504  0.0841 -0.0289
18668W        W34742   2.688   0.774   5.585 -0.4045 -0.1417  0.1147
18669W        W34743   4.037   8.431  15.809 -0.1295  0.1054 -0.2430
18670W        W34744  15.298  17.422   3.360  0.1146  0.1942 -0.0543
18671W        W34745   8.537   1.880  12.814  0.0463  0.3461 -0.0346
18672W        W34746   5.322  12.393   0.797  0.2570 -0.0988  0.0636
18673W        W34747  12.017   1.131  16.254 -0.2412 -0.0787 -0.3889
18674W        W34748  16.602   0.514   0.771  0.3178  0.0348 -0.1264
18675W        W34749  16.616  14.805   3.674  0.2302  0.2547 -0.0120
18676W        W34750  16.289   3.291  13.550  0.0400 -0.1962 -0.2580
18677W        W34751   8.017   9.801  15.241  0.2986  0.1479  0.2088
18678W        W34752   6.274   6.125  13.791  0.1072 -0.1995  0.1444
18679W        W34753  13.687   5.092  12.358  0.0518  0.3929  0.0846
18680W        W34754   7.717   9.029  16.320 -0.0533  0.0911  0.2342
18681W        W34755   3.673  13.503  15.533 -0.0148  0.3088  0.2316
18682W        W34756   8.257   6.130  11.531 -0.1671  0.0155  0.2412
18683W        W34757   0.905   7.179   0.711 -0.0236  0.0206  0.3421
18684W        W34758   2.710   0.673  13.190  0.1732  0.2796 -0.3857
18685W        W34759   4.364  13.670   3.243 -0.0003 -0.3750  0.0575
18686W        W34760   7.596   6.687  13.669 -0.0345 -0.0106  0.1047
18687W        W34761  11.668  17.278  11.713  0.0227 -0.0694  0.2815
18688W        W34762  10.268  13.921   1.266  0.2439 -0.0136 -0.0672
18689W        W34763  12.264   4.758   2.786 -0.0828  0.0768  0.0802
18690W        W34764   6.063  12.292   2.672  0.1450  0.0504  0.0624
18691W        W34765   6.612  16.262  14.070 -0.2863  0.0613  0.3943
18692W        W34766   1.459   6.879   6.316 -0.0161  0.1582 -0.2688
18693W        W34767   4.270  15.114  11.996 -0.2101  0.4428  0.0116
18694W        W34768  13.894  15.253   5.805  0.1361 -0.2405 -0.0254
18695W        W34769  12.465   4.772   5.432 -0.2493 -0.4303  0.1946
18696W        W34770   1.893   3.521   3.798 -0.0090  0.1832  0.1577
18697W        W34771  14.148   2.946   2.896 -0.1694 -0.0772 -0.0464
18698W        W34772   8.952   4.209   5.906  0.2618  0.1423 -0.3645
18699W        W34773  16.635   3.110  14.050  0.0397  0.0979  0.1060
18700W        W34774   9.816   9.703  11.506 -0.1060  0.1611  0.0341
18701W        W34775   7.842   3.400   4.586  0.1649  0.0157  0.0460
18702W        W34776  16.290   1.888  13.512 -0.5317  0.2005  0.2193
18703W        W34777   3.830  17.909   1.684 -0.1602  0.1018  0.0507
18704W        W34778   8.710   2.454  14.717 -0.1238 -0.0351  0.1868
18705W        W34779  16.761  11.435   4.652 -0.1029 -0.1797  0.0312
18706W        W34780   0.973   7.114   1.331  0.1293  0.1171 -0.0490
18707W        W34781   8.665   3.877  10.642  0.1351 -0.0153  0.0461
18708W        W34782  16.441  10.588   0.319  0.0079 -0.2440 -0.1843
18709W        W34783  10.526   3.971   3.015  0.3164  0.3694 -0.0186
18710W        W34784   1.460   6.420   6.117  0.3594 -0.6556  0.0075
18711W        W34785  18.230   9.406  16.324  0.2076 -0.1951 -0.0539
18712W        W34786  10.237   9.955   1.729 -0.0667 -0.1352  0.2613
18713W        W34787  14.926  17.386  11.371  0.0983 -0.2393 -0.1273
18714W        W34788   6.077   3.572   4.495  0.0021  0.0884  0.2852
18715W        W34789   9.281  11.059  12.963 -0.0288 -0.0956  0.0115
18716W        W34790   6.126  14.314  11.721 -0.2672 -0.2132 -0.1445
18717W        W34791   9.186   3.756  16.151  0.2525 -0.0948  0.0036
18718W        W34792   3.690   4.980  14.229 -0.0194 -0.0457 -0.0653
18719W        W34793  18.163   6.363  11.890 -0.2269  0.0102 -0.0671
18720W        W34794   2.563   6.098   1.835  0.1884 -0.0260  0.4225
18721W        W34795   0.843   8.884   1.126  0.0149 -0.0658  0.2584
18722W        W34796   0.118   2.998  12.055 -0.4140  0.0323  0.0011
18723W        W34797   7.725  15.038   3.506 -0.2347  0.1550  0.2887
18724W        W34798  12.683  13.182  12.220  0.1160 -0.3703  0.1089
18725W        W34799   6.204   2.855   3.781  0.2485  0.2239  0.0615
18726W        W34800   6.584   5.773   2.553  0.2487  0.0915 -0.1566
18727W        W34801   4.390   8.063  15.107 -0.0840 -0.1366 -0.0065
18728W        W34802   0.006  12.629  15.519 -0.1950 -0.0909  0.2152
18729W        W34803  13.817   2.259   4.686  0.1157  0.0612 -0.1144
18730W        W34804   3.960   2.369  13.376 -0.0028  0.0128 -0.1678
18731W        W34805   2.055   7.495  15.153  0.0330  0.1484 -0.3153
18732W        W34806  15.709   7.202  12.470  0.0709  0.0961 -0.0204
18733W        W34807  12.710   7.683   5.307  0.0706 -0.0794  0.2095
18734W        W34808  13.476   1.396   5.466  0.2699  0.0771  0.3520
18735W        W34809  12.955   9.771   5.051  0.1564  0.1390  0.0959
18736W        W34810  18.244   8.227   5.742  0.2849  0.0432  0.0860
18737W        W34811   2.893  17.742   5.480  0.1907  0.2952 -0.1115
18738W        W34812  10.019   7.851   4.891 -0.4592 -0.3150  0.2976
18739W        W34813   9.311  13.408   4.737  0.3661 -0.0651 -0.1053
18740W        W34814   0.435   6.876  15.241 -0.2416  0.1581  0.0666
18741W        W34815   1.974  11.668   0.480  0.4323 -0.1089 -0.1269
18742W        W34816   3.126  13.674   1.821  0.0281  0.1156 -0.2557
18743W        W34817  10.428  10.202   5.064  0.2853 -0.0329 -0.0327
18744W        W34818  11.725   8.543  15.417 -0.0469  0.2436 -0.0609
18745W        W34819  13.068  14.643  13.668 -0.0834 -0.1713  0.3257
18746W        W34820   4.905  15.062  14.248 -0.0810 -0.5208  0.5382
18747W        W34821   7.492  16.363  14.532 -0.2730  0.1678 -0.0512
18748W        W34822  10.067   2.624  13.173 -0.1381  0.1192  0.1481
18749W        W34823   6.634   0.691   1.915  0.2862 -0.2125 -0.0355
18750W        W34824   4.680   3.185   0.287  0.0033 -0.0063  0.4099
18751W        W34825   1.534   0.934  13.242 -0.1469 -0.0322  0.2184
18752W        W34826  12.095  14.388   3.072  0.1872 -0.5253 -0.0266
18753W        W34827   0.350   1.607   1.186  0.0085 -0.1035  0.0424
18754W        W34828  12.222   4.124  14.177 -0.0992  0.1052 -0.0540
18755W        W34829  15.688  15.414   2.526 -0.2857 -0.2425  0.4083
18756W        W34830  11.339   0.595  13.451  0.4405  0.0495 -0.0058
18757W        W34831  13.284   7.153   3.284 -0.1526  0.0425  0.1323
18758W        W34832  18.143   9.642   2.831 -0.2106 -0.0350 -0.0558
18759W        W34833   5.238   2.064  13.167  0.0562  0.1791  0.2073
18760W        W34834   1.216   5.179   2.658 -0.2470 -0.3435 -0.2582
18761W        W34835   0.296   5.006  14.001  0.0788 -0.4923 -0.0491
18762W        W34836   2.028  16.272  15.138 -0.1116 -0.0297  0.2486
18763W        W34837   1.538  11.006   0.567 -0.0415  0.5328 -0.2911
18764W        W34838   8.566   5.461  16.109  0.1351 -0.0769 -0.1050
18765W        W34839  13.062   8.564   3.291  0.2530  0.0354 -0.2528
18766W        W34840   2.156   8.424  12.170  0.1127  0.0391  0.1038
18767W        W34841   0.413   2.998   5.880  0.0629  0.1601 -0.0883
18768W        W34842  16.486  13.372  16.154  0.3971  0.1657 -0.0594
18769W        W34843  10.239   4.722   0.548 -0.2471 -0.0869 -0.4390
18770W        W34844   7.926  11.477  15.411  0.1463 -0.0621  0.0041
18771W        W34845   5.908   1.392  12.077 -0.1167 -0.2094 -0.2128
18772W        W34846   8.007   6.513  13.983  0.1872 -0.0025 -0.3761
18773W        W34847   0.058   6.227   1.547 -0.0235 -0.0455  0.3395
18774W        W34848   9.396   2.613   0.974  0.0296  0.1015 -0.0477
18775W        W34849   7.774   7.514  12.032  0.1224 -0.2187 -0.0359
18776W        W34850   8.589   8.241  16.135 -0.2658  0.0076  0.1363
18777W        W34851   8.442   6.202  11.057  0.1482  0.1059 -0.0647
18778W        W34852  13.478   8.830  11.337 -0.0063 -0.4227 -0.1316
18779W        W34853  11.052   6.061   4.941  0.0578 -0.2248  0.0059
18780W        W34854  13.470  10.918   2.790 -0.0016  0.1149 -0.2173
18781W        W34855  11.456   2.087  11.362 -0.0539 -0.0244 -0.2017
18782W        W34856  12.560  11.774  11.464  0.0694 -0.0030  0.2420
18783W        W34857  11.761   2.582   2.266  0.0362  0.0781  0.1108
18784W        W34858   6.115  14.433   2.104  0.0076 -0.1249 -0.1607
18785W        W34859   9.020   1.343   4.908  0.0854  0.1694  0.0211
18786W        W34860   9.789   1.795   0.760 -0.0276  0.0474  0.0175
18787W        W34861   2.778  15.575  13.771  0.2225 -0.1390 -0.0196
18788W        W34862   8.655   7.926   2.331 -0.0056 -0.2320  0.2468
18789W        W34863  11.713   5.472   2.926  0.0156 -0.2481 -0.1520
18790W        W34864   7.537   6.267  10.859  0.0492  0.0911 -0.1097
18791W        W34865  13.344  18.227   4.324  0.2733  0.1499 -0.2827
18792W        W34866  17.110   0.317   0.784  0.0506 -0.3026 -0.0449
18793W        W34867  15.925  16.296  13.011 -0.2221  0.0507  0.4294
18794W        W34868  18.167  11.626  14.870 -0.0169  0.1839 -0.0516
18795W        W34869   1.072  18.215   3.913 -0.1108  0.1253  0.2289
18796W        W34870   4.315  12.487  11.614 -0.1405  0.2300  0.1910
18797W        W34871   7.223  17.395  13.581 -0.0543 -0.0413  0.0747
18798W        W34872   7.132   7.966  14.154 -0.2020  0.1551 -0.1113
18799W        W34873   9.280  15.876  15.043  0.0605 -0.2042  0.0685
18800W        W34874   0.948  16.803  14.692  0.2653 -0.4386  0.0765
18801W        W34875   2.816   6.020   1.214 -0.0492 -0.0291 -0.0530
18802W        W34876   5.896   6.755  15.332  0.0626 -0.0203 -0.0771
18803W        W34877   5.794   2.864   1.341  0.3474  0.0443  0.3314
18804W        W34878   7.597   6.032  11.486 -0.0935  0.1303 -0.2523
18805W        W34879   1.824   6.439   2.033  0.3771 -0.2054 -0.2836
18806W        W34880  18.022   8.703  14.967 -0.1141  0.1081  0.1107
18807W        W34881   5.838   4.332  12.835 -0.0804 -0.0003  0.1739
18808W        W34882   5.230  13.953   3.433 -0.1317  0.0454  0.0030
18809W        W34883  11.941  17.744  12.404 -0.2105  0.2899  0.0679
18810W        W34884   3.557   9.274  15.029 -0.0411  0.1346  0.3744
18811W        W34885  14.217   2.441   3.149  0.0236 -0.1596 -0.1348
18812W        W34886  14.357  14.526  13.714 -0.1289  0.0992  0.0479
18813W        W34887  12.615   0.789  15.662 -0.1928  0.0000 -0.1058
18814W        W34888   8.968   5.819   4.176 -0.2282 -0.2767 -0.0900
18815W        W34889  17.152  17.890   5.797  0.1943 -0.2495 -0.0566
18816W        W34890  16.333   8.221   3.016  0.1265 -0.0053 -0.0642
18817W        W34891  12.127   7.454  12.549 -0.0738  0.0808 -0.1610
18818W        W34892  15.148  10.288  15.121  0.1246 -0.0248  0.1224
18819W        W34893  14.111   2.842   3.432  0.1581  0.0244  0.6002
18820W        W34894   5.306   0.048  14.293 -0.1099  0.0977  0.0203
18821W        W34895   8.322   2.912  15.872  0.0060 -0.0690  0.1009
18822W        W34896   7.337  10.352   0.263  0.4144  0.0126  0.0003
18823W        W34897   1.097   8.867  14.357 -0.1646 -0.0425  0.0556
18824W        W34898   9.133  10.986   2.690 -0.0982 -0.3989 -0.1603
18825W        W34899   1.780   5.107  14.177  0.0508 -0.0723 -0.1024
18826W        W34900  11.048  15.810  13.096  0.1885  0.0885  0.1831
18827W        W34901   1.457   6.026  10.929  0.0558  0.2422 -0.2833
18828W        W34902   8.519  16.492  15.320 -0.1771 -0.2545 -0.3174
18829W        W34903   0.824  11.130   2.648 -0.1790  0.0773  0.2377
18830W        W34904  17.010  16.513  12.912  0.2895 -0.3207 -0.0272
18831W        W34905   9.120   1.076   4.052 -0.0763 -0.1174  0.1979
18832W        W34906   7.926   3.553   3.346  0.1443 -0.0374  0.1297
18833W        W34907  10.243   6.086  10.805  0.3634 -0.0451  0.0419
18834W        W34908  16.882   6.121  13.172 -0.2355  0.0862 -0.3688
18835W        W34909  12.398  16.748  12.762 -0.1746 -0.1310  0.1079
18836W        W34910   2.208  14.302  13.738  0.1878  0.0862 -0.0138
18837W        W34911  14.850   5.188  14.116  0.1740 -0.1503 -0.2638
18838W        W34912  15.790   9.005  12.459 -0.0923 -0.2146 -0.0124
18839W        W34913   3.275   5.059  13.903 -0.0517  0.3224 -0.3164
18840W        W34914  16.883  10.932   2.400  0.1846 -0.0020  0.2616
18841W        W34915  15.012   6.093  15.179 -0.2859  0.2111  0.3008
18842W        W34916   7.391  18.319  14.837  0.4319 -0.1681 -0.0537
18843W        W34917   1.304  14.389  15.687  0.4469  0.2253 -0.0004
18844W        W34918  16.550   3.250   0.290  0.0065  0.1013  0.1186
18845W        W34919  16.381  12.295   4.584 -0.1543  0.1675  0.0271
18846W        W34920   7.929  18.225   5.463 -0.1307 -0.0837 -0.0513
18847W        W34921   5.063   3.880  15.383  0.1384 -0.0087  0.2453
18848W        W34922  12.597   9.372  13.795 -0.3911  0.1563 -0.1440
18849W        W34923   5.738   8.929   1.883 -0.1223 -0.1870  0.2198
18850W        W34924  15.842   0.007   5.381 -0.0302 -0.1548  0.0422
18851W        W34925  18.018   8.901   0.092 -0.3884  0.2022  0.0259
18852W        W34926   8.845  13.659  11.735 -0.1601 -0.2773  0.0841
18853W        W34927   5.364   6.546   3.129  0.4229  0.1007  0.1257
18854W        W34928   8.007  11.831  13.726 -0.2183  0.0586 -0.0155
18855W        W34929  14.389   1.866   0.896 -0.2282 -0.0013  0.2104
18856W        W34930   1.213  11.362   3.561  0.2501 -0.0246 -0.3038
18857W        W34931   4.175  15.895   3.326  0.1799  0.3146 -0.0985
18858W        W34932   8.487   7.814   0.686 -0.0553  0.3090  0.0223
18859W        W34933  17.346  11.595   4.807 -0.0995  0.1478  0.1283
18860W        W34934   8.612  13.898   0.831  0.2019  0.2187  0.0734
18861W        W34935   7.892  15.532   2.523 -0.0500 -0.1093  0.0277
18862W        W34936   5.893   2.138  12.591 -0.0428 -0.2598  0.0673
18863W        W34937  12.421   2.398   6.090 -0.2061  0.1084  0.0687
18864W        W34938   5.078   9.320  12.971  0.3568  0.1568 -0.0268
18865W        W34939   6.953   0.641   3.712  0.4542 -0.0961 -0.0733
18866W        W34940   9.253  16.061   5.644  0.0471  0.2893  0.1032
18867W        W34941  10.675  14.611  16.218  0.1031  0.1939  0.6224
18868W        W34942   2.647   5.107   1.726  0.1353  0.1824 -0.0585
18869W        W34943  15.780   9.294   2.057  0.0138 -0.2857  0.1057
18870W        W34944   1.102  12.956   2.556 -0.0569  0.3612  0.1551
18871W        W34945  13.868   3.470   0.118  0.3896 -0.0980  0.0338
18872W        W34946  13.081   1.495  13.015 -0.3025 -0.1431 -0.1395
18873W        W34947  11.893   1.037   0.384  0.0899  0.1799 -0.0022
18874W        W34948  12.115  13.222   5.183  0.2716  0.3263 -0.1303
18875W        W34949   1.946  12.396  11.683 -0.0075  0.2677  0.0968
18876W        W34950  17.658   3.295   3.955 -0.1590  0.1123 -0.3907
18877W        W34951   3.758   3.158   3.656  0.1073 -0.2281 -0.0168
18878W        W34952  16.308  10.737   4.137 -0.0489  0.0590  0.0582
18879W        W34953  14.654   1.669  14.848 -0.1035 -0.1975 -0.1053
18880W        W34954  17.479  12.274  12.025 -0.1066 -0.0270  0.1571
18881W        W34955  14.745  15.830  15.785  0.0089  0.1058 -0.0388
18882W        W34956   8.258   0.746   1.188 -0.1181 -0.1709 -0.2205
18883W        W34957   8.814   3.435   2.367  0.1352 -0.0427 -0.0938
18884W        W34958  13.635   2.994  14.334 -0.1792 -0.0093  0.0882
18885W        W34959  17.560   8.562  11.327  0.3547  0.1700 -0.0549
18886W        W34960   7.404  16.902   4.185  0.3258 -0.4002 -0.3564
18887W        W34961   5.255  13.696  14.355 -0.0672  0.1273 -0.1715
18888W        W34962  13.572  14.356  14.847  0.0830 -0.2480 -0.1085
18889W        W34963  13.729   6.500  10.147  0.0155  0.2315 -0.3983
18890W        W34964   9.085   6.319   5.742 -0.0127 -0.2510  0.1522
18891W        W34965   6.997   6.860   3.303  0.0338  0.0694 -0.3142
18892W        W34966   3.497   9.903  15.924  0.2988 -0.0822 -0.1559
18893W        W34967  10.388   5.187   0.408 -0.0693 -0.3094 -0.0772
18894W        W34968   9.506   7.327  13.099  0.0567  0.1425 -0.2474
18895W        W34969  16.704   3.350   5.003 -0.2177 -0.0850  0.2431
18896W        W34970   3.935   2.487   0.174 -0.4116  0.2452 -0.2117
18897W        W34971   6.572   7.406   1.981  0.2774  0.2483  0.2331
18898W        W34972   8.363  12.149   3.904 -0.1167 -0.0176  0.1039
18899W        W34973   5.622   8.655   3.659  0.2380  0.3275 -0.0094
18900W        W34974   0.332   4.048  15.391  0.1008  0.0082  0.0013
18901W        W34975  12.190  11.027   1.171  0.1779  0.0612  0.1236
18902W        W34976  15.809   3.201   1.522  0.1152 -0.1571 -0.1537
18903W        W34977  11.598  12.426   2.561  0.3407 -0.1890 -0.2150
18904W        W34978   6.091  12.054   5.120  0.0259  0.0972 -0.0525
18905W        W34979  11.907   8.463   1.271 -0.3001  0.1093 -0.4076
18906W        W34980   7.612   8.818   1.964  0.2118 -0.0787  0.3501
18907W        W34981   7.083   9.287  11.225 -0.3103  0.0241  0.1496
18908W        W34982   6.968  13.073  14.568  0.1555 -0.0432  0.0044
18909W        W34983   7.056  17.051  12.147 -0.0233 -0.0463  0.0872
18910W        W34984  17.241  14.625   5.500  0.0619  0.2774  0.3705
18911W        W34985   1.151   0.417   0.096  0.1173  0.2236  0.0318
18912W        W34986  10.093   3.046   1.390 -0.2016 -0.0476 -0.3401
18913W        W34987   3.277   1.187  12.862  0.1578 -0.0333  0.1732
18914W        W34988   8.983  12.978   2.724  0.2294 -0.2338 -0.0279
18915W        W34989   2.888   8.367   4.969  0.1352  0.1131 -0.0675
18916W        W34990  18.242   7.930  15.596 -0.2372  0.1176  0.1878
18917W        W34991   9.453  16.277   2.284 -0.1277  0.2327  0.0720
18918W        W34992  12.039  15.557  15.053  0.1005  0.0020 -0.1220
18919W        W34993   6.829  18.126   3.525  0.1192  0.0181  0.2267
18920W        W34994  17.048   0.620   2.923  0.0845 -0.1158  0.1258
18921W        W34995   6.504   7.318   0.284 -0.3736 -0.0214  0.1656
18922W        W34996   1.182   5.101   5.253  0.2041  0.1672  0.0699
18923W        W34997  10.052   1.213  16.002  0.1060 -0.0426 -0.0095
18924W        W34998  15.036  12.658  13.361  0.2497 -0.0755  0.1610
18925W        W34999   5.648  13.378   0.322  0.1161 -0.0361 -0.0939
18926W        W35000   6.731   2.286  13.416 -0.1281  0.2799  0.0777
18927W        W35001   4.051   2.969  11.749 -0.2055  0.3729 -0.0332
18928W        W35002  17.034   4.407   5.957  0.0472  0.0654  0.2186
18929W        W35003  14.246  11.191  16.112  0.1653 -0.0772  0.2469
18930W        W35004   4.993  12.658  12.280  0.1654  0.0484  0.2553
18931W        W35005  15.002  16.478  14.318  0.0918 -0.1801  0.0873
18932W        W35006   4.556   7.633  11.290  0.0107  0.2610 -0.0289
18933W        W35007   5.607  10.217   0.755  0.3764  0.1986  0.0485
18934W        W35008  17.530   9.689  11.976  0.2306  0.0149  0.2953
18935W        W35009   4.370  13.942  15.200 -0.1362  0.3015  0.1005
18936W        W35010   3.889   4.250  13.036  0.0015 -0.2042  0.1634
18937W        W35011   7.302  17.763  13.222  0.2051 -0.1642  0.1933
18938W        W35012   1.902  11.479  16.044  0.0479  0.2977 -0.0570
18939W        W35013  16.639  17.485   5.131 -0.0371  0.0122  0.4374
18940W        W35014   1.488  17.817   5.022  0.0776 -0.0239 -0.1841
18941W        W35015  11.110   1.611  13.459  0.5474  0.3343 -0.0606
18942W        W35016   3.635  12.447   3.534  0.2320  0.1507 -0.0182
18943W        W35017   8.036   8.345   1.113  0.0051 -0.0883  0.2965
18944W        W35018  14.639  14.271  15.611  0.2071  0.2960 -0.1881
18945W        W35019  11.146   1.642   5.441  0.4441 -0.0630  0.2619
18946W        W35020   0.886  15.079  14.239  0.2092 -0.0425  0.3053
18947W        W35021  13.434  11.987  12.813 -0.0876  0.3067  0.0462
18948W        W35022   7.150   2.596  14.885  0.0587  0.3595  0.4014
18949W        W35023  12.711  16.516   3.366  0.1638 -0.4714 -0.1354
18950W        W35024   8.603   3.460   1.592 -0.1355  0.0754  0.2055
18951W        W35025   9.237  14.858   0.629  0.1322  0.1529 -0.2058
18952W        W35026  11.271   3.681  10.997  0.0405  0.0425 -0.0304
18953W        W35027   7.279  11.006   1.726 -0.0315 -0.0330  0.1113
18954W        W35028  11.902   3.476   4.689  0.1734 -0.0000  0.4677
18955W        W35029  15.616   1.025   0.191 -0.0399 -0.0072 -0.0963
18956W        W35030  14.843   4.760  13.276  0.3033  0.0252 -0.1959
18957W        W35031  14.437  15.216   2.501 -0.1932 -0.0306  0.2892
18958W        W35032   9.227   6.580   5.172 -0.3034  0.1323  0.2567
18959W        W35033  17.944   0.198   5.691  0.0749  0.1387  0.4541
18960W        W35034  14.232   4.259  11.125  0.3212  0.0388  0.1114
18961W        W35035  16.601  11.423   3.401 -0.2367 -0.0089  0.2367
18962W        W35036  11.636   2.941   3.071  0.0418 -0.0519 -0.2967
18963W        W35037   6.899  11.457  12.484  0.0883  0.0769  0.0985
18964W        W35038  10.502  11.211  12.999 -0.0178  0.3693 -0.0500
18965W        W35039  10.210  10.346  15.312  0.1932  0.1735 -0.0236
18966W        W35040   1.474  10.128   2.967 -0.0124 -0.2365  0.1678
18967W        W35041   4.134   2.466  12.002 -0.0079 -0.3185  0.0856
18968W        W35042   6.637   1.436   5.589 -0.0715 -0.0193 -0.1916
18969W        W35043  11.857   5.907  13.323 -0.3012 -0.1206 -0.2141
18970W        W35044  11.471   9.529  12.755  0.1531 -0.1211  0.0089
18971W        W35045  14.970   0.929   2.168 -0.0067  0.1437 -0.2677
18972W        W35046  11.063   2.691   3.899  0.0156 -0.1315 -0.0524
18973W        W35047   9.600   0.411  13.523  0.1886  0.2831  0.2803
18974W        W35048  11.805  14.095  14.957  0.2580  0.2647  0.2386
18975W        W35049  10.679  14.933  11.860 -0.0093  0.1793 -0.2833
18976W        W35050  14.503   8.204  13.311 -0.1252  0.0094 -0.0639
18977W        W35051   3.404   4.622   1.579 -0.1471  0.1678  0.0537
18978W        W35052   9.610   7.544  14.386  0.0669  0.1209  0.1051
18979W        W35053  13.012   0.738  14.550 -0.0699 -0.3529 -0.1734
18980W        W35054  14.770  12.712  15.718  0.0165 -0.2564 -0.1869
18981W        W35055   3.926  11.954   4.238 -0.2393 -0.1945 -0.0966
18982W        W35056   9.110  16.834  13.603 -0.3909  0.0958 -0.1132
18983W        W35057   7.061   3.309  15.512 -0.3578 -0.4685  0.3763
18984W        W35058  12.357   5.107  15.786 -0.0419 -0.3092  0.1875
18985W        W35059   5.672  12.007   0.769  0.3872 -0.1165 -0.0382
18986W        W35060   6.925   1.664  15.050 -0.2810 -0.2346  0.1378
18987W        W35061   5.618  16.153  12.400 -0.0913  0.1078 -0.0429
18988W        W35062   9.347  11.165  12.416 -0.0452  0.0949  0.0802
18989W        W35063   2.880   1.534  13.168  0.0555 -0.0117 -0.2459
18990W        W35064   9.848  18.254   4.522 -0.0437 -0.1978  0.2594
18991W        W35065   1.518   0.459  14.032  0.2355  0.1362 -0.0247
18992W        W35066   4.946  17.015  15.719  0.0243  0.1512 -0.0421
18993W        W35067  14.797  14.746  15.512 -0.1141 -0.0048  0.0990
18994W        W35068  11.989   0.860  14.259 -0.2692 -0.0680 -0.0175
18995W        W35069   4.298   8.871  11.891  0.0330 -0.2063 -0.2977
18996W        W35070   8.936  12.325  15.169  0.1015  0.0199  0.0527
18997W        W35071  15.113   9.407   1.134 -0.0114  0.0062  0.0683
18998W        W35072   2.821  11.119  15.308  0.1010 -0.0923 -0.1912
18999W        W35073   3.882  11.305  11.313  0.1887  0.0479 -0.1220
19000W        W35074  17.552   0.864  12.692  0.2449  0.0401 -0.1518
19001W        W35075  16.152  14.648  12.117  0.0546 -0.1782 -0.0574
19002W        W35076   4.839  17.623   5.340 -0.1087 -0.6129 -0.3315
19003W        W35077  11.213   0.248  11.788 -0.0222 -0.0753  0.2923
19004W        W35078  10.264  12.158  12.429  0.0326 -0.1018  0.0295
19005W        W35079  11.907   8.692   4.884 -0.0716  0.1009  0.4924
19006W        W35080   3.963   5.468   0.183  0.1309  0.3395  0.1533
19007W        W35081  13.408   4.261  12.748  0.4011  0.0993 -0.0157
19008W        W35082   9.502   7.401  13.643  0.0232 -0.2587  0.1940
19009W        W35083   2.554   1.302  12.420  0.0695  0.1047 -0.1966
19010W        W35084  17.620  15.255   1.244  0.2194  0.1213  0.0247
19011W        W35085   2.578   1.295   1.101  0.2433  0.1112 -0.2600
19012W        W35086  12.432  11.158  13.356 -0.1301 -0.1193  0.1044
19013W        W35087  16.171   4.823   1.454 -0.1577  0.1297  0.1328
19014W        W35088   3.224   7.094  10.828  0.0785 -0.1826 -0.0834
19015W        W35089   4.736   3.467  16.169  0.2822  0.0989  0.0662
19016W        W35090   5.861  17.467   6.178 -0.3080  0.2130  0.1301
19017W        W35091  13.139  11.098  15.788 -0.2975  0.0589  0.4250
19018W        W35092   9.878  17.178  16.082 -0.1270 -0.0231 -0.0622
19019W        W35093  10.085  12.514   5.209 -0.0711 -0.0143  0.1006
19020W        W35094   6.217  15.616   4.482 -0.0328  0.2661 -0.2203
19021W        W35095   6.188   4.121   4.637 -0.1512 -0.1989 -0.0048
19022W        W35096  11.462   3.390  15.846  0.0589  0.2908 -0.0157
19023W        W35097   7.655   8.429  16.393  0.2128  0.4086 -0.2292
19024W        W35098  15.140   2.503  12.129  0.1214  0.1276  0.0588
19025W        W35099   9.309  13.440  12.050 -0.4079  0.0594  0.0057
19026W        W35100   8.722   7.232  14.872  0.2421 -0.1118  0.0354
19027W        W35101   7.939   0.512  13.508  0.0304 -0.0053 -0.2098
19028W        W35102  11.262   0.664  16.012  0.1195 -0.2106 -0.2617
19029W        W35103  15.827  12.812   0.723  0.0203 -0.0139  0.1068
19030W        W35104  18.117   1.496   4.890 -0.2789 -0.1272  0.0605
19031W        W35105   0.680   1.546  14.871 -0.3420 -0.4655  0.0643
19032W        W35106  10.925  15.556   1.633  0.1418  0.1424  0.3170
19033W        W35107   2.712  17.549   2.259  0.0557  0.0497  0.0252
19034W        W35108  15.488  11.887   2.972  0.3165 -0.0640  0.2089
19035W        W35109  16.939  17.231   4.807 -0.0640  0.0130 -0.3479
19036W        W35110  10.042   7.941  15.899  0.1329 -0.0228  0.1754
19037W        W35111   9.462  15.313   0.982  0.2658 -0.1626  0.1109
19038W        W35112  10.361  15.077   4.459 -0.1316  0.2798  0.1935
19039W        W35113   6.858   3.103   0.388  0.2726  0.2375 -0.1096
19040W        W35114   9.154   6.868   0.469  0.1651 -0.2481 -0.1062
19041W        W35115   2.805  11.773  10.280  0.0094  0.1692  0.2105
19042W        W35116   0.401   9.879  15.950  0.2419  0.0103  0.0138
19043W        W35117   6.283  13.553   4.191  0.0489  0.2961  0.0368
19044W        W35118  14.342   2.549  12.882  0.1745 -0.1802 -0.0855
19045W        W35119  12.017  13.673   2.499 -0.0034  0.1649 -0.0940
19046W        W35120   7.063   1.354  13.056 -0.1443 -0.1854  0.1927
19047W        W35121   2.208   5.831   1.414 -0.1216 -0.1255  0.0814
19048W        W35122   2.783  11.072  14.837 -0.3754 -0.4013  0.1446
19049W        W35123   7.424   5.271  13.667  0.0296 -0.0418 -0.0508
19050W        W35124   1.367   5.774   1.312  0.1226  0.3745  0.1851
19051W        W35125   9.627   3.429   3.072 -0.0820  0.0880  0.1096
19052W        W35126   5.846   2.248  11.649 -0.0223 -0.3048 -0.1230
19053W        W35127  14.264   2.824  12.471  0.0851  0.1786 -0.2162
19054W        W35128  17.963  12.811   4.281 -0.2121  0.3231 -0.2559
19055W        W35129  17.364   0.736  16.368 -0.2681  0.0267  0.2189
19056W        W35130   7.893   8.486  14.991 -0.1654 -0.2282 -0.1203
19057W        W35131   8.117  14.472  16.028  0.3391  0.0141 -0.0934
19058W        W35132  11.646   5.467  14.111  0.1412 -0.0713 -0.0607
19059W        W35133   0.770   5.039   0.606 -0.0022 -0.0812 -0.1803
19060W        W35134   7.164   7.035   0.501 -0.1686 -0.0295  0.3354
19061W        W35135   0.813   5.934   4.990  0.3918 -0.1082 -0.1781
19062W        W35136  17.775  12.275   3.876 -0.1363  0.1138 -0.2296
19063W        W35137   5.503   8.499   0.110  0.0991 -0.3021  0.0308
19064W        W35138   5.001   5.548  13.593 -0.1597 -0.0676  0.3239
19065W        W35139   8.568   8.416   0.196 -0.0720 -0.1606  0.0755
19066W        W35140   6.818   3.411  11.246  0.3947 -0.0744 -0.3241
19067W        W35141   8.606   6.875   0.193  0.2823  0.0717  0.1364
19068W        W35142   8.032  17.362  12.495 -0.0307 -0.1111  0.2390
19069W        W35143   1.811  11.546  15.121  0.3273 -0.1168 -0.1111
19070W        W35144   3.952  12.265  11.402  0.1961 -0.0388 -0.0381
19071W        W35145  11.159   1.786   0.826 -0.2536  0.1454 -0.1040
19072W        W35146   9.754   1.822  15.467  0.0335 -0.0852 -0.2643
19073W        W35147   3.171  12.091   2.899 -0.4377  0.1214  0.1618
19074W        W35148   8.082   3.799  13.729  0.1098 -0.0785 -0.1333
19075W        W35149   6.341   0.271   2.333 -0.2648 -0.1843  0.0547
19076W        W35150  17.097   2.597  16.370  0.0206  0.1161 -0.2753
19077W        W35151  18.062  13.148   0.747 -0.0846  0.1946  0.2403
19078W        W35152   7.902  12.347   5.855 -0.0604  0.1523  0.0800
19079W        W35153   4.778  12.083   6.083  0.0795  0.2951  0.2040
19080W        W35154   1.107  14.235   2.619 -0.2714  0.0130 -0.0924
19081W        W35155   8.028   4.362   2.254  0.1552 -0.2112 -0.0010
19082W        W35156   6.325   1.370  12.827  0.0741  0.0441 -0.1965
19083W        W35157  17.561  13.537   2.721 -0.0841 -0.0696  0.0987
19084W        W35158  13.568   9.092  15.158  0.0232 -0.3545  0.6342
19085W        W35159  12.687  11.051  15.596  0.0538  0.2001 -0.0164
19086W        W35160  15.625   1.573   4.395  0.0868  0.1702 -0.4055
19087W        W35161  16.959  11.265   0.682  0.3024 -0.0915  0.2505
19088W        W35162   7.650   3.584  12.923  0.1167 -0.2494  0.2208
19089W        W35163   9.699   8.700   2.309  0.6118  0.1301 -0.1237
19090W        W35164   2.222  11.219   3.611  0.0166 -0.3859  0.2381
19091W        W35165  11.715  12.547  15.880  0.3438 -0.3890 -0.1556
19092W        W35166   1.426  10.976   5.790 -0.1105 -0.2255 -0.1706
19093W        W35167   3.965  15.359  15.189 -0.2535  0.2860  0.0207
19094W        W35168  15.725  18.053   4.729  0.2205  0.0231 -0.3344
19095W        W35169  18.032   1.287  13.048 -0.1995  0.1745 -0.2164
19096W        W35170  17.398  14.742   1.348 -0.5053  0.0689 -0.0471
19097W        W35171   5.519   1.841   1.451  0.0186  0.2034 -0.2180
19098W        W35172  13.566  14.969   1.847  0.1707  0.1436  0.1193
19099W        W35173   7.879   9.815   5.587 -0.0292  0.1069 -0.0419
19100W        W35174   2.549   6.304  13.340 -0.2651 -0.1236  0.0585
19101W        W35175   7.378  16.428   5.458 -0.0319  0.2272 -0.3421
19102W        W35176   1.775  16.575  11.234 -0.0295  0.3810 -0.1716
19103W        W35177   3.210   5.196   0.427 -0.0655  0.1797  0.3114
19104W        W35178   0.209  11.554  13.363  0.1537 -0.0136  0.2869
19105W        W35179   9.176   1.594   1.144  0.0636  0.1368  0.1532
19106W        W35180  11.492   1.556   1.772  0.3253  0.3787 -0.2077
19107W        W35181  17.991  14.098  12.079 -0.1381  0.0763  0.1473
19108W        W35182   0.337  12.912  13.385  0.0205 -0.0583  0.1005
19109W        W35183  14.803   9.289   2.068  0.4181  0.2462  0.0694
19110W        W35184   6.551   9.387  11.103  0.5323  0.0702  0.1864
19111W        W35185  11.946  10.625  15.909  0.0089 -0.2545  0.1183
19112W        W35186  10.962  10.743  16.083 -0.2164  0.0054  0.2525
19113W        W35187  15.116  11.470   2.111  0.1803 -0.0747  0.1592
19114W        W35188   8.619   1.082   5.039  0.3461 -0.1381  0.0314
19115W        W35189   2.891   1.609   4.018 -0.0650  0.0678  0.0473
19116W        W35190   0.621   7.682  12.134  0.1081  0.1089  0.3642
19117W        W35191   4.493  12.204   1.505 -0.1567  0.2921 -0.2314
19118W        W35192  13.106  11.189  16.314  0.1157  0.0330 -0.3308
19119W        W35193  16.808  12.679   2.821 -0.2982 -0.0217  0.1212
19120W        W35194   2.342  13.282   2.434 -0.1011 -0.0187 -0.4703
19121W        W35195  16.556  16.381   0.852 -0.0434 -0.2864 -0.0169
19122W        W35196  16.497   4.478   1.322  0.3743 -0.0433  0.0733
19123W        W35197   6.334   7.504   3.520  0.4081  0.2332  0.1006
19124W        W35198  12.692  11.752   2.389  0.1860 -0.2132 -0.0274
19125W        W35199   7.390   1.847   4.472  0.0318  0.1345  0.0037
19126W        W35200   4.783   0.212  12.055 -0.1369 -0.2695 -0.3100
19127W        W35201   7.727  17.810  12.384  0.0854 -0.1104  0.0268
19128W        W35202  13.566  14.421  16.358 -0.0373 -0.3085  0.0528
19129W        W35203  15.946  14.132   5.430 -0.3440  0.0835  0.2686
19130W        W35204  15.170  18.239  14.709 -0.1120  0.0404 -0.0332
19131W        W35205  17.795  17.171  12.810 -0.1155 -0.3818 -0.3645
19132W        W35206   8.747  14.712  15.260  0.3825  0.3212  0.2349
19133W        W35207   0.443  11.456  11.864 -0.0954 -0.1810 -0.0344
19134W        W35208  15.199  16.850  12.748  0.2069 -0.1548 -0.1466
19135W        W35209  11.001   6.563  12.191  0.0210  0.0587 -0.0018
19136W        W35210  10.339   0.231   4.374 -0.0021 -0.1980  0.2669
19137W        W35211   8.224   9.210  14.523  0.0258 -0.2599  0.0378
19138W        W35212   9.581   0.435   1.400 -0.2967 -0.3295 -0.1743
19139W        W35213   4.079  14.885  12.898  0.2801 -0.0713 -0.3323
19140W        W35214  15.808   9.185  11.931 -0.1154  0.3588  0.0972
19141W        W35215  17.869   0.210  12.312 -0.0994  0.0202 -0.1240
19142W        W35216  13.216   4.390  14.202 -0.0184 -0.0903  0.1327
19143W        W35217   9.363   1.751   2.264  0.0962 -0.1110  0.1228
19144W        W35218   9.093   4.285   0.580  0.3303 -0.0155 -0.1261
19145W        W35219  11.400  15.602  12.755 -0.0128  0.0171  0.0996
19146W        W35220   5.404  14.587  11.598 -0.0649 -0.0364 -0.0646
19147W        W35221  12.435  18.100   2.345 -0.1194 -0.1422 -0.0339
19148W        W35222  16.552  15.870  16.000  0.1507  0.0318  0.1443
19149W        W35223   5.098   4.667   3.508 -0.2864 -0.2529 -0.1901
19150W        W35224  18.213   4.107   4.683 -0.3148 -0.1566 -0.4519
19151W        W35225   0.265   2.158   3.945 -0.0247 -0.2067 -0.0133
19152W        W35226   9.302   3.332  14.431  0.3709  0.0507 -0.0489
19153W        W35227   8.346   1.309   5.340  0.0093 -0.0063 -0.1063
19154W        W35228  14.732  14.088   5.484 -0.1494  0.0702 -0.1033
19155W        W35229   5.432   2.720  15.352  0.0303  0.1056 -0.1006
19156W        W35230   4.040   2.794   3.859 -0.1090  0.0180  0.0919
19157W        W35231   0.648   9.079  12.099 -0.0551  0.0417  0.0095
19158W        W35232  13.855   7.155  14.420 -0.0808  0.0247  0.3312
19159W        W35233   9.119   9.305   2.015 -0.0087 -0.1856 -0.1655
19160W        W35234  16.588   2.763   3.707  0.5179 -0.1981 -0.0179
19161W        W35235   1.694   2.891  14.607 -0.4190  0.0143 -0.0889
19162W        W35236   9.842   5.753  16.306  0.0380 -0.0174  0.1083
19163W        W35237   6.084  17.167  16.196 -0.1224 -0.1468 -0.2947
19164W        W35238   5.128  13.895   0.107  0.0542  0.0410 -0.4430
19165W        W35239  14.917   3.693  12.039 -0.1205  0.2327  0.2927
19166W        W35240   6.654   5.431   2.925  0.0217  0.0603  0.0487
19167W        W35241  10.032   3.748   4.406 -0.1063  0.1803 -0.0183
19168W        W35242  16.154   3.943  12.725  0.1939 -0.2792 -0.0245
19169W        W35243   9.272  12.331   5.194  0.3977 -0.0076  0.3275
19170W        W35244   2.953   8.909  13.324 -0.2189  0.4028  0.2345
19171W        W35245   5.084  18.236   2.101 -0.1087 -0.1327  0.1304
19172W        W35246  15.622  14.564   3.699 -0.0783  0.0864 -0.1050
19173W        W35247   5.551  17.781  14.517  0.1741 -0.1872 -0.3186
19174W        W35248  15.684  11.557  14.857  0.2022 -0.0962 -0.1648
19175W        W35249   3.534  12.522   4.622  0.0423 -0.0890  0.0169
19176W        W35250  17.236   9.474  10.492 -0.1850  0.0081 -0.3960
19177W        W35251   6.722  16.225  12.226  0.5248 -0.1094  0.0856
19178W        W35252   2.109   4.658   4.252 -0.1407 -0.1980  0.1218
19179W        W35253  10.206   3.461   1.145 -0.2868 -0.0539 -0.1051
19180W        W35254  11.250   1.499  15.765 -0.0701 -0.1483 -0.3209
19181W        W35255  15.136  14.315  14.099  0.1384  0.1152  0.0075
19182W        W35256   3.539   5.652   0.519  0.1186  0.1509  0.0403
19183W        W35257   4.033   0.144  11.406  0.0368 -0.2008  0.5656
19184W        W35258   9.517  15.751  10.646  0.0470  0.2129 -0.0009
19185W        W35259   3.747  13.905   4.859  0.1759  0.0365  0.0221
19186W        W35260  16.300   3.425   4.326 -0.0793  0.2620  0.2071
19187W        W35261   2.078  17.976  11.623 -0.2247  0.2942  0.1261
19188W        W35262   6.267  18.326   3.447  0.0206 -0.0751 -0.3224
19189W        W35263  10.592  15.851  13.405 -0.0431 -0.1902  0.1889
19190W        W35264  12.289  14.642   5.025  0.4645  0.0160  0.3547
19191W        W35265   3.814   7.594  14.292 -0.0865 -0.1210  0.5105
19192W        W35266  16.030  15.834   3.849 -0.1655 -0.0133 -0.2516
19193W        W35267   8.803  15.152  11.810 -0.0723 -0.0996  0.2947
19194W        W35268   3.229   7.236  12.105  0.3833  0.1723 -0.1403
19195W        W35269   2.271   2.847   1.072 -0.2907 -0.0943  0.1686
19196W        W35270   0.626  11.114  11.527  0.1909 -0.0207 -0.0956
19197W        W35271   5.836  11.216  12.136  0.1126  0.1137 -0.1831
19198W        W35272   9.884   7.177  14.159  0.1842 -0.3915 -0.1497
19199W        W35273   9.732  14.760   1.479 -0.0473 -0.0104  0.4989
19200W        W35274  12.106  10.471  12.499  0.1288  0.1469 -0.2872
19201W        W35275  16.866   7.995   0.822  0.4466 -0.1117  0.3772
19202W        W35276  10.357  15.463  15.772 -0.2098 -0.0813 -0.0478
19203W        W35277  17.494  12.035   0.639  0.3559  0.0582 -0.0304
19204W        W35278   2.569  11.380   2.906 -0.1214  0.2329  0.4128
19205W        W35279  13.726   7.805  15.819 -0.0553  0.1649 -0.0141
19206W        W35280   4.222   9.080  14.201 -0.0776  0.0317  0.3418
19207W        W35281   2.524   4.458  15.575  0.2602  0.1454  0.0630
19208W        W35282   9.986   6.690  11.839 -0.3464 -0.0127  0.0722
19209W        W35283   8.368  17.650  12.772 -0.0321  0.3935 -0.0212
19210W        W35284  14.059   1.704   3.190  0.0885 -0.3082  0.2704
19211W        W35285   6.054  10.840   5.397  0.2871  0.2137 -0.3111
19212W        W35286  10.364  11.424   1.952 -0.0770  0.1824 -0.2386
19213W        W35287  17.678  10.122  13.698  0.1438  0.3212  0.0564
19214W        W35288   3.970   7.795   5.650 -0.1795 -0.2025  0.0123
19215W        W35289   2.520   8.473  11.340 -0.3502  0.0430  0.0337
19216W        W35290   2.770  17.912   1.464 -0.0761  0.1583  0.0017
19217W        W35291   6.110   0.298   1.659 -0.0617 -0.2025  0.0419
19218W        W35292   8.374   5.184  15.207  0.1014  0.2682 -0.1124
19219W        W35293   7.691   9.346   0.997  0.0862 -0.1052 -0.2971
19220W        W35294   5.239  11.995  14.753 -0.2702  0.2722 -0.3035
19221W        W35295  10.795  15.344   4.745 -0.0815 -0.3370  0.0100
19222W        W35296  12.642   3.281  13.745 -0.0698 -0.0028 -0.0342
19223W        W35297  12.974   6.713   3.350  0.0320 -0.1908 -0.2803
19224W        W35298  12.166  12.843  14.971 -0.1991  0.1437 -0.0276
19225W        W35299   5.383   8.209   5.163  0.1081  0.2119  0.1544
19226W        W35300  17.352  17.788  13.473 -0.0653 -0.0634  0.2529
19227W        W35301   6.122   5.854  14.483  0.0268 -0.2054  0.0135
19228W        W35302   0.949   4.554   4.529 -0.1504 -0.1001  0.0928
19229W        W35303  14.791  12.821  14.455 -0.0694 -0.0197 -0.2053
19230W        W35304  15.360   0.772  11.805 -0.1238 -0.2302 -0.1267
19231W        W35305  15.599  14.732   1.344  0.0532 -0.3255 -0.0576
19232W        W35306   0.017   1.850   0.391 -0.0499  0.2612  0.2249
19233W        W35307  14.985  11.321   3.869  0.2360  0.1523  0.0216
19234W        W35308  10.721  13.280  15.991  0.0376  0.0637 -0.1689
19235W        W35309  12.282  11.979   3.198 -0.1696  0.0947  0.1248
19236W        W35310   2.725   2.521   4.190 -0.2284  0.0896 -0.0095
19237W        W35311   9.980   2.115   1.593 -0.0853  0.2517 -0.1548
19238W        W35312   7.808  15.613  11.671 -0.1258  0.2044  0.1065
19239W        W35313   5.744  16.838  13.377  0.1052 -0.0683 -0.3271
19240W        W35314   5.528   8.706  12.310  0.2284 -0.0693 -0.1728
19241W        W35315  12.553  12.019   4.276 -0.3020 -0.0453 -0.0884
19242W        W35316   2.290   2.728   4.855 -0.1179  0.0779 -0.1060
19243W        W35317  10.257   0.767   0.323  0.2163 -0.0011  0.0027
19244W        W35318   6.575  15.201  15.495 -0.0661 -0.1304 -0.1128
19245W        W35319  13.364  15.098   4.068  0.0463 -0.6616 -0.2209
19246W        W35320   3.677  18.185   0.781  0.1762 -0.2488  0.2268
19247W        W35321  11.737  15.163  16.108  0.1925 -0.0398  0.2467
19248W        W35322  17.204  12.807   5.838 -0.0804 -0.0826  0.1302
19249W        W35323   5.296  11.054  15.343  0.0499  0.2851  0.1365
19250W        W35324   5.292   9.852  14.523 -0.0108  0.5179  0.2610
19251W        W35325   6.299  14.020  14.358  0.0706  0.2238  0.1877
19252W        W35326  11.234  11.212   0.198 -0.3470  0.1788  0.3719
19253W        W35327   5.617   2.988  12.314 -0.1348 -0.2636 -0.1159
19254W        W35328  15.172  17.498   4.644 -0.1068 -0.1335 -0.1103
19255W        W35329  13.009   1.086  15.545 -0.2335  0.0694 -0.0015
19256W        W35330   6.293  13.080   1.914 -0.1800  0.0463  0.0261
19257W        W35331  11.035  17.524  12.954 -0.1741 -0.0086 -0.0655
19258W        W35332  17.227   0.374   6.448  0.0848  0.0845  0.0372
19259W        W35333  11.725   4.930  13.186 -0.0098  0.0923  0.0624
19260W        W35334   5.941  12.621   5.206  0.0920  0.1557  0.0895
19261W        W35335   9.121   9.530   4.510  0.0119 -0.2188  0.0097
19262W        W35336  11.521   0.226   1.690  0.0769 -0.1834 -0.1138
19263W        W35337   3.196  11.525  13.779 -0.4610  0.1663  0.1523
19264W        W35338  13.318   8.484  13.468 -0.0662  0.1940  0.1867
19265W        W35339  10.702   3.573   1.275  0.0883  0.0215  0.1979
19266W        W35340  13.786   2.966  11.724 -0.2927  0.0321 -0.1047
19267W        W35341  14.778   8.477   5.061 -0.1420  0.0857  0.1837
19268W        W35342   5.345   4.814  12.712  0.0547 -0.0782 -0.1939
19269W        W35343   2.662   4.791  14.360 -0.2167 -0.3307 -0.1137
19270W        W35344  11.378  14.325  15.069 -0.1540 -0.1081  0.1180
19271W        W35345  13.715  17.859  12.884  0.0183 -0.3736  0.1477
19272W        W35346   1.766   1.754  15.995 -0.1809  0.0856 -0.6287
19273W        W35347   2.108  16.257   2.545 -0.0242  0.1849 -0.0006
19274W        W35348  10.417   3.460   1.687  0.0675  0.2117 -0.0761
19275W        W35349  17.743  12.605   2.146  0.1678 -0.0915  0.0833
19276W        W35350  12.932   4.605  15.880 -0.1853  0.1060  0.1375
19277W        W35351   7.116  16.589   3.926 -0.0179  0.1115 -0.2217
19278W        W35352  16.091   6.514   1.551  0.0382  0.2838 -0.0153
19279W        W35353  11.054   2.642  14.299 -0.0300 -0.0519  0.0473
19280W        W35354  11.250  10.693  11.639 -0.0909 -0.1854  0.2046
19281W        W35355  12.652   7.957  15.270 -0.6375 -0.0397 -0.0009
19282W        W35356  11.011   5.180  11.897 -0.1408  0.1044 -0.0663
19283W        W35357   3.182   2.126   5.355 -0.1503 -0.2574  0.1569
19284W        W35358  17.852   9.520  11.634  0.0682 -0.2594 -0.0529
19285W        W35359   7.396   4.399  10.597  0.0258 -0.0440 -0.2664
19286W        W35360  11.564   4.551   1.015  0.3095 -0.0356 -0.2265
19287W        W35361   6.611  10.084   5.099 -0.3820  0.4858 -0.0232
19288W        W35362   0.011   4.586  11.449  0.0565  0.1276 -0.0300
19289W        W35363  12.217   1.697  12.639  0.1250  0.6007  0.2175
19290W        W35364   4.812   7.356  13.843 -0.1546  0.0477  0.0853
19291W        W35365   8.691   3.615   4.624 -0.1482  0.0059  0.3432
19292W        W35366  16.687  11.664   1.071  0.0784 -0.0364 -0.5007
19293W        W35367   9.107   4.872  13.198  0.1395 -0.0396  0.1642
19294W        W35368   2.864   9.581   1.158 -0.0230  0.1046 -0.0441
19295W        W35369  14.899   2.862  15.552 -0.4708  0.1566  0.2277
19296W        W35370  10.739  14.763  15.221  0.2353 -0.0217 -0.1013
19297W        W35371   2.445  13.837  13.829  0.1091 -0.2152  0.3417
19298W        W35372   1.409  14.331  16.303 -0.1074  0.1787 -0.1828
19299W        W35373  16.563   3.660   0.577 -0.2484 -0.1316 -0.1782
19300W        W35374   3.371  10.463  15.902 -0.4042 -0.1232 -0.4174
19301W        W35375  11.895   5.365   4.911  0.1593 -0.1196  0.1062
19302W        W35376  17.288  15.488   5.492 -0.0905  0.0069 -0.2476
19303W        W35377   9.726  11.212  16.385 -0.0436 -0.0316 -0.0746
19304W        W35378   3.244   7.369   0.440 -0.0316 -0.0324 -0.1697
19305W        W35379   8.954   8.520   3.531  0.0939  0.2161 -0.0690
19306W        W35380   5.260  15.458   1.749  0.0449 -0.3302 -0.1178
19307W        W35381  11.032   1.867   1.757  0.2329  0.0801  0.2061
19308W        W35382  11.140   0.173   4.965 -0.1738 -0.1248  0.1935
19309W        W35383  14.519  11.986  13.398 -0.1431 -0.0345  0.1370
19310W        W35384  10.087   9.764  13.286  0.0666 -0.0008 -0.0968
19311W        W35385   9.630  17.198   1.834  0.0246  0.1589  0.0509
19312W        W35386   7.989   6.798  15.303  0.0990  0.2604 -0.2614
19313W        W35387   6.690  10.913   0.699  0.3324  0.0029 -0.0101
19314W        W35388  17.101  14.706  13.787  0.2776  0.0917 -0.3288
19315W        W35389  12.002   9.167  13.156 -0.1269 -0.0487 -0.2430
19316W        W35390   9.843   8.279   2.541 -0.1503 -0.1772 -0.0767
19317W        W35391   4.464   3.678   3.648  0.1899 -0.1143  0.3227
19318W        W35392   0.731   4.262   1.022 -0.0474 -0.0391 -0.1230
19319W        W35393  17.554   5.708  12.127  0.0381  0.0365  0.2333
19320W        W35394   9.234   8.750  13.706 -0.1284  0.4048 -0.2161
19321W        W35395   4.357  14.582   2.854 -0.2483 -0.0246  0.0729
19322W        W35396   9.916   7.423  14.926  0.3043 -0.0936  0.2207
19323W        W35397  17.030   9.323   3.141  0.3002 -0.0474 -0.3088
19324W        W35398  10.465   7.550   5.362  0.0658  0.2745  0.2327
19325W        W35399   1.339   0.586   1.088  0.2172 -0.0474  0.0073
19326W        W35400  16.954  15.637  15.734  0.1443  0.0418  0.1961
19327W        W35401   9.019  16.258  11.104 -0.0490  0.4528 -0.0800
19328W        W35402   6.294   1.249   2.688 -0.0737  0.2517 -0.1825
19329W        W35403  14.321   4.646  13.741 -0.5097  0.2179 -0.1195
19330W        W35404  12.714   5.891  12.597  0.1554 -0.0647 -0.0043
19331W        W35405   0.987   8.017   3.534  0.2207  0.2618 -0.1011
19332W        W35406  17.763   4.154   3.340 -0.2137  0.0815 -0.1810
19333W        W35407   3.304   7.780   1.992 -0.2736  0.2955 -0.0264
19334W        W35408   3.472  11.386  11.813  0.3750 -0.0496 -0.2242
19335W        W35409   8.132   9.231  12.063 -0.0741 -0.1473 -0.2931
19336W        W35410   1.409  15.646   4.222 -0.2479 -0.0644  0.0566
19337W        W35411  10.107   3.091   4.695 -0.1122 -0.1355  0.0606
19338W        W35412  16.473   7.785  11.938 -0.0156  0.1770  0.3173
19339W        W35413  10.192  14.749   1.136 -0.1057  0.3897  0.0837
19340W        W35414   9.971   4.333   1.517 -0.0270 -0.2494 -0.1296
19341W        W35415  14.541  10.090  15.362 -0.1648  0.1660  0.2122
19342W        W35416  11.627   5.308  12.105 -0.0157 -0.0077 -0.0866
19343W        W35417  18.069   6.764   3.403 -0.0303  0.2789 -0.1499
19344W        W35418   0.778   0.465   0.790  0.2883 -0.0408 -0.0212
19345W        W35419  10.468   4.159  14.732 -0.1887  0.2640 -0.1119
19346W        W35420  15.827   5.524  11.740  0.2718 -0.0784 -0.3404
19347W        W35421   4.806   0.024  15.437 -0.0992 -0.0142  0.2528
19348W        W35422   5.370   2.389   1.917 -0.0664  0.2275  0.0443
19349W        W35423  13.522  14.557  14.217 -0.0740  0.1699  0.0245
19350W        W35424   5.208   5.601  11.732 -0.1296 -0.0412  0.1510
19351W        W35425   6.752   0.707  15.008  0.2046 -0.2063  0.0327
19352W        W35426   2.865   3.321   4.559 -0.2124  0.3154 -0.1058
19353W        W35427   6.014   0.172  12.198 -0.2004 -0.1122  0.0164
19354W        W35428   5.832   1.374  14.736  0.0063 -0.2133 -0.1618
19355W        W35429   9.025   3.058  16.035  0.2148 -0.0782  0.2845
19356W        W35430   8.029   3.920   1.977  0.3240 -0.2341 -0.0563
19357W        W35431   9.149   1.739   4.622 -0.1117 -0.0532  0.3240
19358W        W35432   1.977   4.282  13.916  0.0248 -0.1662  0.0618
19359W        W35433   8.972   5.108  14.178  0.0459 -0.0174 -0.0380
19360W        W35434   1.485   5.279  12.031 -0.3575 -0.3212 -0.2494
19361W        W35435  17.898  11.851   0.879 -0.5265  0.2630 -0.1107
19362W        W35436   2.559  18.012  11.571 -0.1790 -0.0561  0.1139
19363W        W35437  16.855   9.637   1.226 -0.2290  0.0384  0.1633
19364W        W35438   9.003  15.044  15.518 -0.0659  0.2477  0.3946
19365W        W35439  16.689   5.393  12.001 -0.2527  0.0393 -0.0182
19366W        W35440   1.950  16.892  14.451 -0.2138 -0.1466  0.1299
19367W        W35441   1.206   2.188  13.673  0.2534  0.1159 -0.0342
19368W        W35442  15.791   6.727  12.716 -0.3205 -0.2456 -0.0321
19369W        W35443   6.615   4.805  12.063 -0.1614  0.1685  0.4711
19370W        W35444  13.362   5.759   0.118 -0.0761 -0.0244  0.0030
19371W        W35445  14.669   4.196  15.663  0.1639 -0.0246  0.0863
19372W        W35446   1.364  17.028   0.432  0.1827 -0.0234  0.3035
19373W        W35447   1.888   2.026  11.125 -0.1045  0.0058 -0.0924
19374W        W35448   8.504  16.111  14.514  0.0166 -0.1482  0.0443
19375W        W35449   4.784   5.588  16.337  0.0559  0.1886  0.2281
19376W        W35450  16.096   7.271  13.550 -0.1152 -0.2803  0.4666
19377W        W35451  16.465  16.432  14.304  0.1471  0.0939 -0.1159
19378W        W35452  12.660  16.333   2.047 -0.2167 -0.0055  0.3033
19379W        W35453   4.305  10.599  15.161  0.0082 -0.1527  0.0519
19380W        W35454   0.197   8.956  14.511  0.2104  0.0252 -0.0370
19381W        W35455   5.034   2.294   3.284  0.0429  0.0623  0.1571
19382W        W35456  13.479   0.409  15.350 -0.1006  0.0747  0.0871
19383W        W35457   0.333  14.272   4.958  0.0144  0.1380 -0.1636
19384W        W35458  15.024   2.436   3.373  0.2587 -0.0965  0.1968
19385W        W35459   1.877  16.676   4.255  0.1196  0.2130 -0.2786
19386W        W35460  16.070  16.004   2.622  0.1754 -0.0382 -0.0227
19387W        W35461   4.422  17.132  13.319  0.0122 -0.2744  0.1529
19388W        W35462   3.559  17.657  16.298  0.0207  0.2435  0.3915
19389W        W35463   8.554   4.709  13.249  0.3621 -0.1423  0.1076
19390W        W35464   6.789  12.594   6.367  0.1106  0.3364  0.2475
19391W        W35465  16.994   0.606  12.708  0.0244  0.3223  0.1208
19392W        W35466  16.057   9.976  15.201 -0.1546  0.0145 -0.0027
19393W        W35467  17.555   1.715  13.258  0.2167  0.0479 -0.1669
19394W        W35468  14.743   7.674   1.452  0.1819  0.0312  0.1298
19395W        W35469  11.726   9.641   4.094  0.0341 -0.1478  0.1484
19396W        W35470   1.674   3.190   2.553 -0.2045  0.0054 -0.0002
19397W        W35471  12.011  11.427   0.842  0.1192  0.2880  0.1308
19398W        W35472   4.945   7.601   1.272 -0.0367  0.0656  0.0993
19399W        W35473  14.283  17.146  15.824  0.2972  0.1618  0.0453
19400W        W35474  15.650  12.235  12.259  0.0357  0.1493  0.0369
19401W        W35475  10.535  10.064  16.091 -0.0820  0.4047 -0.1131
19402W        W35476  14.566   4.890   4.888 -0.0046  0.2930 -0.0247
19403W        W35477   2.043  17.734  15.811  0.0528 -0.2441  0.0904
19404W        W35478   0.628  11.287  14.646  0.2581 -0.1867  0.0100
19405W        W35479   0.997   4.553   5.815 -0.1029  0.0265 -0.0045
19406W        W35480  17.218   4.371  14.736  0.3058  0.3292 -0.0549
19407W        W35481  13.057  15.723  13.527 -0.1115  0.1761  0.2361
19408W        W35482   8.169   5.364  14.779 -0.1418 -0.1326 -0.1930
19409W        W35483   3.388   0.989   2.080  0.0361  0.0561 -0.0775
19410W        W35484  14.088  16.110  13.535  0.1735 -0.0992 -0.1452
19411W        W35485   9.590  11.919   0.727  0.4961 -0.2822  0.0785
19412W        W35486  12.324   2.173  12.802 -0.0314 -0.0645  0.0048
19413W        W35487   1.210   2.665  13.800 -0.1552  0.0382 -0.0113
19414W        W35488  14.144   8.490  14.006  0.3987  0.1126  0.1938
19415W        W35489  17.393   9.907   2.462 -0.0577 -0.2742 -0.3136
19416W        W35490  16.777  18.052  15.962  0.1521 -0.2028 -0.0319
19417W        W35491  14.254   0.738   4.828 -0.1709  0.1083  0.0949
19418W        W35492   7.516   0.313  14.416  0.0903  0.3994  0.0630
19419W        W35493   1.118   4.123   0.014 -0.0900  0.1181  0.0748
19420W        W35494   0.303   4.018  16.271 -0.1975 -0.0516 -0.1260
19421W        W35495  13.713  15.869  13.087  0.0958  0.0337  0.2226
19422W        W35496  17.393   2.034   4.923  0.0603 -0.0331 -0.2648
19423W        W35497   3.756   1.864   4.414  0.0247 -0.0105 -0.1644
19424W        W35498  14.939  18.075  11.327 -0.2033 -0.1545  0.3401
19425W        W35499  13.055   9.241  15.260  0.1228  0.1652 -0.1910
19426W        W35500   0.066   3.734   1.808 -0.0496 -0.0186 -0.2797
19427W        W35501   5.279  12.355  13.313  0.0155  0.0030  0.2607
19428W        W35502   3.149  13.533  15.378  0.0466  0.1994  0.0969
19429W        W35503  11.283  16.469   0.049  0.0461  0.0702  0.1540
19430W        W35504  14.089   0.762  14.643 -0.1629  0.0639 -0.0006
19431W        W35505   1.029   4.647   0.265  0.0464  0.1590  0.0153
19432W        W35506   4.273   7.732   1.932  0.4695  0.2087 -0.1710
19433W        W35507  16.497   9.977   1.014  0.0111 -0.3144 -0.3222
19434W        W35508  12.059  10.136  12.061  0.5371 -0.0382  0.0564
19435W        W35509   0.289   9.139  12.610 -0.1373  0.0251 -0.2751
19436W        W35510   2.801  12.202  12.215 -0.1675  0.3207 -0.0686
19437W        W35511  16.426  12.296   3.652  0.1477 -0.0461  0.2170
19438W        W35512   8.355  13.579   1.204 -0.0164 -0.0444 -0.1287
19439W        W35513   9.411  15.190   3.080  0.2460  0.1444  0.0434
19440W        W35514  12.698  15.426   2.182  0.3413  0.1571  0.1049
19441W        W35515  14.920   3.847   0.492 -0.1366  0.1531  0.0199
19442W        W35516  10.421  15.909  15.932  0.1124  0.3312  0.3062
19443W        W35517  13.313   5.301   4.894 -0.0280 -0.1738 -0.0855
19444W        W35518   8.261   2.363   2.631 -0.1752  0.1450 -0.1249
19445W        W35519   3.138   6.190   0.150 -0.1020  0.1222 -0.0129
19446W        W35520   6.900   2.685  11.811 -0.1324 -0.0492 -0.0583
19447W        W35521  17.599   8.697   4.853  0.0959 -0.4502 -0.0435
19448W        W35522  14.370  11.494  12.442 -0.0772 -0.0227 -0.2508
19449W        W35523  17.823   6.317   5.433  0.1618 -0.0013 -0.3114
19450W        W35524   1.441  14.899  16.059 -0.1122 -0.1551 -0.0391
19451W        W35525   7.865  13.197   3.596 -0.0939  0.0418  0.2111
19452W        W35526   7.930  15.675   5.448  0.2192 -0.2517 -0.1070
19453W        W35527  13.571  15.240  15.611 -0.2611  0.3034  0.1101
19454W        W35528  14.430  15.107  16.238 -0.2351  0.0109 -0.1236
19455W        W35529  11.732   5.407  10.698 -0.2478  0.0529 -0.1068
19456W        W35530   2.062   2.351   1.817  0.3284 -0.0505 -0.1587
19457W        W35531   1.561   0.745   5.403 -0.0401 -0.1114  0.3123
19458W        W35532   4.405  15.037   5.400  0.1398 -0.3140 -0.0486
19459W        W35533  11.815   4.407   0.281  0.3250 -0.1572  0.0685
19460W        W35534  14.720  17.533  12.087  0.1086 -0.1259  0.3755
19461W        W35535  11.118  13.558   5.671  0.2109 -0.2073  0.2599
19462W        W35536   5.348  16.901   5.482  0.0281 -0.1448  0.0421
19463W        W35537   2.213   5.910   3.948 -0.1014  0.0135  0.1896
19464W        W35538  17.177  12.158  12.550 -0.2519  0.1078 -0.0594
19465W        W35539   9.642  16.332   3.753 -0.0653 -0.2868  0.0792
19466W        W35540   7.103   0.091  16.351 -0.1981 -0.1758 -0.1493
19467W        W35541   8.725   7.494   3.486 -0.0491  0.0586  0.1498
19468W        W35542  13.969   3.558   0.690 -0.4389 -0.2140 -0.1493
19469W        W35543   1.629  14.812   5.270 -0.0271 -0.0243  0.2250
19470W        W35544  13.789   7.834   5.242 -0.1610 -0.0092  0.1295
19471W        W35545  12.134  16.005  14.858  0.0918 -0.3175 -0.0780
19472W        W35546   7.038  17.628   4.429  0.5546 -0.0520  0.3188
19473W        W35547  15.482  13.809   2.291  0.4327  0.3644  0.1518
19474W        W35548  11.479   1.409   0.713  0.0740  0.1678 -0.1688
19475W        W35549   7.573   1.232  14.418 -0.3984 -0.2002  0.0781
19476W        W35550  10.780  10.702  10.735 -0.1764 -0.0276 -0.3036
19477W        W35551   7.456  12.706  16.095 -0.2629 -0.0259 -0.2473
19478W        W35552  10.910  13.120   1.666 -0.0488  0.1006 -0.1449
19479W        W35553   1.145   4.726  13.304  0.1858 -0.1024  0.0328
19480W        W35554   6.281   4.007   3.761 -0.1704 -0.0513 -0.0321
19481W        W35555   4.880   5.116  15.426 -0.2281  0.3389 -0.0016
19482W        W35556  17.939  17.163  16.023  0.1344  0.0942  0.3511
19483W        W35557  16.389  15.597   4.138  0.0872 -0.2841 -0.0663
19484W        W35558  10.313   7.612  13.407 -0.1384  0.2359 -0.0650
19485W        W35559   3.600   8.723  14.470 -0.1108 -0.0254 -0.0241
19486W        W35560  10.465  13.121   2.068  0.0215 -0.1039  0.0119
19487W        W35561   9.240   5.088   2.722  0.1353 -0.3081  0.1532
19488W        W35562   9.748  12.628  14.068 -0.1565 -0.0972  0.1926
19489W        W35563  14.302   3.076  14.996 -0.0477  0.0912  0.1826
19490W        W35564   0.046   7.039  15.854 -0.1589 -0.1278 -0.1244
19491W        W35565  14.106  12.238   4.431  0.5303 -0.2299  0.1870
19492W        W35566  14.230   7.768   1.328 -0.1115 -0.3437 -0.4619
19493W        W35567   8.929  10.455  14.030 -0.0899 -0.1007 -0.2116
19494W        W35568   5.808   9.876  14.207  0.1531 -0.0023 -0.1083
19495W        W35569   7.197  14.912   1.392  0.0876  0.0793 -0.1058
19496W        W35570  11.922   8.050  15.565 -0.2896 -0.0862 -0.0505
19497W        W35571   0.117   7.444   0.743 -0.0406 -0.3025  0.0381
19498W        W35572   5.183  10.774   3.196  0.0930 -0.0748  0.1206
19499W        W35573   2.113  10.001  16.100  0.1737 -0.2103 -0.1969
19500W        W35574   0.265   9.517   4.651  0.0406 -0.1215  0.0175
19501W        W35575  18.042  14.704  13.604 -0.2594 -0.2332  0.3361
19502W        W35576   9.725  15.008  12.936  0.0928  0.1672 -0.0813
19503W        W35577   3.252   8.152   0.674 -0.0485 -0.2213  0.0670
19504W        W35578   7.411  16.171  15.431 -0.1782  0.0982  0.2556
19505W        W35579   0.457   1.934  14.545 -0.5203 -0.0932 -0.0852
19506W        W35580  12.473   3.532  14.563  0.1583  0.1030  0.0523
19507W        W35581   5.298   9.362   3.118 -0.0451 -0.0749  0.0851
19508W        W35582   2.392  17.844  14.236 -0.1034  0.0497 -0.0675
19509W        W35583  13.205  11.670   2.407  0.3497 -0.1526 -0.1486
19510W        W35584  11.884  10.703   2.142 -0.0325  0.3591 -0.3259
19511W        W35585   7.075  10.556   0.635 -0.0530 -0.1914  0.0334
19512W        W35586  13.897   5.182  11.908  0.1751  0.2633 -0.1006
19513W        W35587   3.247  16.470   2.883 -0.1306 -0.2259 -0.2370
19514W        W35588  14.923  14.742  12.355 -0.2653  0.2182  0.0994
19515W        W35589  15.634  17.099  12.560  0.3095  0.1126  0.1394
19516W        W35590  14.503  11.542   3.366 -0.5476  0.2122 -0.1596
19517W        W35591   9.203   5.051  15.360 -0.0371  0.2482 -0.1775
19518W        W35592   4.479   3.535   5.550  0.2620 -0.1337 -0.0641
19519W        W35593   3.218   6.670  16.244 -0.1639 -0.0820 -0.0096
19520W        W35594   1.722  13.367   4.729 -0.0208 -0.2389 -0.0196
19521W        W35595   0.736  13.945  11.688 -0.2800  0.0371 -0.0312
19522W        W35596   3.129   3.977  11.533 -0.1230  0.0648 -0.1859
19523W        W35597  15.134   0.506  14.923  0.2202  0.1010  0.0663
19524W        W35598   0.323   8.308  12.392 -0.0279 -0.5228  0.0414
19525W        W35599   9.113  12.049   4.467  0.0717 -0.0827 -0.0388
19526W        W35600  10.712  14.160  13.882  0.0645 -0.1523 -0.1357
19527W        W35601  17.342   1.709  15.801 -0.1265 -0.0933  0.2263
19528W        W35602   3.204   7.018   4.508 -0.2833  0.1264 -0.2245
19529W        W35603   4.235  15.699  14.122 -0.0576 -0.0034  0.1471
19530W        W35604   0.690   4.415   4.082 -0.0235  0.0495 -0.1087
19531W        W35605   4.706   0.840  12.704  0.1134 -0.2678  0.2267
19532W        W35606   2.992   7.357   3.331  0.0593 -0.0019 -0.3181
19533W        W35607  15.647   3.968  14.248  0.0191 -0.1275  0.0264
19534W        W35608   8.937   0.461   3.546  0.2729  0.0855 -0.0079
19535W        W35609  15.705  12.394  13.009  0.5267 -0.0387  0.1150
19536W        W35610  10.614   7.413  14.191 -0.0025  0.0972 -0.1478
19537W        W35611   1.214   6.443  14.240 -0.2122  0.0119  0.0477
19538W        W35612   0.405  13.675   3.437  0.4342  0.0942 -0.0297
19539W        W35613   9.027   0.247  14.276 -0.2881  0.0179  0.0176
19540W        W35614   0.552   8.107   4.494  0.3315 -0.0646  0.0540
19541W        W35615  11.026  15.393  12.207  0.0866  0.0548  0.0256
19542W        W35616  12.992  10.885  11.827  0.2746 -0.2043  0.1524
19543W        W35617   6.205  16.806  12.675 -0.3088 -0.0636  0.2087
19544W        W35618  13.829   0.629   3.845 -0.1738 -0.0472 -0.0089
19545W        W35619  14.546   2.820  14.060 -0.3313 -0.2386  0.1917
19546W        W35620  15.384  16.478   4.580 -0.1822  0.0394  0.2552
19547W        W35621  10.369  13.274  13.850  0.2614  0.1523 -0.0970
19548W        W35622  17.787   6.091  12.699  0.3367 -0.3513  0.0001
19549W        W35623   2.946  15.241  14.106 -0.0103  0.1207  0.1007
19550W        W35624   2.741   8.140  14.954 -0.2666 -0.0517 -0.0626
19551W        W35625  17.012   4.976   4.685  0.1436 -0.1612 -0.1318
19552W        W35626  12.224   5.721  15.457 -0.2043 -0.2100  0.5779
19553W        W35627  10.361  14.273   4.803  0.1703  0.1506  0.0348
19554W        W35628   1.840   0.738  15.033  0.1038 -0.1358  0.1298
19555W        W35629   8.035  13.952   4.234 -0.0145  0.5351 -0.1070
19556W        W35630   2.101  14.457  12.127  0.4791  0.0656  0.1280
19557W        W35631   0.739   2.589  16.119 -0.0486 -0.0961  0.0920
19558W        W35632  15.433   4.096   6.049  0.0983 -0.0653  0.0260
19559W        W35633  14.545  18.066  15.844  0.1354 -0.2478  0.1784
19560W        W35634  12.040  18.331  13.644  0.2576  0.0114 -0.0298
19561W        W35635  17.436   4.657  13.926  0.2801  0.1400 -0.1730
19562W        W35636   7.427   5.428   1.752  0.1904  0.3485 -0.1458
19563W        W35637   3.502  11.719  12.580  0.2378 -0.1414 -0.4454
19564W        W35638   5.572   7.716   5.288 -0.0660 -0.1125  0.1158
19565W        W35639  12.326  11.971   4.708 -0.1604  0.0622 -0.1323
19566W        W35640   7.138   6.552  11.613  0.3132 -0.2371 -0.2125
19567W        W35641   8.490  13.363   1.883 -0.2052  0.2435  0.0179
19568W        W35642   0.668   9.861  12.600  0.0858  0.3144 -0.5037
19569W        W35643   3.722   7.507  12.602 -0.3985 -0.3802 -0.2622
19570W        W35644   9.317  13.171   0.392  0.3023  0.0027 -0.1456
19571W        W35645   1.841   2.396   0.514 -0.4374 -0.1718 -0.0460
19572W        W35646  16.278  12.997   1.572 -0.1111 -0.0281 -0.1048
19573W        W35647   9.555  12.173   1.980 -0.0157 -0.0758  0.2461
19574W        W35648  17.257   5.334   5.045 -0.1476  0.0387 -0.1503
19575W        W35649   1.547   2.211   1.504  0.1408  0.0272  0.1050
19576W        W35650   0.507   7.070   2.198  0.3463  0.1330  0.0085
19577W        W35651   2.294   1.923   2.497 -0.3623 -0.1942 -0.2734
19578W        W35652   7.996  13.214  15.605 -0.0808 -0.0491  0.2847
19579W        W35653  16.246   2.416   3.811  0.1896  0.2214  0.0785
19580W        W35654  17.784  10.301   1.489 -0.4292 -0.0231 -0.1068
19581W        W35655  12.992   1.519  11.267  0.1550  0.1312 -0.0267
19582W        W35656   5.402   1.185  14.267 -0.3439  0.1794 -0.0517
19583W        W35657   1.376  17.942  15.319  0.3189 -0.4288  0.0146
19584W        W35658  16.561   7.962   3.594 -0.2362 -0.0459  0.2313
19585W        W35659   7.744   7.360  14.644 -0.0765 -0.0888 -0.1703
19586W        W35660   3.455  10.525   3.879 -0.1277 -0.2827 -0.0211
19587W        W35661   7.505   7.568   1.739  0.3405 -0.3379 -0.0228
19588W        W35662   8.056  13.601  12.974  0.0871 -0.2202  0.0958
19589W        W35663  13.160  11.360  12.016 -0.0849 -0.1761 -0.2253
19590W        W35664   7.322   3.169  16.323  0.0428 -0.4576 -0.2702
19591W        W35665  17.468  14.025   3.136 -0.1925  0.0419  0.1355
19592W        W35666  16.115  15.859   2.061  0.0968 -0.1004  0.0481
19593W        W35667  14.635   9.310   0.937 -0.5667  0.0184  0.3330
19594W        W35668   9.353  12.351  15.657  0.0112  0.0209 -0.2401
19595W        W35669  14.382  17.364   3.278  0.1591  0.0724  0.3550
19596W        W35670  16.487  13.552   1.554  0.3239  0.0355  0.1090
19597W        W35671  13.799   2.131   2.292  0.0724 -0.0701 -0.0423
19598W        W35672  13.196  14.278  13.967  0.1017 -0.0793  0.1678
19599W        W35673  13.996   6.790  14.905 -0.1150 -0.0958  0.0644
19600W        W35674  10.563   5.261   2.675  0.2844  0.1340  0.0985
19601W        W35675   3.551  13.020   1.200 -0.1170 -0.1772  0.0906
19602W        W35676   0.708  15.686   4.771 -0.0511  0.0520 -0.2796
19603W        W35677  14.582  11.330  13.463  0.1722 -0.1132  0.1681
19604W        W35678   4.970  14.471  11.855  0.1243  0.1434 -0.1186
19605W        W35679   6.412   4.496   2.334  0.3736  0.1933  0.1888
19606W        W35680   9.689   5.037  15.243 -0.1281 -0.2205  0.1260
19607W        W35681   8.065  11.971   2.914 -0.0987 -0.0761  0.3935
19608W        W35682   1.932  17.209   4.331 -0.1485 -0.0371 -0.0644
19609W        W35683  10.460   6.029   0.180  0.0830  0.0861  0.3515
19610W        W35684   5.891   2.712   2.159 -0.1057 -0.1125 -0.3088
19611W        W35685  10.714  11.826   2.230  0.0171 -0.1151  0.2187
19612W        W35686  17.424   2.956  11.775 -0.0644  0.1391  0.2273
19613W        W35687  11.454   6.287   2.475  0.3138  0.2245 -0.1628
19614W        W35688  11.854   7.661  16.040  0.3673  0.2045  0.1853
19615W        W35689   7.215   7.374  12.187  0.1100 -0.2089 -0.3487
19616W        W35690  10.980   4.732  10.979 -0.3278 -0.3279  0.2216
19617W        W35691  14.496  15.550   0.802  0.2980 -0.0503 -0.1941
19618W        W35692  12.091  14.503  16.397 -0.0101  0.1689  0.0121
19619W        W35693   4.397  16.157  12.946 -0.0629  0.1037 -0.0257
19620W        W35694   2.732  13.998  15.366  0.0278  0.1768 -0.1202
19621W        W35695  11.218   7.999   4.315 -0.3114 -0.4154  0.0309
19622W        W35696  15.246   3.290  15.690 -0.3092  0.2374  0.0451
19623W        W35697   4.850   5.714   1.264 -0.1551  0.0517 -0.1362
19624W        W35698  16.451   2.160   0.981 -0.1225 -0.2940  0.0808
19625W        W35699   9.599   2.993   2.709  0.1656  0.2211  0.0326
19626W        W35700  17.261  11.831  12.242  0.1848 -0.1057 -0.0904
19627W        W35701  13.385  16.185  12.880  0.3330 -0.0951  0.0158
19628W        W35702   4.392  12.685   4.909  0.5662 -0.1338  0.1545
19629W        W35703  13.696  13.399   4.304  0.1032  0.1918  0.0974
19630W        W35704  11.235  17.633   2.603 -0.0105 -0.0718 -0.1565
19631W        W35705  11.932   7.376   1.916  0.4488  0.1645  0.0256
19632W        W35706   7.148   9.668  13.863 -0.1726 -0.0730  0.2408
19633W        W35707  14.563  15.931  15.325 -0.1378 -0.1121  0.1707
19634W        W35708   3.949  16.284  11.651  0.0619  0.1999 -0.5346
19635W        W35709   5.549   1.539  16.079  0.1040 -0.0326 -0.0445
19636W        W35710   4.458   7.157   2.058  0.0664 -0.1088 -0.1228
19637W        W35711  15.032  16.975   4.645 -0.1791 -0.2177  0.1949
19638W        W35712   1.948  10.317   0.113 -0.1354  0.0440  0.0160
19639W        W35713   2.047  17.290  15.607  0.0557  0.2469 -0.2130
19640W        W35714   1.759   3.233   5.550  0.0540  0.2219 -0.1049
19641W        W35715   2.148   9.144  13.294 -0.0438  0.0230  0.0108
19642W        W35716  15.407  12.748   2.588 -0.0170 -0.0604  0.1873
19643W        W35717  14.482   3.911  15.979  0.3425  0.1180 -0.3151
19644W        W35718   6.471  12.036  11.511 -0.2066 -0.0018  0.1654
19645W        W35719   2.947   2.025  11.901 -0.0109 -0.0447 -0.1328
19646W        W35720   0.213   1.285   5.228  0.2702  0.1104  0.1366
19647W        W35721  13.143  16.481  11.441 -0.0095 -0.1096 -0.1080
19648W        W35722   5.453  14.714   1.323 -0.1034 -0.1851  0.0004
19649W        W35723  14.590   2.617   4.216  0.2670 -0.0464 -0.1419
19650W        W35724   9.210  10.448   3.010 -0.1075  0.2825  0.2617
19651W        W35725   2.928   1.589   1.628 -0.1627 -0.0003 -0.1311
19652W        W35726  15.002   3.160   0.039 -0.0055  0.1644 -0.0117
19653W        W35727  12.713   8.121  12.537 -0.3729 -0.2445 -0.1586
19654W        W35728  10.060  17.049   4.725 -0.1962  0.0710  0.2514
19655W        W35729  13.776   7.026   1.357 -0.0992 -0.2147 -0.0206
19656W        W35730   8.875   4.666  15.771 -0.0452 -0.3266  0.1010
19657W        W35731  11.501   5.851   2.677 -0.0447  0.0030 -0.1728
19658W        W35732   2.800   5.644  12.997  0.3842  0.3216  0.0256
19659W        W35733   0.189  13.467   0.955  0.0761 -0.1988  0.0304
19660W        W35734   5.689  14.902   4.038 -0.3734  0.0414  0.2780
19661W        W35735  14.426   6.240   2.538 -0.0021 -0.0859  0.0685
19662W        W35736  12.768   1.764  12.511  0.1522 -0.0695 -0.2439
19663W        W35737  10.144  14.833   2.980  0.1941 -0.1238 -0.0509
19664W        W35738   2.491   3.236   3.123 -0.1235  0.1817 -0.0867
19665W        W35739   6.287   7.339   2.993  0.0013 -0.1339  0.1367
19666W        W35740  17.564  11.739   3.975  0.1226 -0.0867  0.0311
19667W        W35741  15.905   1.674   0.606 -0.1214 -0.1343 -0.1708
19668W        W35742  17.223   5.817  15.870  0.0943 -0.0308 -0.2824
19669W        W35743  14.387  11.743  12.007 -0.1750  0.1630  0.3286
19670W        W35744   8.542   7.992   4.596 -0.1716 -0.0615 -0.0622
19671W        W35745   6.829   8.460   4.161 -0.0839  0.1283  0.1100
19672W        W35746   4.928   9.332  16.111 -0.0442  0.1193 -0.1557
19673W        W35747  10.834  14.517  13.547  0.2187 -0.1803 -0.1652
19674W        W35748  17.144   4.601  11.645  0.0023  0.0174  0.0188
19675W        W35749   2.970   0.240   3.712  0.0056  0.1501  0.0750
19676W        W35750  16.209   5.807  11.595  0.1948  0.0879 -0.0141
19677W        W35751  10.665   4.408  14.177  0.0553  0.0298 -0.1285
19678W        W35752   3.309   2.124   2.987 -0.1016  0.0144 -0.0892
19679W        W35753   2.899  10.697   3.235 -0.2109 -0.3280  0.4624
19680W        W35754   5.586  11.172  12.596 -0.0817 -0.1481 -0.2078
19681W        W35755  10.020   6.403  15.731 -0.0645 -0.0596 -0.0082
19682W        W35756   2.324  17.436  14.457  0.1910  0.2618 -0.0531
19683W        W35757   8.722  14.619  15.850  0.0985 -0.3029  0.1695
19684W        W35758  12.271  16.842   3.340 -0.2279 -0.2840  0.1816
19685W        W35759  10.503  16.911  15.669  0.0931 -0.0263 -0.0473
19686W        W35760   9.392   5.191   0.058  0.1108  0.0262 -0.3553
19687W        W35761   6.702  15.675   3.777 -0.0240 -0.0036  0.2038
19688W        W35762  10.994   1.464  16.244 -0.1648 -0.2583 -0.2977
19689W        W35763  11.468  13.345  11.182  0.1735 -0.1014 -0.1561
19690W        W35764  11.950  17.690  15.829  0.2008 -0.0181  0.0057
19691W        W35765  12.475   5.772   0.931 -0.1360  0.0751 -0.2332
19692W        W35766   0.067   0.909  15.210  0.0361  0.0730  0.2628
19693W        W35767   9.312   8.213  13.380 -0.2458  0.1697  0.2577
19694W        W35768   2.733   9.931   2.934  0.1515  0.0743 -0.0787
19695W        W35769  13.263   1.002   4.773  0.0049 -0.0695  0.0445
19696W        W35770   5.699   4.018   2.929 -0.2882  0.0164  0.3874
19697W        W35771  13.630   4.736  11.930 -0.0448  0.0820 -0.2426
19698W        W35772   1.721  15.318   5.083  0.2680  0.1095 -0.1030
19699W        W35773   0.447  12.400  16.361  0.0314 -0.3016  0.3632
19700W        W35774  11.681  16.286   2.241 -0.1809  0.1284  0.4531
19701W        W35775   8.831   3.860   2.021  0.2545  0.1113  0.0396
19702W        W35776   6.027   7.095  16.140  0.0592  0.0850 -0.3048
19703W        W35777  13.964   0.857  11.743 -0.1565  0.2128  0.2142
19704W        W35778  12.703   7.752  13.990 -0.2691 -0.0494 -0.0451
19705W        W35779  12.173   6.051  14.400 -0.0631 -0.2722 -0.0860
19706W        W35780   3.221  11.749   3.703 -0.0699 -0.0896 -0.0169
19707W        W35781   6.088  13.828   0.008 -0.0676  0.2612  0.0180
19708W        W35782   3.693   7.294  15.649  0.1434  0.0869 -0.2273
19709W        W35783  17.708   0.635   2.186  0.4905 -0.2733 -0.3560
19710W        W35784   1.923   5.644  13.016  0.1437 -0.0788  0.0675
19711W        W35785  15.547  14.140   0.511  0.0713 -0.0135 -0.0611
19712W        W35786   2.096  17.531  12.823 -0.1039 -0.0007  0.1370
19713W        W35787   6.322   2.303   3.237  0.2627 -0.0597  0.2774
19714W        W35788  17.003   4.972  12.001  0.2346 -0.0637  0.1736
19715W        W35789  16.722   6.098  16.140  0.0181  0.0716  0.2205
19716W        W35790   9.136   8.260   1.040 -0.2669 -0.1038  0.2823
19717W        W35791  17.990  16.557  12.870 -0.0247 -0.1563 -0.1102
19718W        W35792  14.396   8.806  14.813 -0.2711  0.1034 -0.0302
19719W        W35793   0.553   5.145  14.378 -0.2805  0.1438  0.1795
19720W        W35794  17.546   6.623  12.725  0.1154  0.0394 -0.0909
19721W        W35795   1.973  14.518  11.592 -0.0694 -0.0648 -0.1228
19722W        W35796  13.930  11.970   1.007 -0.2367  0.2074 -0.2977
19723W        W35797  14.590   3.207   4.180  0.0289  0.0726  0.3448
19724W        W35798   3.509   3.502  13.776 -0.3427  0.0895 -0.0242
19725W        W35799   5.780  15.595  15.653  0.0308  0.1100  0.1056
19726W        W35800  18.265  10.640   3.960 -0.2232  0.0086 -0.1227
19727W        W35801   3.221   1.837   2.259 -0.0236 -0.1600 -0.0866
19728W        W35802   0.625  15.241  15.993  0.1722 -0.3597 -0.2636
19729W        W35803   4.956   8.804  11.639  0.3011 -0.2628 -0.2205
19730W        W35804   8.167   2.202  11.221  0.4549  0.3120 -0.0019
19731W        W35805   5.823  17.774  12.757 -0.1146 -0.0304  0.1856
19732W        W35806   1.145   9.241   0.247  0.0826 -0.2034 -0.0879
19733W        W35807   6.852   6.154   0.687  0.1808  0.0452  0.4073
19734W        W35808   4.524   1.153   4.221 -0.1844  0.2245  0.0454
19735W        W35809   8.743  15.738   5.116  0.0305  0.0254  0.1476
19736W        W35810  11.402  13.214   1.277  0.0913  0.0023  0.1357
19737W        W35811   0.732   8.902  12.558 -0.1855  0.2673  0.0165
19738W        W35812  14.931  17.067   1.747  0.0576 -0.0624 -0.1220
19739W        W35813  16.718  14.674   4.512 -0.0327 -0.1646 -0.0832
19740W        W35814   4.749   2.185   5.335 -0.2349 -0.3233  0.1301
19741W        W35815   8.660   5.612  10.588 -0.2850 -0.1212  0.2577
19742W        W35816  10.276   4.305   4.586  0.1520 -0.4107  0.0430
19743W        W35817  12.988   6.912  11.702 -0.2246 -0.3215 -0.0439
19744W        W35818   0.367   6.658  16.096  0.1713 -0.4102 -0.4271
19745W        W35819   0.746   0.751   1.996 -0.1035  0.3300 -0.2222
19746W        W35820   3.240  12.384  16.068 -0.2376 -0.2707  0.0290
19747W        W35821  16.309   4.972   5.441  0.0074 -0.0018  0.2445
19748W        W35822  15.544  11.917   3.471  0.0390  0.0121  0.0690
19749W        W35823   4.472  15.315  13.358 -0.2907  0.1103  0.4048
19750W        W35824  17.020  18.184   3.091 -0.0642 -0.0770  0.3547
19751W        W35825   4.780   7.631  14.278 -0.0971  0.0693 -0.0529
19752W        W35826  12.361  10.327  14.198 -0.0844 -0.0577 -0.0519
19753W        W35827  13.658   1.668  12.091  0.1283 -0.0790  0.0453
19754W        W35828  17.420   2.535  12.908  0.0301  0.0026 -0.1417
19755W        W35829  11.273  10.538   0.614  0.1459 -0.3335  0.1395
19756W        W35830  10.833   3.214  12.696 -0.2089  0.3066  0.0924
19757W        W35831   2.394   2.102  11.319 -0.1322 -0.0968  0.0449
19758W        W35832  16.965  14.806  13.326  0.2512  0.1177 -0.0140
19759W        W35833   6.113  15.398   2.993  0.2118 -0.0870 -0.1074
19760W        W35834   6.928  13.688  12.407  0.0218 -0.1843  0.1904
19761W        W35835  10.574  18.095  12.484  0.1370 -0.1666 -0.0972
19762W        W35836   0.359   6.671   5.150 -0.2733 -0.0801 -0.0673
19763W        W35837   3.423  13.795   3.559 -0.4171  0.0872  0.0527
19764W        W35838   7.006  11.945   5.618 -0.2298  0.2130 -0.0124
19765W        W35839  15.030  14.104   0.399  0.0462  0.4301  0.1162
19766W        W35840   3.067   0.785  15.443 -0.1316 -0.1678 -0.0295
19767W        W35841   8.485  18.033  12.505 -0.0020  0.2232 -0.1140
19768W        W35842  17.520   9.506  11.258 -0.0742  0.0380  0.4542
19769W        W35843   1.717   4.685  13.999  0.1575  0.0946 -0.3824
19770W        W35844   6.386  12.905  15.164 -0.2870  0.0551  0.3098
19771W        W35845  18.117  18.313   3.722  0.3456 -0.0383  0.3116
19772W        W35846  16.898  16.178   6.022  0.1598 -0.3383  0.2949
19773W        W35847   4.905  17.499  14.999  0.2218  0.1494  0.0548
19774W        W35848  13.748   5.925   1.333  0.2188  0.0985  0.0295
19775W        W35849   8.806   5.014  14.693 -0.0314  0.0880 -0.2448
19776W        W35850  12.476   4.378  11.105 -0.0371 -0.1872 -0.1462
19777W        W35851   5.217  13.802   4.414 -0.0700 -0.1966 -0.3912
19778W        W35852  15.750  11.665   0.763  0.1258 -0.2410 -0.0802
19779W        W35853   2.204  16.701  13.476 -0.2784  0.0239 -0.0013
19780W        W35854  16.013   9.229   0.211  0.0176 -0.2560 -0.1205
19781W        W35855   7.130   5.885   4.818 -0.3776 -0.0784  0.0974
19782W        W35856  10.932  18.020  12.930  0.4314  0.0761 -0.1116
19783W        W35857   6.904   2.040  11.070  0.1010  0.1261  0.3090
19784W        W35858  16.155  17.545  14.924 -0.3208  0.2280  0.2038
19785W        W35859   5.116   4.538   5.000 -0.3978  0.3298 -0.0648
19786W        W35860  17.634   7.942   3.818 -0.2387 -0.0762 -0.2373
19787W        W35861  14.111  11.029   0.646  0.1975  0.1702 -0.1621
19788W        W35862   9.812   5.807   2.410  0.0998  0.1519  0.0169
19789W        W35863   2.968   6.169   2.172 -0.3308  0.4610  0.0072
19790W        W35864  11.662  12.335   3.664  0.1026  0.1576 -0.1618
19791W        W35865  12.464   9.390  13.247 -0.1847 -0.1306  0.3030
19792W        W35866   3.745  13.073  15.933 -0.0607  0.0329 -0.2476
19793W        W35867  10.710  12.072  15.716 -0.1473  0.1833 -0.1400
19794W        W35868  13.298   1.386  11.802 -0.1505  0.1756  0.0568
19795W        W35869   4.483  10.321  14.175  0.0582  0.0885 -0.0676
19796W        W35870   9.975   3.300  13.778  0.1815  0.3019  0.0383
19797W        W35871  13.048   0.162   0.955  0.0764  0.3244  0.0410
19798W        W35872   6.003   5.766   1.591  0.1102  0.1527 -0.2030
19799W        W35873   0.213  13.608  13.312 -0.4068  0.1861 -0.1558
19800W        W35874   4.153   5.199   4.767 -0.0196  0.2494  0.1053
19801W        W35875  14.769  16.514   3.552 -0.0963  0.0344 -0.0846
19802W        W35876   9.009  13.703  14.833  0.1914 -0.2742 -0.0148
19803W        W35877   9.114  11.020   0.729 -0.2310 -0.0143  0.3303
19804W        W35878  11.762  16.338  16.288 -0.1275  0.1690  0.1569
19805W        W35879  12.850  18.164  13.988 -0.2832 -0.0833 -0.1028
19806W        W35880  11.070  10.872   5.519  0.4359  0.2029 -0.0797
19807W        W35881   1.826   7.441   3.848 -0.1991  0.2015 -0.2322
19808W        W35882   3.893  12.491   5.957  0.0607  0.1603  0.1055
19809W        W35883   9.173   2.489  15.398  0.0181 -0.4946 -0.1832
19810W        W35884  12.850   8.423  11.349  0.0481  0.0238  0.1497
19811W        W35885  16.557  15.109  13.028  0.0638  0.2314 -0.3016
19812W        W35886   0.210  14.940   0.752  0.0173  0.2072  0.1754
19813W        W35887   3.073  14.314   1.926 -0.1571 -0.0633 -0.0051
19814W        W35888   5.158   3.616  12.838  0.2628  0.0978 -0.0379
19815W        W35889  13.801   0.093   3.805  0.0009  0.1222 -0.0403
19816W        W35890  16.169  16.014   1.600 -0.4838  0.0407  0.0817
19817W        W35891  11.952   8.740   2.113 -0.1403  0.3030 -0.1499
19818W        W35892   8.598   9.343  13.910 -0.1475 -0.1836  0.1392
19819W        W35893   7.219   4.151   0.555 -0.2560 -0.2205 -0.0135
19820W        W35894   8.431  10.936  15.099 -0.1783  0.3687  0.0068
19821W        W35895   3.000   3.495  13.913  0.3368  0.2063 -0.2272
19822W        W35896   4.015   7.178   3.799  0.2551 -0.0787 -0.4111
19823W        W35897  13.066  13.228  13.309  0.0682 -0.2517  0.2309
19824W        W35898   2.294  12.275  14.243  0.0203  0.0245 -0.2328
19825W        W35899  11.433  10.515   5.370  0.0875 -0.1456  0.0978
19826W        W35900  14.379  17.443   2.349 -0.0567 -0.0757  0.0195
19827W        W35901  14.750   7.410  12.717 -0.2816 -0.0215 -0.0860
19828W        W35902   7.100  10.714   3.771 -0.0290  0.2456  0.1547
19829W        W35903   8.055  17.971   4.939 -0.0427 -0.1200 -0.0377
19830W        W35904   3.011  15.119   3.100 -0.0090 -0.0409 -0.4115
19831W        W35905   1.056  15.715  13.779 -0.1850 -0.1309  0.1792
19832W        W35906  17.315   3.365   5.275  0.1722  0.1720  0.0698
19833W        W35907   5.046   5.234  14.023 -0.2534  0.0536 -0.2312
19834W        W35908  17.021   0.625  14.952 -0.1343 -0.4895  0.2054
19835W        W35909   0.515  12.058  14.186  0.1172 -0.0654 -0.2965
19836W        W35910   3.527   7.074  13.483  0.1543  0.2130  0.1145
19837W        W35911   6.487  15.984  15.753  0.2940  0.2389  0.2893
19838W        W35912   1.544  10.838   4.132  0.2553  0.3257 -0.0171
19839W        W35913   9.257  10.704   1.120 -0.1026  0.0032 -0.3394
19840W        W35914   3.534   2.339   4.351  0.0292 -0.1708  0.1812
19841W        W35915  16.405   2.120   2.904 -0.2619  0.0837 -0.1053
19842W        W35916   7.625   8.920   3.151  0.0918  0.0591  0.2387
19843W        W35917   9.268  16.681  11.483 -0.1222 -0.0949 -0.1256
19844W        W35918  14.717  17.000   4.174 -0.2192  0.2780  0.1053
19845W        W35919  15.043   0.669  13.743  0.0083 -0.1054  0.3740
19846W        W35920  13.878   1.757  15.627 -0.1453 -0.1689  0.4982
19847W        W35921   9.919   3.215  10.894  0.1938  0.0443  0.1452
19848W        W35922   3.258  11.506   1.402 -0.0866 -0.2608  0.0667
19849W        W35923   0.351   2.546   1.533  0.1453 -0.0140  0.0275
19850W        W35924   4.024   2.784  11.313 -0.0138 -0.2569  0.0759
19851W        W35925  11.968   5.239  12.448 -0.0043  0.2738  0.4318
19852W        W35926   6.425  11.060  13.651 -0.0507 -0.0612  0.1383
19853W        W35927   8.220  14.493  13.437  0.2111 -0.1162  0.0384
19854W        W35928   0.532   2.940   0.695  0.1599  0.0834 -0.1222
19855W        W35929   9.427   6.924  15.538  0.0370  0.0054 -0.1653
19856W        W35930  14.714   6.917   4.034  0.3050 -0.0255  0.0388
19857W        W35931  14.609  12.562   1.151 -0.2762 -0.2715 -0.0909
19858W        W35932  15.469   3.979  15.178  0.0016  0.1205  0.0911
19859W        W35933   5.870   5.272   1.450  0.0816  0.0562  0.2079
19860W        W35934  13.623  14.060  15.277 -0.2759 -0.2101  0.1601
19861W        W35935   6.576   0.496   0.585  0.2741 -0.0095  0.1226
19862W        W35936  15.116  15.100   1.882 -0.1478  0.0173 -0.2033
19863W        W35937  12.166   1.536  15.936 -0.1371  0.0594  0.0819
19864W        W35938   7.387   1.938   0.093  0.1886 -0.1993 -0.1602
19865W        W35939  10.545  10.548  16.223  0.1129 -0.0052  0.0180
19866W        W35940   9.395   0.242   3.883  0.2553  0.1878 -0.3086
19867W        W35941   3.529  10.039   1.496 -0.2363 -0.0036  0.2074
19868W        W35942   6.473   5.613   2.041 -0.0263  0.1879  0.2515
19869W        W35943   1.083  17.763  11.611  0.4317 -0.1832  0.1724
19870W        W35944   0.387   7.997  13.858 -0.0676  0.1167 -0.1986
19871W        W35945   8.399  10.209   4.264 -0.1155  0.2917  0.2312
19872W        W35946  14.626   3.681   2.397 -0.1233  0.2888 -0.1358
19873W        W35947  12.329   3.974   1.170 -0.5992 -0.0639 -0.0415
19874W        W35948   9.792  15.524  16.106  0.1096 -0.2235  0.2544
19875W        W35949   1.161   2.769   2.178  0.1046 -0.0480 -0.1292
19876W        W35950   6.792   5.706  13.189  0.0905 -0.2798 -0.1563
19877W        W35951  12.298   4.954  10.971 -0.2925 -0.0265 -0.1930
19878W        W35952   4.114  10.132  14.996 -0.0237 -0.3014  0.0314
19879W        W35953   4.975   2.923   1.232 -0.2395 -0.5033  0.2878
19880W        W35954  17.236   0.895   3.408 -0.2426 -0.0670 -0.4499
19881W        W35955  10.050   5.613  12.214 -0.4059 -0.0198  0.2655
19882W        W35956  15.154  14.852   5.459  0.1980 -0.2570  0.0089
19883W        W35957  14.960   5.271   3.369  0.5218  0.1344  0.0457
19884W        W35958   6.609  11.026  14.932 -0.3149  0.0407 -0.0376
19885W        W35959  17.659  11.441   3.430 -0.3444 -0.0626 -0.0540
19886W        W35960  10.851  10.905  11.172  0.0380  0.0518  0.0793
19887W        W35961   7.644   3.109  12.149  0.2497 -0.0543  0.1471
19888W        W35962   1.403  17.966  12.460 -0.2165  0.1109  0.0122
19889W        W35963   8.620  12.508   5.055  0.3446 -0.0991 -0.1900
19890W        W35964   6.816  15.507   0.097 -0.1566  0.0377 -0.0708
19891W        W35965   7.088  12.722   6.730 -0.0394  0.0519  0.3068
19892W        W35966   2.958  10.388   2.813 -0.0098 -0.1545 -0.0390
19893W        W35967  17.669   4.972   0.622 -0.3571 -0.1567  0.1834
19894W        W35968  13.668  12.872   0.836  0.0803  0.2265 -0.0783
19895W        W35969   1.545  14.843  15.502  0.1418  0.0905 -0.2204
19896W        W35970  17.363   8.140   1.041  0.2727  0.2248  0.2604
19897W        W35971   1.381  16.683  15.667  0.0355 -0.2187  0.0075
19898W        W35972  12.160  17.600  13.994  0.1048  0.3041 -0.1563
19899W        W35973   1.212   7.663   3.172  0.5244  0.3909  0.0907
19900W        W35974   8.502   0.407   3.809  0.0686  0.0440 -0.1557
19901W        W35975   4.061   2.560  15.462 -0.1533 -0.0380  0.1388
19902W        W35976   8.402   7.633   1.564 -0.0583 -0.0616 -0.1833
19903W        W35977  10.606   8.263   4.341 -0.1085 -0.1296  0.0306
19904W        W35978  14.537   8.819   2.058 -0.1397  0.1367  0.1268
19905W        W35979   7.081  10.293  13.507  0.1163  0.2959 -0.2264
19906W        W35980   3.202   8.864   2.267  0.6191 -0.0763 -0.1367
19907W        W35981   3.603   1.993  13.352  0.0623  0.1190 -0.4597
19908W        W35982  15.987   3.204   2.779  0.0850 -0.1829  0.3502
19909W        W35983   4.696   9.173   5.528 -0.2174  0.0359  0.0045
19910W        W35984  17.613  16.593  13.194 -0.3288 -0.0393  0.0039
19911W        W35985   9.671   8.368  15.138  0.0258  0.1043 -0.3415
19912W        W35986   1.815  16.394   0.435 -0.0235 -0.1876 -0.1388
19913W        W35987  16.395   7.639  14.657  0.0079  0.2037 -0.0659
19914W        W35988   7.464  14.310   2.960 -0.0128  0.0783 -0.1577
19915W        W35989  18.326  12.403   4.024  0.4537  0.3413 -0.2732
19916W        W35990   7.733   4.299  13.656  0.0659 -0.0780 -0.1810
19917W        W35991  15.876  12.959  11.679  0.0485  0.0008 -0.3064
19918W        W35992   8.280   1.488  15.504  0.0683 -0.0830  0.3458
19919W        W35993   7.579   3.076   3.949 -0.1487 -0.0144  0.2075
19920W        W35994   8.059  12.213  12.323  0.0765 -0.0689 -0.0120
19921W        W35995   9.087  15.101   3.572  0.5512  0.0439 -0.0851
19922W        W35996   8.251   3.852   3.072 -0.1632 -0.0879 -0.0101
19923W        W35997  10.405   3.548  10.554  0.0539  0.1683 -0.0336
19924W        W35998   0.634  15.318   2.059  0.2619 -0.1088 -0.0092
19925W        W35999  14.287   8.524   0.662 -0.1710 -0.0292 -0.0271
19926W        W36000   7.358   3.896   4.737 -0.1367 -0.3156 -0.2679
19927W        W36001   7.824   4.177  11.917  0.3700 -0.1453 -0.3384
19928W        W36002  11.900  14.773   4.615  0.1459 -0.0890  0.1624
19929W        W36003   9.346  17.916  12.910 -0.5583 -0.0541  0.0050
19930W        W36004   3.164  16.444   2.360 -0.2701  0.1474  0.2023
19931W        W36005  16.059   0.093  11.934  0.0076  0.2380 -0.0289
19932W        W36006   9.019   6.056   3.641  0.0260  0.1369 -0.0042
19933W        W36007   7.502   1.566  13.049 -0.1452 -0.1896  0.3012
19934W        W36008  17.208   9.337  15.313 -0.1985  0.1492  0.2559
19935W        W36009  16.526  15.521  12.713  0.0158 -0.0846 -0.1087
19936W        W36010   2.530   8.484  14.570  0.1382  0.1136  0.0792
19937W        W36011   4.071  15.371  12.975 -0.0656 -0.0692 -0.2315
19938W        W36012   8.526  14.694  13.769 -0.1027  0.1453  0.1687
19939W        W36013  14.315   0.909   2.928 -0.0190  0.1185  0.0901
19940W        W36014   1.002  12.104  14.048  0.1150  0.0689  0.3066
19941W        W36015   4.712   7.131   0.045 -0.2914 -0.0182  0.1393
19942W        W36016  15.231  18.024   4.626 -0.0925 -0.0263 -0.1267
19943W        W36017  17.968  17.059  11.426  0.1374  0.0982  0.1485
19944W        W36018   0.491   8.108  13.016 -0.1237  0.1093  0.0253
19945W        W36019   6.016   0.873   0.299  0.3583  0.1691 -0.0120
19946W        W36020   8.888   2.476   0.544 -0.0406  0.0837 -0.0459
19947W        W36021   1.747   4.144   4.434 -0.2191 -0.1411  0.0173
19948W        W36022   7.966  12.301  13.446 -0.0912  0.2302 -0.2648
19949W        W36023   8.307   7.585   5.449  0.2204 -0.2418 -0.3352
19950W        W36024   0.602  16.432   0.194  0.0138  0.0251  0.0581
19951W        W36025   7.597   4.328  14.200  0.1504 -0.2998  0.1634
19952W        W36026  13.833   2.667   0.520 -0.3638 -0.1049  0.2493
19953W        W36027   0.858   4.827  12.259  0.0177 -0.0744  0.0840
19954W        W36028  14.112   9.032   0.867  0.2672 -0.1334 -0.0229
19955W        W36029   8.883   6.994   1.922  0.0868  0.0904 -0.1190
19956W        W36030  13.523  13.079  15.068 -0.0443 -0.3845  0.2127
19957W        W36031  14.493   4.852  16.147  0.0975  0.0933  0.3593
19958W        W36032   8.256   9.588   3.024 -0.0246  0.0401  0.0592
19959W        W36033   0.375  11.030   2.807  0.0882  0.0667  0.0388
19960W        W36034   8.582  12.996   3.232  0.0576 -0.2763 -0.0616
19961W        W36035  10.766  14.750   1.860 -0.1685  0.0499 -0.0626
19962W        W36036   8.125   1.875  15.317  0.2528 -0.2204 -0.0070
19963W        W36037   4.489   2.624  12.408 -0.1036  0.0368  0.2905
19964W        W36038  14.836   2.578  11.209  0.3426 -0.1796 -0.2303
19965W        W36039   1.495   6.751  11.626 -0.1350  0.2280  0.3879
19966W        W36040  11.172  17.282  11.613 -0.0779 -0.2333  0.2053
19967W        W36041  10.737  17.764   2.378 -0.0137 -0.0934 -0.5604
19968W        W36042   6.685  17.517   0.442 -0.0783 -0.4322 -0.1698
19969W        W36043  17.182   1.469  12.005 -0.2169  0.0799  0.1940
19970W        W36044   3.023   4.422   0.430  0.0394  0.2160  0.5705
19971W        W36045  11.335  16.897   3.031  0.0050  0.0254  0.2154
19972W        W36046   5.331  12.359   2.581  0.3972 -0.3709 -0.0476
19973W        W36047  10.304  11.131  15.648 -0.1574 -0.1686 -0.0059
19974W        W36048  10.760   7.394  15.504 -0.1447 -0.2581 -0.1132
19975W        W36049  18.015   5.909  11.245 -0.0399  0.1616  0.4397
19976W        W36050   1.439  13.850   0.179  0.1465 -0.1560 -0.1307
19977W        W36051  15.817   2.229   0.567 -0.0708  0.1145  0.1158
19978W        W36052   7.773  15.795  15.544  0.0089 -0.2796  0.0434
19979W        W36053  17.826   5.189  13.019 -0.1524 -0.0415 -0.0625
19980W        W36054  10.142   3.789  13.938  0.0299  0.1696 -0.3385
19981W        W36055   6.721   1.076  12.527 -0.0395  0.1912 -0.1774
19982W        W36056  10.517   2.376   3.142 -0.0170 -0.0125  0.1302
19983W        W36057  11.904   6.452  11.532  0.0147  0.0459  0.1956
19984W        W36058  13.406   6.315   0.835 -0.0679  0.0599 -0.0584
19985W        W36059  11.667  16.834   4.825  0.0730  0.0674 -0.1198
19986W        W36060  18.058  15.628  14.617 -0.1600  0.1944  0.2492
19987W        W36061  17.283   3.598  11.763 -0.0779  0.0457 -0.2599
19988W        W36062   3.401  10.562   0.035 -0.0119 -0.0692 -0.4489
19989W        W36063   8.869   9.165   0.740  0.1949  0.1989 -0.0586
19990W        W36064  10.437  13.578   5.687 -0.2734  0.2547  0.1893
19991W        W36065  10.418  10.107   0.194  0.0580 -0.1718 -0.3555
19992W        W36066  12.505   3.779   0.624  0.0957 -0.0531  0.0457
19993W        W36067   7.757   7.610   2.386  0.2555 -0.1495  0.1527
19994W        W36068   3.570  17.426  10.718  0.0801 -0.2737 -0.1700
19995W        W36069  17.957  15.383  12.846 -0.1927  0.2944  0.0645
19996W        W36070   1.534  14.019  13.000 -0.0718  0.0672  0.2306
19997W        W36071  12.943   9.771   1.023 -0.0395 -0.0419  0.0675
19998W        W36072  10.730   5.808  12.314  0.1104  0.0594  0.2149
19999W        W36073   8.666   6.221   1.873  0.1644  0.0432 -0.1708
20000W        W36074  13.376  11.973   0.832 -0.1223  0.3971 -0.0140
20001W        W36075   0.269   8.332   0.529  0.3181 -0.1697 -0.4380
20002W        W36076   5.082   8.983   3.578  0.2070  0.2388 -0.0731
20003W        W36077  12.080   5.447  13.377 -0.3188  0.0446 -0.2672
20004W        W36078  10.096  11.576  15.648 -0.1120  0.2700 -0.1045
20005W        W36079   0.557   7.622  14.617  0.0733 -0.4345  0.3987
20006W        W36080  13.250   4.775   1.595 -0.1036 -0.2354  0.2195
20007W        W36081   6.710   5.548  10.179  0.0061 -0.0800  0.1797
20008W        W36082   3.399   7.651   2.590 -0.3185  0.1791  0.4622
20009W        W36083   3.286   6.142   0.636 -0.4625 -0.0310 -0.0817
20010W        W36084   0.407   5.497   2.040  0.0802  0.0257 -0.3731
20011W        W36085  17.121  15.056   0.055 -0.0611  0.0228  0.1658
20012W        W36086   8.341   2.583   3.932 -0.1313 -0.0941 -0.1851
20013W        W36087  12.180  10.954  11.368  0.0930 -0.1705 -0.1295
20014W        W36088  13.858   1.559  13.978  0.0587  0.1590 -0.3793
20015W        W36089   9.762   8.673   4.564  0.0314  0.1328 -0.0186
20016W        W36090   8.452   2.800  13.739  0.0844  0.1554 -0.0959
20017W        W36091   9.033   0.848   5.198  0.4981 -0.0395 -0.0089
20018W        W36092  15.787   5.534   0.805 -0.2608  0.1137 -0.0681
20019W        W36093   5.087  11.555  14.154 -0.1321  0.1269  0.2435
20020W        W36094  15.797  12.716  15.631 -0.1573 -0.0249  0.1022
20021W        W36095  11.210  12.688  13.520 -0.3481  0.1334 -0.1559
20022W        W36096  10.359  17.015   1.056  0.1570  0.0279 -0.0870
20023W        W36097   9.530  15.596   5.525  0.0859 -0.0968 -0.1473
20024W        W36098   2.873   5.019   5.648 -0.2758  0.0122  0.3111
20025W        W36099   8.582  13.128  16.158 -0.1162  0.0175 -0.0912
20026W        W36100  16.972   2.633  13.144 -0.0934 -0.0063 -0.0937
20027W        W36101  17.905  18.142  12.678  0.2287  0.0202 -0.3067
20028W        W36102   9.600  17.154   2.741  0.0416  0.0953 -0.1227
20029W        W36103   6.093   8.492   2.564 -0.0240  0.0072  0.3865
20030W        W36104   7.914   3.383  13.343 -0.2420 -0.0019  0.0126
20031W        W36105   1.067  11.130  14.802 -0.1594  0.2030  0.1863
20032W        W36106   7.362   3.247  12.711 -0.0037 -0.0589 -0.1781
20033W        W36107  10.258  16.753   1.500  0.0585 -0.1118  0.1401
20034W        W36108  17.640  14.480  13.893  0.0043 -0.5779  0.0277
20035W        W36109  12.751   3.530  15.800  0.2188 -0.1011  0.0440
20036W        W36110  13.017   7.276  15.655 -0.2800 -0.1319  0.0063
20037W        W36111   3.832  14.536   2.814 -0.1346  0.0394 -0.1804
20038W        W36112  14.480   2.013   2.982 -0.1206 -0.1076  0.0755
20039W        W36113   1.187   1.088   2.114 -0.0298 -0.4347  0.1259
20040W        W36114  12.351  15.617   4.901 -0.2632  0.0938  0.1253
20041W        W36115   2.232   3.680  15.390 -0.1628 -0.2210  0.2509
20042W        W36116   4.659   8.447  15.892  0.3345 -0.0167  0.0157
20043W        W36117   4.176  15.074   5.898  0.1419 -0.0898  0.0714
20044W        W36118  17.669   4.577  14.885 -0.2019  0.1627 -0.0757
20045W        W36119  14.111  15.692  14.580  0.0247  0.0881  0.1417
20046W        W36120   8.022   6.114   4.909  0.0978  0.0207 -0.0159
20047W        W36121  13.099   8.425   5.402 -0.1827  0.0414 -0.0501
20048W        W36122   7.896  14.582  14.852 -0.0841 -0.3224  0.1118
20049W        W36123  15.601  15.981  12.668  0.0328 -0.3536 -0.3300
20050W        W36124   9.505   5.687  14.624 -0.0320 -0.1335  0.1355
20051W        W36125  14.841  11.648  14.923 -0.3693  0.2684 -0.2182
20052W        W36126   4.153   6.749  14.025  0.2106 -0.0386 -0.1468
20053W        W36127  11.872   2.049  12.623 -0.3559  0.0709  0.2088
20054W        W36128  16.649  17.486   2.529  0.0209  0.1188 -0.3989
20055W        W36129  15.025  13.130   2.580 -0.2600 -0.0641 -0.1283
20056W        W36130  18.198  17.816  12.396 -0.4542 -0.4694  0.1169
20057W        W36131  17.118   9.259   3.999 -0.0586 -0.1575  0.1213
20058W        W36132  17.658   1.629   4.845  0.3925  0.1196  0.1408
20059W        W36133   7.793   1.541  15.609  0.4211 -0.1228  0.1874
20060W        W36134  15.827   0.205  13.211  0.2692 -0.1125 -0.0196
20061W        W36135  18.285   3.812   2.578 -0.1836 -0.0624 -0.1525
20062W        W36136  13.580  15.536  14.060  0.0255 -0.1191  0.0873
20063W        W36137   6.742  10.593   1.109  0.1439 -0.0792 -0.0384
20064W        W36138   4.948  11.279   2.418  0.2900 -0.0043  0.0756
20065W        W36139  10.604   8.974   0.753  0.4370 -0.1724  0.1603
20066W        W36140  16.937  17.262   4.197 -0.0194 -0.0671 -0.3919
20067W        W36141  18.118  14.006   5.520 -0.2697  0.4831  0.1253
20068W        W36142   9.385   5.420   4.215 -0.1592  0.1767  0.1594
20069W        W36143   6.592   3.650   1.444 -0.1373  0.2372 -0.0724
20070W        W36144   9.255  18.055  15.179  0.0783  0.3767 -0.1548
20071W        W36145   8.885   0.296  10.741 -0.2679  0.3993  0.0855
20072W        W36146   9.868   2.813   5.108  0.0178  0.0534  0.1715
20073W        W36147  17.911  12.409  13.538  0.0074 -0.3210 -0.1904
20074W        W36148  12.697  15.016  15.168 -0.2012 -0.0960  0.3799
20075W        W36149  14.491   5.979   4.103  0.0412  0.1679  0.2931
20076W        W36150   1.545   8.989   1.886 -0.2716  0.3142  0.2186
20077W        W36151  15.554   4.868   3.798  0.1266  0.2494 -0.0443
20078W        W36152  13.988  10.806  16.392  0.0060  0.1851  0.0872
20079W        W36153   0.410   5.700  12.406  0.0178 -0.2209  0.1246
20080W        W36154   9.784  10.253  11.538  0.2207 -0.0372  0.1209
20081W        W36155   1.457  16.491  15.178  0.2117  0.4780 -0.0328
20082W        W36156   1.413   7.835   4.740  0.1024  0.0512  0.1637
20083W        W36157   3.182   9.521   5.077 -0.0224 -0.1768 -0.0470
20084W        W36158   3.167   4.876  14.500 -0.1298  0.0931  0.3591
20085W        W36159  12.192   5.066  11.955 -0.0460 -0.2018  0.2187
20086W        W36160   0.090   8.724  14.068  0.1679  0.1204 -0.1883
20087W        W36161   9.177  10.376   0.053  0.1112 -0.2302 -0.1154
20088W        W36162   5.095  14.544   2.213 -0.1515  0.1037 -0.2431
20089W        W36163  18.011  13.410  13.941  0.1477  0.1589 -0.1590
20090W        W36164  15.874   2.354  14.720 -0.1793  0.3171  0.2441
20091W        W36165   8.845   2.613  11.904 -0.3017 -0.2834  0.0171
20092W        W36166   2.445  10.188  13.076 -0.1891  0.1673  0.1149
20093W        W36167   8.025  12.530   2.966 -0.0086  0.3596 -0.0473
20094W        W36168  18.158  15.367   3.628 -0.1292  0.0033 -0.2344
20095W        W36169   1.339  16.538  13.912  0.1114 -0.0860 -0.2615
20096W        W36170   1.123   9.298  15.980 -0.0406 -0.0677 -0.1271
20097W        W36171  11.911   7.168  15.254 -0.1977 -0.1700 -0.1474
20098W        W36172  15.046  13.506   3.844  0.0438  0.0008  0.0131
20099W        W36173  14.521  13.016  11.695 -0.2036 -0.3138 -0.1573
20100W        W36174   2.539   0.516  16.193  0.1736  0.0661 -0.3290
20101W        W36175  15.686  16.894  13.003  0.0796 -0.1337  0.0986
20102W        W36176  16.110  18.112  13.143 -0.1312  0.0467  0.1544
20103W        W36177   9.819   6.164   1.131 -0.1808  0.0859 -0.1714
20104W        W36178   6.803  17.773  13.435  0.0247  0.0828 -0.1045
20105W        W36179   6.223  11.756   4.057 -0.0110  0.1551 -0.0572
20106W        W36180   0.431  12.012  12.345 -0.1614  0.2985  0.2832
20107W        W36181   3.543   9.163  16.377 -0.0729 -0.1032  0.2816
20108W        W36182  13.875  16.570   3.181  0.0353  0.0648 -0.2347
20109W        W36183  15.894  17.281   0.814  0.0047 -0.1170  0.0712
20110W        W36184   5.538  17.769  13.643  0.0233 -0.4103 -0.0889
20111W        W36185   0.231  14.215   5.486  0.0265 -0.0668  0.3335
20112W        W36186  11.555  17.030   3.905 -0.0572  0.0074  0.2745
20113W        W36187   3.937   3.586  15.695 -0.3005 -0.1243  0.0854
20114W        W36188   6.909  16.074   1.307  0.1393  0.0573  0.0826
20115W        W36189  13.703   0.899   0.438 -0.1386 -0.1042 -0.1271
20116W        W36190   6.427  11.978  15.559 -0.0581 -0.0238  0.0769
20117W        W36191  15.299  10.032  15.532 -0.1891  0.2850 -0.0445
20118W        W36192  11.007   9.156   5.415 -0.6346  0.1593 -0.4021
20119W        W36193  14.971   2.634   5.271 -0.1028 -0.2525 -0.2394
20120W        W36194   0.731   9.066  15.793 -0.2696  0.0026 -0.0729
20121W        W36195   3.047  18.099  14.694 -0.0657 -0.0616 -0.4124
20122W        W36196   0.119  18.242  12.113  0.1958 -0.1248 -0.2732
20123W        W36197  10.939  14.646  14.194 -0.3010 -0.3732  0.2501
20124W        W36198   3.877   7.290  13.929 -0.0248 -0.1225  0.2937
20125W        W36199  14.420   6.964  11.796 -0.0443 -0.1505 -0.3654
20126W        W36200  14.762  16.059  14.502 -0.1048  0.3681 -0.0886
20127W        W36201   6.131  13.238   2.424  0.2565  0.3351 -0.0407
20128W        W36202  13.096   7.098   0.876 -0.3005  0.1016  0.1324
20129W        W36203   4.525   1.750  14.436 -0.1585  0.2550 -0.1957
20130W        W36204   7.616   1.749   4.086  0.1050  0.1503  0.0703
20131W        W36205   1.068  13.199   3.892 -0.0667 -0.2856 -0.1164
20132W        W36206  16.548  13.287   3.808 -0.5436  0.3094 -0.1858
20133W        W36207   4.662  14.165  14.861  0.2948  0.1788 -0.2699
20134W        W36208   1.076   3.131  11.451  0.0011 -0.0270 -0.0166
20135W        W36209  17.678   3.498   6.213 -0.1096  0.1892 -0.3028
20136W        W36210   9.602   4.584   4.560  0.3288  0.1412  0.0044
20137W        W36211   0.144  17.774  15.381 -0.0141 -0.1042 -0.0791
20138W        W36212  15.000   1.148   1.536  0.0249  0.1862  0.1837
20139W        W36213   0.563  16.941  13.916 -0.3635  0.4391  0.1796
20140W        W36214   7.670   7.986   4.395 -0.2421 -0.0932  0.0461
20141W        W36215   2.049  15.860   4.937 -0.0232  0.1893 -0.0278
20142W        W36216  11.308   1.838  10.974  0.0921 -0.0086  0.0990
20143W        W36217  14.036  15.143   3.040 -0.3839 -0.1039  0.0490
20144W        W36218   5.758  17.661  12.026 -0.2076 -0.1824 -0.1409
20145W        W36219  16.796  10.240  12.348  0.2366  0.0946  0.0736
20146W        W36220  10.009   0.724   4.419 -0.1218 -0.2463 -0.1612
20147W        W36221   8.947  14.549   2.939  0.1660  0.1026 -0.0191
20148W        W36222  13.364  14.854  12.645 -0.0889  0.1928 -0.0152
20149W        W36223   4.421   2.678  15.819 -0.0628  0.0411 -0.1376
20150W        W36224   5.354  15.000   5.784 -0.0468  0.1170  0.2062
20151W        W36225  12.227   3.592  14.069 -0.0287  0.1837  0.1416
20152W        W36226  11.693  18.247   4.349 -0.4127  0.1896  0.4398
20153W        W36227  16.931  14.654   6.025 -0.1862 -0.1235 -0.1083
20154W        W36228   5.756  13.422   0.818  0.1594  0.1182 -0.0052
20155W        W36229  11.687  15.134   1.232 -0.1213 -0.1189  0.1862
20156W        W36230  13.842   8.215   2.678  0.0030 -0.1900 -0.1993
20157W        W36231   1.028  11.574   0.058  0.0668 -0.0008  0.0796
20158W        W36232   5.549   8.784  11.779 -0.3238 -0.1683  0.2614
20159W        W36233   7.080   8.813   0.094 -0.3513 -0.2114 -0.0986
20160W        W36234  14.886  10.449  14.576 -0.1261  0.1715 -0.1082
20161W        W36235  11.718  10.993   2.631  0.2855 -0.3224 -0.3688
20162W        W36236  11.235  18.125  13.832  0.0239  0.0325 -0.4550
20163W        W36237   7.214   2.661  14.270  0.0117  0.0769 -0.0390
20164W        W36238  11.328  15.466   2.554  0.0304  0.1651 -0.1605
20165W        W36239   8.067   3.440   1.787  0.0804  0.1422  0.1360
20166W        W36240   4.558   1.011   0.936 -0.1135  0.1705  0.0561
20167W        W36241  13.920   6.505  11.208  0.1961  0.1340 -0.1128
20168W        W36242  13.397   2.982  13.719 -0.0642  0.2713  0.1281
20169W        W36243  14.107  18.270  14.769  0.2458 -0.0286  0.2553
20170W        W36244   5.807  18.298   5.028  0.0777  0.0473  0.2511
20171W        W36245   4.286  15.719  15.399 -0.1388  0.1758  0.0710
20172W        W36246   3.519  16.538   5.851 -0.0595  0.1155 -0.1657
20173W        W36247  16.601  12.255  12.685  0.3180 -0.1060  0.0393
20174W        W36248   7.691   6.484  14.842 -0.0496  0.0169 -0.0908
20175W        W36249   6.149   5.283  12.557 -0.3062  0.0543  0.2012
20176W        W36250   3.466  15.257  14.237 -0.2904 -0.1344  0.1048
20177W        W36251   7.238   7.817   4.508 -0.4582  0.2869  0.0258
20178W        W36252   5.540  13.573  14.727 -0.2139 -0.0781  0.3370
20179W        W36253   7.108   2.503  11.312 -0.1032 -0.1909 -0.1175
20180W        W36254  14.254   6.176   3.059 -0.4888 -0.0315 -0.1126
20181W        W36255  14.200   6.077   1.362  0.1863 -0.0652 -0.1819
20182W        W36256   5.017  17.800   6.225  0.3009 -0.1060 -0.2054
20183W        W36257  11.567   9.683  15.220 -0.2699  0.1730 -0.5287
20184W        W36258  11.200   8.075  16.097  0.0490  0.0261 -0.1062
20185W        W36259  11.590  12.898   3.946 -0.1932  0.0207 -0.1604
20186W        W36260   5.382   2.017  14.828  0.1066 -0.1951  0.1345
20187W        W36261  11.748  13.232   0.223 -0.1508  0.2236  0.2013
20188W        W36262  10.283   5.000  15.999 -0.3185 -0.0583 -0.2225
20189W        W36263   0.274  16.225  12.302  0.1829 -0.0798 -0.1770
20190W        W36264   8.231  10.257   1.898  0.0372 -0.0233  0.2643
20191W        W36265   3.123  15.379   5.711  0.1452  0.0737 -0.1813
20192W        W36266   1.908   9.962   1.081 -0.1489  0.4082 -0.0255
20193W        W36267  17.501   4.668  12.126 -0.0666  0.0114 -0.1223
20194W        W36268  16.116  16.566   3.526 -0.0362 -0.1869 -0.0527
20195W        W36269   5.952  14.380  12.261  0.0289  0.0902  0.3812
20196W        W36270  16.206   5.323   5.051 -0.1382  0.3829  0.1170
20197W        W36271   5.026  13.652  16.054 -0.2547 -0.0490  0.1342
20198W        W36272   9.131   6.221  16.299  0.2033  0.1737  0.0354
20199W        W36273   7.617  10.954  13.529  0.0200  0.3729 -0.2953
20200W        W36274  11.523  13.252   3.126 -0.1297  0.1490  0.1088
20201W        W36275   4.113  11.457  13.856 -0.1009 -0.3218  0.2286
20202W        W36276   0.906   9.549  12.115 -0.1831  0.0384 -0.1243
20203W        W36277   6.464  14.756  16.325  0.1576  0.1735  0.0157
20204W        W36278   7.006   1.472  11.101 -0.0846  0.3772 -0.1375
20205W        W36279  15.574  15.686  11.390 -0.1354 -0.0333  0.0997
20206W        W36280  13.908   9.809   3.432  0.1380  0.0546 -0.3236
20207W        W36281   8.385  16.306  12.424  0.3795 -0.0014  0.3320
20208W        W36282   3.492   6.962   4.084  0.3898 -0.0718  0.3198
20209W        W36283   8.736  10.803   2.133 -0.3086  0.1957  0.2285
20210W        W36284  18.279   1.088   4.250 -0.2383  0.0054 -0.1033
20211W        W36285  11.488  13.594  11.654 -0.2641  0.5434  0.2232
20212W        W36286   0.709  15.680   3.042 -0.3184 -0.0214 -0.2130
20213W        W36287   5.949   4.115  14.100 -0.0654  0.1783 -0.3219
20214W        W36288   4.059  17.346   6.199  0.4395  0.3691  0.0352
20215W        W36289  15.044   0.850  11.213  0.2177 -0.1550 -0.3369
20216W        W36290   3.937  17.119   0.743  0.2849  0.0335  0.0014
20217W        W36291   7.657   7.266   0.654  0.2288 -0.2052  0.1959
20218W        W36292  14.669  15.246   0.397  0.0515  0.2822 -0.2068
20219W        W36293   4.628  10.148  15.037 -0.1452 -0.0133  0.0728
20220W        W36294  11.190   8.624  15.258 -0.1477 -0.1499 -0.1588
20221W        W36295  17.053   2.718   1.840 -0.2995  0.1887  0.0092
20222W        W36296  12.172   2.934   3.544  0.3263 -0.0343 -0.1132
20223W        W36297   0.030  10.229  14.433 -0.1557  0.0800 -0.0449
20224W        W36298   5.214  13.044  12.556  0.1685 -0.0193  0.0950
20225W        W36299   3.875  15.838  15.038  0.0421 -0.1100  0.0121
20226W        W36300  11.985  10.042   3.992 -0.0256  0.1952 -0.2253
20227W        W36301   2.970  12.010  13.844 -0.1615 -0.0067  0.1509
20228W        W36302   1.984   7.914   5.058  0.0738  0.0600  0.0793
20229W        W36303  12.318  17.989  10.911 -0.0612 -0.0599  0.0231
20230W        W36304  12.335  12.558   4.325  0.0222  0.0238 -0.2698
20231W        W36305   9.739  12.711   2.510  0.1315 -0.3082 -0.3059
20232W        W36306   7.476   8.335   1.992 -0.2063 -0.1575 -0.1957
20233W        W36307  16.235  11.839   1.000 -0.4340 -0.0046  0.0312
20234W        W36308  12.403  10.868  14.823 -0.1621 -0.1006  0.0775
20235W        W36309  14.190   3.565   1.645  0.2502  0.0542  0.3537
20236W        W36310   5.436  16.610   4.071 -0.3211  0.3664 -0.2183
20237W        W36311  11.763   0.837  13.397 -0.1018 -0.0071 -0.0418
20238W        W36312  16.719  15.914  15.128 -0.1789  0.0025  0.1260
20239W        W36313   2.493  11.339   1.057  0.0596  0.0951 -0.2439
20240W        W36314  15.440   6.238  12.047 -0.0182  0.1024 -0.0898
20241W        W36315   7.069  17.387  14.762  0.0064  0.2834 -0.0538
20242W        W36316   5.605   9.428   1.323  0.2734  0.2452 -0.1039
20243W        W36317   6.924  13.968  11.465  0.1899  0.0492 -0.0858
20244W        W36318  10.666   3.174  14.384  0.0613  0.1489  0.3150
20245W        W36319  16.121   1.637  11.931  0.2225 -0.0257  0.3338
20246W        W36320  14.669  10.805  15.624  0.1067 -0.3183  0.1519
20247W        W36321   5.137   8.616   5.034 -0.0541 -0.0068 -0.1518
20248W        W36322   0.812   8.270  15.395 -0.2561  0.1105 -0.0957
20249W        W36323   8.343  17.914   3.087  0.2995  0.1908  0.0081
20250W        W36324  11.617   2.497  12.822 -0.0093  0.2047 -0.1665
20251W        W36325  15.851  15.324  15.134 -0.0291 -0.0515  0.2449
20252W        W36326   2.799   7.801  16.251  0.1947  0.1511 -0.0084
20253W        W36327  11.785  15.438  15.681  0.0654 -0.1599  0.3785
20254W        W36328   3.205   0.727  11.368 -0.0709 -0.0420 -0.1164
20255W        W36329  15.472   5.402   0.353 -0.1723  0.1289 -0.1202
20256W        W36330   2.018   3.168  11.699  0.2322 -0.2333 -0.4718
20257W        W36331   8.993  16.728  11.910  0.0382 -0.2187  0.0472
20258W        W36332  17.163  15.740   2.157  0.2690 -0.2511  0.0879
20259W        W36333   8.100  12.587   2.373 -0.0434  0.2405 -0.1593
20260W        W36334   1.589   0.067  13.716 -0.3555  0.0349  0.5798
20261W        W36335  14.445   7.831  12.493  0.1901  0.1647 -0.0332
20262W        W36336   8.445   9.614  14.776  0.1376 -0.0628  0.0176
20263W        W36337   3.700   1.005   4.662 -0.1294  0.2624  0.1006
20264W        W36338   2.288   0.405  13.091  0.0592  0.0169  0.0524
20265W        W36339  15.392   6.262   2.429 -0.0131  0.1759  0.0285
20266W        W36340   0.558   6.795   1.008 -0.3028 -0.1243  0.2010
20267W        W36341  13.789   3.203   3.748  0.1926 -0.3199  0.0699
20268W        W36342   7.365   2.943  15.903 -0.2509 -0.0277  0.2545
20269W        W36343  11.699  17.751   1.951  0.4114  0.0569  0.3322
20270W        W36344   3.089   2.338  13.250  0.2221  0.0697 -0.1741
20271W        W36345  13.584  15.301  12.694 -0.2472  0.1145 -0.3754
20272W        W36346  16.421   1.540   3.953 -0.1272 -0.1972 -0.1965
20273W        W36347  13.406   2.202   5.628  0.0576  0.0512 -0.1420
20274W        W36348  18.256  13.415  15.125  0.0805  0.2541  0.0712
20275W        W36349   7.976   5.602  15.184  0.1711  0.1366  0.0918
20276W        W36350   9.359   4.133  14.931 -0.3814 -0.1804 -0.1460
20277W        W36351  13.701  17.465  12.602  0.0011  0.0442  0.3109
20278W        W36352   8.673   9.502   1.605 -0.1699 -0.2576  0.2783
20279W        W36353   5.878   5.056   3.021 -0.1632  0.0363  0.2579
20280W        W36354   6.715   8.189  16.085  0.0200 -0.0842  0.0457
20281W        W36355  10.791  16.598   0.119 -0.0274 -0.4099 -0.1313
20282W        W36356   7.494  16.596   0.944  0.3087  0.2362 -0.3437
20283W        W36357   0.990   9.533   3.565 -0.0087 -0.0024 -0.1587
20284W        W36358  16.579   5.602  12.546  0.3322  0.0032  0.0728
20285W        W36359   4.858   1.373  14.342 -0.0925  0.0688 -0.1475
20286W        W36360   8.262   5.857  15.947 -0.2056  0.0938  0.1818
20287W        W36361   1.368   2.833  12.201  0.0449 -0.0882 -0.1300
20288W        W36362  11.137   5.827  12.701  0.0065  0.0409 -0.0615
20289W        W36363   4.378   5.012   0.548  0.0750  0.1474 -0.1354
20290W        W36364   3.214   8.720  12.435  0.1317  0.0212  0.2730
20291W        W36365  14.759  15.497  16.243 -0.0478 -0.0608 -0.0957
20292W        W36366   9.488  10.578   5.072  0.2170  0.0537  0.2202
20293W        W36367   6.513   4.089  15.281  0.4299  0.3549 -0.2222
20294W        W36368   8.676   4.677  12.309 -0.0598  0.2213  0.0759
20295W        W36369   4.969   2.460  12.540 -0.0763 -0.3043 -0.0688
20296W        W36370   4.315   2.304  15.099 -0.2224  0.1672 -0.0686
20297W        W36371  17.604  17.063  12.376 -0.2011 -0.0727 -0.2629
20298W        W36372   3.656  10.530  12.241 -0.0143 -0.0504  0.1235
20299W        W36373   1.493  16.348  11.766  0.0615  0.0436  0.0316
20300W        W36374   3.151  15.591   2.451  0.1339  0.1081 -0.0645
20301W        W36375   7.032   3.722   5.065 -0.0088 -0.2227  0.1305
20302W        W36376  11.475  16.029   4.407  0.4318 -0.1031 -0.3531
20303W        W36377   8.757   1.311   4.481  0.0868 -0.0590 -0.2027
20304W        W36378   9.353   4.547   2.620  0.1378 -0.2559 -0.1665
20305W        W36379  15.601  13.040  15.275  0.0652  0.2354  0.1673
20306W        W36380  11.603   1.190  14.248  0.0235 -0.0712 -0.2718
20307W        W36381  17.785   5.530  12.509  0.1074 -0.0014 -0.2685
20308W        W36382  12.135   0.485  16.303 -0.1413 -0.0545 -0.3028
20309W        W36383  11.732   3.938  14.112  0.0762 -0.0528  0.0726
20310W        W36384  17.896   2.088  14.762  0.0301 -0.1490  0.0342
20311W        W36385   1.827  10.484  13.574  0.1250 -0.0154 -0.4013
20312W        W36386  12.670   0.702  11.378 -0.2801 -0.1343 -0.2367
20313W        W36387   6.358   6.232   0.831  0.0353  0.3320  0.0108
20314W        W36388  10.458   7.944  15.619 -0.3247 -0.0478  0.2187
20315W        W36389  11.684   5.242  16.257 -0.0713 -0.2504  0.2103
20316W        W36390   2.922   9.981  15.842 -0.0414 -0.1989  0.0724
20317W        W36391  10.826   2.877  11.550 -0.2550 -0.2059 -0.0864
20318W        W36392  11.622  15.592  13.599  0.0237 -0.5030 -0.1507
20319W        W36393   4.982  11.493   0.439  0.2821  0.4170 -0.0178
20320W        W36394   6.269   1.096  14.556  0.2745 -0.1786 -0.0844
20321W        W36395  10.399   9.622  12.214 -0.2850 -0.0776  0.0979
20322W        W36396  16.804   8.753  15.945 -0.1033 -0.0141 -0.2010
20323W        W36397   0.600   4.424  12.774 -0.0161 -0.1915 -0.0974
20324W        W36398  16.114  18.096   0.689  0.0208 -0.1965 -0.1905
20325W        W36399  18.327  11.402  11.484 -0.1042  0.1853 -0.0076
20326W        W36400   5.130  11.467   1.435 -0.1892 -0.0708  0.2652
20327W        W36401   7.698   9.980   4.654 -0.2524  0.1417  0.0471
20328W        W36402  15.321  15.189   4.954 -0.3410  0.1273 -0.2233
20329W        W36403   7.621  17.757   0.440  0.1316 -0.1174 -0.2033
20330W        W36404   2.652  17.714  12.474  0.0609 -0.0366 -0.1084
20331W        W36405   8.599   9.055  15.422 -0.1038 -0.2286  0.1284
20332W        W36406   7.483   9.455  12.773 -0.1490  0.2921  0.1230
20333W        W36407  10.199  17.539  12.700  0.2283  0.0764  0.0213
20334W        W36408   9.137   7.966  16.251 -0.2860  0.0163  0.0002
20335W        W36409  10.685   9.979  12.489  0.2822  0.1035 -0.1839
20336W        W36410   9.566  10.868  13.327  0.1773  0.0861  0.0160
20337W        W36411  14.260  11.918   3.056 -0.0354  0.2236  0.0527
20338W        W36412   0.865  12.476  15.698  0.2191  0.1360  0.0982
20339W        W36413  11.296  16.318   1.823  0.3884  0.1367  0.0439
20340W        W36414   9.441  14.111  12.470  0.1628  0.0824  0.2991
20341W        W36415   0.378   1.127   2.692  0.1971  0.2124  0.2598
20342W        W36416  16.334  12.900   2.201  0.3120  0.0775  0.0411
20343W        W36417   9.916   4.431   0.049 -0.3392  0.2057  0.1761
20344W        W36418   1.843   7.580  11.999 -0.1745 -0.1553  0.0938
20345W        W36419   9.605  14.447   5.597 -0.1332 -0.2300 -0.0362
20346W        W36420   1.849   7.231  14.786  0.1350 -0.0130  0.1131
20347W        W36421   5.680  14.401   0.392 -0.1143 -0.1319 -0.1351
20348W        W36422   0.157  16.938  13.049 -0.0269 -0.0595 -0.0756
20349W        W36423  12.982   4.436   1.109 -0.3774 -0.3798  0.3068
20350W        W36424   7.822   0.798   0.898 -0.2320 -0.4050 -0.4990
20351W        W36425   9.904  10.069   5.500 -0.1333 -0.1250 -0.0057
20352W        W36426   4.170   8.183  11.459  0.1612 -0.4138 -0.0617
20353W        W36427   3.662  17.354  14.520  0.1254  0.1779 -0.2821
20354W        W36428  15.928  17.997   3.663 -0.3508  0.1647 -0.1046
20355W        W36429   8.623  16.504  15.860 -0.0156  0.0391  0.0377
20356W        W36430   5.362   2.391  11.742  0.1731  0.1421  0.1010
20357W        W36431  15.642   1.969  15.821 -0.0742  0.1944 -0.2730
20358W        W36432   0.603  15.862  15.955  0.0488 -0.0059  0.3099
20359W        W36433   9.889  13.312   4.186 -0.1777 -0.2193  0.2150
20360W        W36434   4.779  12.315   2.656 -0.1308  0.1494 -0.1957
20361W        W36435  16.614   2.309  14.947 -0.5391  0.1413  0.3541
20362W        W36436   4.127  11.168  11.738 -0.1187 -0.2597 -0.1312
20363W        W36437   1.971   7.040  12.788  0.0120 -0.0079 -0.0787
20364W        W36438  11.989  11.556  16.325 -0.2239 -0.1592 -0.1699
20365W        W36439  10.606   2.436  12.413 -0.0666 -0.0897  0.0783
20366W        W36440  17.214  13.484   4.647  0.3473 -0.1774 -0.1890
20367W        W36441   0.605   5.470   5.884 -0.0842  0.1923  0.0439
20368W        W36442   0.966   0.428  13.004 -0.1057 -0.0475 -0.1698
20369W        W36443   5.699   6.430  13.339  0.2339 -0.0994  0.0242
20370W        W36444  12.822  17.520  13.645  0.0318 -0.1508  0.2486
20371W        W36445   7.234   3.120   2.539 -0.3097 -0.0033  0.0701
20372W        W36446  12.421  10.880  14.257  0.3664 -0.3490  0.1372
20373W        W36447  13.791  13.537  15.105  0.2926 -0.3846  0.2093
20374W        W36448   0.355  17.517  11.553 -0.0383 -0.3356  0.1642
20375W        W36449   3.044  17.728  11.638 -0.2553  0.1713  0.2596
20376W        W36450  16.183   2.204  15.582 -0.1945 -0.2569  0.1123
20377W        W36451  16.086  10.607  16.276 -0.1927  0.0539 -0.4414
20378W        W36452   3.967  12.716   2.609  0.1472  0.1018  0.0876
20379W        W36453  11.876   0.904  12.490  0.1627  0.1086  0.2845
20380W        W36454  14.827   9.083  13.069  0.1772 -0.4094  0.0686
20381W        W36455   0.855   4.059   4.609  0.0965  0.3181 -0.0442
20382W        W36456   3.361  12.214   4.937 -0.2798 -0.2166  0.1600
20383W        W36457  16.774  12.943  12.405 -0.0983 -0.5401  0.1155
20384W        W36458   6.474  11.749   0.862 -0.0582  0.0221 -0.0985
20385W        W36459  16.595  12.040  15.815 -0.0285  0.2702 -0.0344
20386W        W36460   0.009  18.259  13.878  0.3066 -0.2105 -0.0393
20387W        W36461  16.901   9.819  14.726 -0.1660 -0.2859 -0.2755
20388W        W36462   1.559   3.253   3.010  0.2918 -0.1043 -0.0772
20389W        W36463   6.115   7.129   0.597 -0.2685  0.0821 -0.0362
20390W        W36464  12.464   2.967   1.814 -0.4412 -0.2041 -0.0687
20391W        W36465  13.056   0.245  13.690  0.2684 -0.2679 -0.1880
20392W        W36466  10.862  12.141   3.684  0.0904 -0.3520 -0.3118
20393W        W36467   2.870  10.518  15.909  0.1980  0.1602  0.2683
20394W        W36468   3.199  10.146   3.602  0.0522  0.1920  0.3311
20395W        W36469   6.669   9.552  14.719 -0.1491  0.0468 -0.1955
20396W        W36470  10.108   3.867   0.047 -0.2811  0.1448 -0.0581
20397W        W36471  17.592  17.672   0.866  0.2929 -0.1094  0.1118
20398W        W36472   9.266  14.599   4.217 -0.0230 -0.1729 -0.0060
20399W        W36473   8.873  12.147   2.312  0.0097  0.3064  0.1620
20400W        W36474   5.282  18.206   6.486 -0.3691 -0.0348  0.2238
20401W        W36475  11.157   2.679  10.534 -0.2456  0.0124  0.1576
20402W        W36476   9.394   7.872  10.905 -0.0994 -0.1581  0.1918
20403W        W36477   9.757  17.418  11.869  0.4412  0.1092  0.0165
20404W        W36478   3.017  17.217   1.858 -0.1746 -0.4811  0.0625
20405W        W36479  10.447   4.641  12.408  0.2012  0.0182 -0.1468
20406W        W36480   2.441  11.089   2.527 -0.1984  0.1311 -0.0068
20407W        W36481  18.162   3.837  13.151  0.1045 -0.0013 -0.0399
20408W        W36482   8.394  17.484   3.878 -0.0501 -0.0377 -0.1172
20409W        W36483   5.559   1.644  15.068  0.1284 -0.2753 -0.0745
20410W        W36484  16.899   3.079  13.516 -0.1866 -0.2762 -0.1524
20411W        W36485  15.296   5.336   3.769 -0.1266  0.2645 -0.2109
20412W        W36486  14.005   0.476   2.998 -0.1395  0.0799  0.0344
20413W        W36487   3.858   6.423  15.187 -0.0530  0.0490  0.2000
20414W        W36488   4.898   1.974   3.636 -0.4341 -0.2039 -0.1700
20415W        W36489   9.733  13.981   1.385  0.0761  0.2202  0.0712
20416W        W36490  13.649  15.473  12.212 -0.2316  0.1975 -0.1047
20417W        W36491   7.372   1.175   1.575  0.0046  0.2003  0.0829
20418W        W36492   0.265  15.190  15.144  0.0445  0.2661  0.0076
20419W        W36493  16.819   9.437   2.641 -0.0367  0.0554 -0.3550
20420W        W36494  15.748   8.299   0.776  0.2287 -0.0786  0.1511
20421W        W36495   2.268  15.885  14.553 -0.1060 -0.1738 -0.1949
20422W        W36496  13.584  10.759  15.899  0.1689 -0.0020  0.0026
20423W        W36497   4.724   7.278   2.479  0.3869  0.2043 -0.1476
20424W        W36498  13.047   8.050  12.940  0.3802  0.0655  0.0763
20425W        W36499  16.732   1.283  13.027 -0.1998  0.1574  0.1208
20426W        W36500  14.426   1.093   5.083  0.1875 -0.1549  0.0600
20427W        W36501   2.835   4.971  15.229 -0.0470  0.0597  0.3857
20428W        W36502  15.494   3.386   1.095 -0.0341  0.0858  0.1619
20429W        W36503   4.409  10.537   0.323 -0.1824  0.0142 -0.2884
20430W        W36504  17.676   7.889   2.786 -0.0362  0.1205 -0.0088
20431W        W36505   1.048  10.848   0.566  0.2761  0.1225  0.3126
20432W        W36506   4.396   1.296   1.768  0.0292  0.3208  0.0269
20433W        W36507   3.082  15.283  15.555  0.0161 -0.1150 -0.1232
20434W        W36508  13.360  12.223   3.188  0.2312 -0.2007  0.0996
20435W        W36509   2.006  14.710   1.227 -0.0941 -0.1489  0.1828
20436W        W36510  15.108  12.391  16.006  0.2815 -0.0920  0.0352
20437W        W36511   4.175  14.507   3.858  0.0815  0.2548  0.0156
20438W        W36512   8.005  18.205   0.080  0.0964 -0.3806 -0.0237
20439W        W36513  17.998   9.022  16.005 -0.3217  0.0257  0.0473
20440W        W36514  15.913   3.031  12.470 -0.0204 -0.1385  0.0414
20441W        W36515   5.766  12.843  14.419 -0.1227  0.0586  0.1437
20442W        W36516   4.664  13.523   1.700 -0.0712 -0.0580  0.2266
20443W        W36517   2.278   8.095  11.165  0.0615  0.1663 -0.3591
20444W        W36518  11.756   0.425   0.866 -0.0502  0.0570 -0.0103
20445W        W36519  12.445   8.069   0.430 -0.1038 -0.2625 -0.1610
20446W        W36520   6.068   2.983   0.943 -0.0613 -0.3893  0.1535
20447W        W36521   2.162   4.099  14.432 -0.3360 -0.0314  0.0520
20448W        W36522  16.624  17.713   4.171 -0.5167 -0.1976 -0.1067
20449W        W36523  17.154   3.190   2.043 -0.0466  0.1520  0.0433
20450W        W36524   3.390   1.410   2.424 -0.1541  0.0431 -0.0542
20451W        W36525  13.447  13.253   5.779  0.0923 -0.1141  0.1171
20452W        W36526   2.470   6.838  13.582  0.2227 -0.2627  0.2554
20453W        W36527   8.782   7.595   4.401  0.1426 -0.1215  0.0618
20454W        W36528  16.413   2.406  16.175  0.2226  0.1117 -0.0185
20455W        W36529   0.690   9.512   1.887 -0.3137  0.3208 -0.0710
20456W        W36530  17.357  10.979  13.242  0.2640  0.1392 -0.2536
20457W        W36531  15.946  14.473   5.773  0.1373  0.0654  0.0835
20458W        W36532  13.748   5.220  14.082  0.0294 -0.1417 -0.0605
20459W        W36533  12.929   7.464  15.120 -0.1196  0.0285  0.1161
20460W        W36534   7.412  12.993   3.607  0.0592  0.0937 -0.3344
20461W        W36535  12.533  16.665   2.936 -0.3940  0.4187  0.1351
20462W        W36536   8.863  12.162  14.209  0.1169 -0.3596  0.1737
20463W        W36537   5.171   1.083   3.808 -0.1204 -0.0147  0.2084
20464W        W36538  13.727   0.090  13.243 -0.1348 -0.2070 -0.1558
20465W        W36539  15.698   6.662  12.138 -0.3313  0.1093  0.1569
20466W        W36540   2.069  10.341  14.179  0.1709  0.0964  0.2361
20467W        W36541   7.668  12.442   4.396 -0.1710  0.0180  0.0478
20468W        W36542   0.445  15.419   6.220  0.1806  0.0474 -0.2952
20469W        W36543   1.289   4.191   3.518  0.4535  0.3061 -0.2502
20470W        W36544  11.820   6.391   2.131  0.0574  0.1610 -0.1862
20471W        W36545  17.558   5.926   0.811  0.2788 -0.3281 -0.2282
20472W        W36546   7.781   8.932   5.783  0.3228 -0.2710  0.1591
20473W        W36547   5.555  10.224   3.591  0.3271 -0.1749 -0.4807
20474W        W36548   9.891   1.476  14.403 -0.0510 -0.0554 -0.2581
20475W        W36549   6.926   8.930   1.347 -0.1671 -0.1548  0.0523
20476W        W36550   8.792   5.240  10.928  0.2719 -0.2406 -0.1075
20477W        W36551  12.859   6.190   0.733 -0.1293 -0.2963  0.1933
20478W        W36552  13.682  14.970  12.264 -0.0926 -0.0608 -0.0928
20479W        W36553  10.431  11.824  15.348  0.4377  0.0732  0.1023
20480W        W36554   2.743  14.979   0.151 -0.1099  0.1785  0.1506
20481W        W36555   9.738   0.138  14.031  0.0682 -0.1231  0.3182
20482W        W36556  13.889   9.897  16.301  0.0160 -0.2023  0.0974
20483W        W36557   0.642  12.674   5.488  0.0736 -0.1545  0.2446
20484W        W36558   6.972  12.458  16.062  0.1487 -0.1171  0.1500
20485W        W36559   5.307   9.917   2.236  0.5272 -0.4679 -0.3467
20486W        W36560  18.275  14.974  12.891  0.0404  0.1054 -0.1107
20487W        W36561  18.183   7.767  14.694 -0.0863 -0.1309  0.2462
20488W        W36562  15.295   5.604   0.721  0.1521 -0.1747  0.1577
20489W        W36563   2.920  15.899  15.177  0.1704 -0.1882  0.0416
20490W        W36564  13.784   7.599  11.216  0.0191 -0.2020  0.0672
20491W        W36565   7.111   7.344   0.866 -0.2525 -0.0359 -0.1548
20492W        W36566  17.442  17.686   1.838  0.2187  0.0328  0.0833
20493W        W36567  14.937   8.887   2.290 -0.0362 -0.1388 -0.1286
20494W        W36568  15.399  14.378   5.911 -0.4086  0.3298  0.2968
20495W        W36569   9.763   6.816  11.437  0.2152  0.0096 -0.1444
20496W        W36570   4.772  14.171  11.247 -0.3746 -0.0896  0.1354
20497W        W36571   7.682  13.089   5.898  0.2137  0.2550 -0.2565
20498W        W36572   4.643  14.856   1.722  0.1261 -0.0380  0.4169
20499W        W36573  16.305   4.457   1.803 -0.1659  0.0802 -0.1959
20500W        W36574   0.808  13.688  11.211  0.1654  0.2723  0.2214
20501W        W36575  16.359  12.713   5.023 -0.0572  0.0868 -0.1930
20502W        W36576  17.650   0.150   3.677  0.2909 -0.0133 -0.2202
20503W        W36577  11.556   3.133  15.334 -0.0639  0.0634 -0.2694
20504W        W36578   3.561  12.416   4.035 -0.3642  0.1913 -0.0543
20505W        W36579  17.037  16.995   1.420 -0.1612 -0.0701 -0.0155
20506W        W36580   7.721  17.543   4.936  0.0592 -0.1069 -0.0317
20507W        W36581   1.116  10.005  13.004  0.3565 -0.1810 -0.2542
20508W        W36582   6.094   6.609   0.549  0.1343 -0.2148 -0.4447
20509W        W36583   3.895   3.635  14.145  0.0008 -0.0709 -0.1405
20510W        W36584   6.773  17.910   0.710  0.3803  0.0256 -0.0072
20511W        W36585  10.589   8.373   1.513  0.2193 -0.1206  0.0579
20512W        W36586   9.400  13.883   5.570  0.1425 -0.3701 -0.3021
20513W        W36587  13.610   0.595  13.352 -0.0032  0.2031 -0.0247
20514W        W36588   5.726  15.422   1.937 -0.0033 -0.2262 -0.2902
20515W        W36589   3.211  14.654   5.363  0.0488  0.1571  0.0304
20516W        W36590  13.042   1.352   5.115 -0.1860  0.2096 -0.1720
20517W        W36591   8.235   9.449   2.495 -0.1109  0.0552 -0.1700
20518W        W36592  12.042   0.065   1.148  0.1181  0.1557 -0.3680
20519W        W36593   6.499   3.863   3.293 -0.0971  0.1960  0.0699
20520W        W36594   9.996  12.913  13.040 -0.0025  0.0711 -0.3621
20521W        W36595  11.923  17.168  13.797  0.2368  0.0302 -0.1322
20522W        W36596  12.225   2.122  12.221 -0.0194 -0.1222 -0.2487
20523W        W36597   1.344   4.905   1.011 -0.0967 -0.1650  0.5191
20524W        W36598  15.284  15.568   1.879 -0.0013 -0.0552 -0.2606
20525W        W36599   1.087   0.160   3.388  0.3138  0.0633  0.2211
20526W        W36600   6.319   7.375  12.431  0.4354 -0.2760 -0.0049
20527W        W36601   9.755   5.360  11.908  0.1143 -0.0300  0.0846
20528W        W36602  10.491  14.180  16.074 -0.0363 -0.0712  0.1520
20529W        W36603   4.809  15.203   0.012  0.0332 -0.0527  0.1825
20530W        W36604   9.609  12.761  12.588 -0.2549 -0.2330  0.1003
20531W        W36605   6.717  14.366   5.036  0.0787  0.1068  0.0195
20532W        W36606   7.698   7.960   0.241 -0.0666 -0.1154 -0.2297
20533W        W36607  15.322  10.893  10.616  0.2646 -0.2752 -0.0171
20534W        W36608   8.297  18.280   1.073 -0.1153  0.0897 -0.2545
20535W        W36609   2.410   9.244  12.422 -0.1637  0.1061  0.4948
20536W        W36610   0.438   2.049   5.355 -0.3881  0.0469 -0.0150
20537W        W36611   8.366  10.390   3.332 -0.0255 -0.1557 -0.3788
20538W        W36612  13.687  15.547   1.981 -0.2744 -0.3021  0.0744
20539W        W36613  16.543   6.262   4.314 -0.0325 -0.0490 -0.2613
20540W        W36614   1.775   3.105  13.344  0.4260 -0.1717  0.2183
20541W        W36615   1.527  10.990  14.247  0.2235 -0.1589 -0.0465
20542W        W36616  16.326   5.752  14.491 -0.2334  0.2750  0.2563
20543W        W36617  11.336  10.692  12.807  0.1556  0.2017 -0.3011
20544W        W36618  10.189   2.364  14.144 -0.1804  0.0604  0.2910
20545W        W36619   7.412   4.346  11.171 -0.0931 -0.0356  0.0117
20546W        W36620  18.021   7.577   3.505  0.3186 -0.5080 -0.0735
20547W        W36621   6.372  13.821  15.341 -0.1124  0.1384 -0.1834
20548W        W36622   4.032  15.172   1.088 -0.2205 -0.0465  0.1371
20549W        W36623   9.120  15.656   1.153  0.3273  0.1532  0.0431
20550W        W36624  10.670   1.541   0.205  0.3477 -0.1278  0.1214
20551W        W36625   2.438   2.237   2.878 -0.0396 -0.0474  0.0055
20552W        W36626   9.934   6.067   4.849 -0.0402 -0.1649  0.2783
20553W        W36627   5.462   6.906  13.790 -0.0120 -0.0239  0.2503
20554W        W36628  15.324   8.405   0.934 -0.0646  0.2292 -0.0380
20555W        W36629   0.575  12.769   0.390  0.0080  0.1227 -0.0691
20556W        W36630   9.439   7.819   4.946 -0.0713  0.0892 -0.0789
20557W        W36631  12.693  12.473  13.373 -0.3020  0.2195 -0.0484
20558W        W36632  15.039   9.025   1.725 -0.0987 -0.1543  0.3179
20559W        W36633  12.251   1.889  11.391  0.5845 -0.3482 -0.1116
20560W        W36634  11.314  15.576  15.530  0.0085  0.1361 -0.2960
20561W        W36635   9.457   6.502   0.665 -0.2618 -0.1614  0.0562
20562W        W36636   9.499  15.574   1.901 -0.3366 -0.1367  0.1767
20563W        W36637  11.492   9.377  15.766  0.1320  0.0721 -0.1409
20564W        W36638   7.459  15.942   3.288 -0.0132 -0.0163  0.0239
20565W        W36639   1.327   1.523  14.823  0.0971  0.0579  0.1048
20566W        W36640  17.370  12.900   2.186  0.0817  0.1290 -0.0657
20567W        W36641   0.688  10.132  15.039 -0.1256 -0.1907 -0.5256
20568W        W36642  13.746   3.268  14.837 -0.2584  0.0412  0.1715
20569W        W36643   9.369  15.115   4.059  0.1093  0.3229 -0.2593
20570W        W36644   2.146   8.702   2.939 -0.0696  0.3126  0.1932
20571W        W36645  10.268   5.954   2.664  0.0198  0.1118 -0.0356
20572W        W36646   6.610  10.657  11.428 -0.0719  0.1138  0.1312
20573W        W36647  15.850  10.559   4.493  0.2173 -0.1638  0.2994
20574W        W36648   2.326   1.978   3.505 -0.1107 -0.1825  0.1451
20575W        W36649  14.906  11.199   2.919  0.0883  0.1807  0.0809
20576W        W36650   1.532   7.330  11.578 -0.2591 -0.0013 -0.2335
20577W        W36651  13.743  16.122   2.903 -0.1409  0.1329  0.2551
20578W        W36652   3.363   8.458  13.231  0.4584 -0.0485 -0.4212
20579W        W36653  12.011   5.918  10.734 -0.1153 -0.0377  0.5426
20580W        W36654   7.498  14.310   0.931 -0.0676  0.0325  0.1625
20581W        W36655  15.174  15.087   3.951  0.1173  0.2767  0.4098
20582W        W36656   8.308  13.599  15.406 -0.2983  0.3164  0.0324
20583W        W36657   6.486  14.610  12.912  0.3386  0.4332 -0.0619
20584W        W36658  12.866  13.399  12.826 -0.3622  0.1634 -0.1771
20585W        W36659  11.612   5.459   5.362  0.0163  0.2059 -0.3710
20586W        W36660  15.612   7.112  13.513  0.0460 -0.1826  0.2033
20587W        W36661   1.975   1.928   1.486  0.0731 -0.0024  0.1356
20588W        W36662   0.255   4.596   5.098  0.0553 -0.0251 -0.0597
20589W        W36663   6.159  10.542   6.299  0.1779 -0.0860  0.1106
20590W        W36664   0.131  15.926  12.705  0.0835  0.0433  0.2724
20591W        W36665  15.023  14.359  13.108 -0.0180  0.1071 -0.0452
20592W        W36666  11.893   8.774  12.772  0.1164  0.0371  0.1814
20593W        W36667   3.254  16.149  13.871  0.2499 -0.0373 -0.0262
20594W        W36668   7.587  11.999  15.622 -0.0200  0.2041 -0.0123
20595W        W36669   5.413  12.728  15.882 -0.0520  0.0315 -0.0484
20596W        W36670   1.027   1.360  15.223  0.0726 -0.0811  0.0867
20597W        W36671   9.097   5.519  13.860 -0.0420  0.1190 -0.1722
20598W        W36672   8.795  16.347  14.882  0.1124 -0.0628 -0.0355
20599W        W36673   4.331   9.085   1.056 -0.1133 -0.2010  0.0090
20600W        W36674   4.270  11.353   3.574 -0.0693  0.1439 -0.2168
20601W        W36675   5.089  17.462  15.794  0.0990  0.1474  0.0371
20602W        W36676   6.436  10.280  13.582 -0.0750  0.1346 -0.1901
20603W        W36677   5.531  11.240  14.245  0.3121  0.0054  0.1190
20604W        W36678  16.494   4.333   4.523  0.0193  0.0970  0.0566
20605W        W36679   4.581   3.113  14.934 -0.1599  0.0533  0.0609
20606W        W36680  13.901   6.025  12.862 -0.0555 -0.1771  0.0719
20607W        W36681   1.551   0.919   4.905 -0.1713 -0.1444  0.0429
20608W        W36682   3.201   1.972   4.069  0.1809 -0.2455  0.2255
20609W        W36683  10.797   6.072  14.195 -0.1076  0.1077 -0.1860
20610W        W36684   9.569  15.974  13.247  0.2501  0.1438 -0.2533
20611W        W36685  14.400   0.850  15.137  0.0990  0.4476  0.0912
20612W        W36686  16.004  14.283   2.920  0.3800 -0.1352 -0.3137
20613W        W36687   5.126   6.640  15.775 -0.2254 -0.2485  0.1472
20614W        W36688   9.127  16.996   2.861 -0.1117 -0.0352 -0.4526
20615W        W36689  11.916   6.858  11.879 -0.2348 -0.1078 -0.0633
20616W        W36690  13.812  16.398  13.197  0.1693  0.2124  0.3929
20617W        W36691  14.569   3.848   1.951  0.0582  0.0629 -0.0875
20618W        W36692  13.962  14.707  15.494  0.1681  0.0116 -0.0038
20619W        W36693  10.622   1.871  15.384 -0.2853 -0.2911 -0.0220
20620W        W36694   9.649  18.153   3.584  0.3972 -0.1064  0.1224
20621W        W36695  17.899   5.628   2.711 -0.3175 -0.3142 -0.1049
20622W        W36696   6.406  11.231  13.227  0.2099  0.0634  0.2414
20623W        W36697   3.430  15.819   0.365 -0.0852  0.0300  0.0401
20624W        W36698   1.779   8.796   3.747  0.1579  0.3197  0.1608
20625W        W36699   7.882   7.860   3.905  0.1227  0.1810  0.0696
20626W        W36700  16.364  10.856   2.744 -0.1280 -0.1337  0.0201
20627W        W36701   1.887  13.400   2.561  0.1024  0.2479 -0.2364
20628W        W36702  11.470   6.891   3.181  0.1231 -0.2466  0.3572
20629W        W36703   6.615  11.648   3.721 -0.2432  0.3635 -0.2102
20630W        W36704   4.204   3.264   3.846  0.4728 -0.0144 -0.0109
20631W        W36705   7.887   7.064   3.889 -0.0510  0.2073  0.1411
20632W        W36706  10.133  10.799  16.088  0.0694 -0.0449  0.2872
20633W        W36707   5.749  15.300  11.936 -0.3982  0.0082 -0.1328
20634W        W36708  12.453  14.089  14.138 -0.0474 -0.1402  0.0140
20635W        W36709   1.378  18.132  14.104  0.0875  0.1756 -0.1435
20636W        W36710  13.250  10.275   1.483 -0.3816  0.1539  0.0526
20637W        W36711  14.832  12.786   1.878 -0.2899 -0.0198 -0.0173
20638W        W36712  11.888   3.120   0.931  0.2193  0.0484  0.0956
20639W        W36713  11.818   1.238   4.736 -0.0201  0.1355  0.0571
20640W        W36714   8.439   2.564   0.764 -0.1141  0.0799 -0.0682
20641W        W36715  11.863  12.758  14.433 -0.1888 -0.1382  0.0515
20642W        W36716   0.461   8.538  14.504 -0.0987  0.1172 -0.3321
20643W        W36717   8.381   1.257   1.404 -0.0733  0.0525  0.1211
20644W        W36718   4.746   4.117   3.715 -0.0863  0.0227 -0.2332
20645W        W36719   1.670   8.257   0.498 -0.3147 -0.1609  0.1126
20646W        W36720   3.877   0.676  13.647  0.3239 -0.3127 -0.0001
20647W        W36721   2.127  15.521  15.789  0.0635  0.3993  0.1901
20648W        W36722   3.949  14.733  12.106  0.0207 -0.0019  0.0804
20649W        W36723   3.359   4.043  11.941 -0.2358  0.0641  0.1320
20650W        W36724  11.702  12.541  13.504  0.1530  0.0638  0.0596
20651W        W36725   3.971  16.057   1.590  0.1440  0.3851  0.2412
20652W        W36726  16.472  10.375  15.952  0.4053  0.1106 -0.4182
20653W        W36727   3.325   9.309  13.482 -0.0155 -0.2863 -0.4605
20654W        W36728   2.330   8.980   4.601 -0.2228  0.1580  0.0121
20655W        W36729  13.379   6.554   3.666 -0.2965  0.0634 -0.1133
20656W        W36730  12.151  15.213   2.370  0.0685  0.1588 -0.1797
20657W        W36731   9.455   6.208  14.513 -0.0865 -0.2105 -0.1976
20658W        W36732  15.635  16.218  12.230 -0.3952 -0.1735  0.0181
20659W        W36733   8.155   3.984  11.607 -0.0001 -0.0580 -0.2685
20660W        W36734   8.599  13.921   3.374  0.0848 -0.1801  0.0054
20661W        W36735  14.400   6.532  16.010 -0.1355 -0.1066  0.2104
20662W        W36736  15.185  14.321   3.826  0.0166  0.1428 -0.1068
20663W        W36737   7.969  17.584   3.189 -0.0285 -0.1925 -0.0228
20664W        W36738  10.230  13.465   2.598 -0.2176  0.0929  0.1968
20665W        W36739   7.215  17.404   5.105  0.1908 -0.0771 -0.0976
20666W        W36740  14.068  15.688  12.107 -0.5587  0.2921 -0.1326
20667W        W36741   5.473   2.873   0.913  0.1262  0.2166 -0.1280
20668W        W36742   9.842  11.734  15.201 -0.0800 -0.0940  0.2611
20669W        W36743  10.136  10.285  16.247 -0.0122 -0.2520  0.2272
20670W        W36744  15.785   4.576  13.347  0.0717  0.2311 -0.0492
20671W        W36745  18.287   8.099   1.554  0.0828 -0.1254  0.1704
20672W        W36746   1.390  13.789  15.698  0.0988  0.0508 -0.1369
20673W        W36747  16.570   9.316  12.013  0.0417 -0.2061 -0.0814
20674W        W36748  15.328   9.438   1.562  0.1284  0.3214 -0.2022
20675W        W36749  15.900  11.650  13.745  0.0135 -0.0847 -0.1494
20676W        W36750  14.242   6.720   3.049  0.0383  0.1634  0.2321
20677W        W36751  11.809  10.521   3.911  0.1598  0.1246  0.2136
20678W        W36752   3.554  16.868  13.124  0.0225  0.1708 -0.1585
20679W        W36753  16.322   9.698  13.775 -0.2418 -0.0787  0.2675
20680W        W36754  14.529  12.227  14.728  0.0677  0.0795 -0.0403
20681W        W36755   6.659   5.546  15.326 -0.0781  0.0774 -0.1583
20682W        W36756  10.514   3.771   2.515 -0.1624 -0.1951  0.1334
20683W        W36757   1.849   6.455   3.617 -0.2043  0.0280  0.3799
20684W        W36758   1.632   0.473  15.956 -0.0416  0.0100 -0.1321
20685W        W36759  16.873   0.159   5.564 -0.0330  0.3007 -0.1195
20686W        W36760  12.938  16.219  14.250  0.1292 -0.2676 -0.1277
20687W        W36761  16.417  18.302  11.584  0.0114 -0.3436 -0.0575
20688W        W36762   5.464   1.334   2.714 -0.1059  0.2736  0.3915
20689W        W36763   5.978  13.335   3.392 -0.0719 -0.2496 -0.0522
20690W        W36764  16.626   0.291   2.387  0.1040  0.2877  0.1315
20691W        W36765   4.574   7.536  16.044  0.2091  0.1192  0.0528
20692W        W36766   0.951   9.114  13.309  0.3131  0.1002  0.1305
20693W        W36767   5.644   4.415   1.836  0.1586  0.0465 -0.1845
20694W        W36768  10.590   6.327   2.914  0.1116 -0.2038 -0.0009
20695W        W36769  14.586   3.198   2.896 -0.2525  0.1018  0.2351
20696W        W36770   5.463  10.731   0.431  0.0600  0.1046 -0.2256
20697W        W36771  10.553  13.603   1.619  0.3345 -0.0201 -0.0354
20698W        W36772  16.893  16.656   1.116  0.1203 -0.0375 -0.2412
20699W        W36773   8.343   1.853   0.973 -0.2720  0.0366  0.0448
20700W        W36774   2.520  15.214   4.988  0.2914  0.1353  0.1329
20701W        W36775  17.560   1.320   0.111  0.1528  0.4516  0.0957
20702W        W36776   0.838   7.756  15.662  0.0205 -0.0193  0.3061
20703W        W36777  12.847   0.607   1.074 -0.1089 -0.0705 -0.0836
20704W        W36778   0.226  17.751  14.408  0.2742  0.1963 -0.0251
20705W        W36779  17.840  16.152   4.248 -0.4281  0.1337 -0.2844
20706W        W36780   0.757   1.628   1.541 -0.2661 -0.0031 -0.3555
20707W        W36781  17.189   6.647  13.067 -0.0842  0.1648 -0.2768
20708W        W36782  11.396   2.311   3.821 -0.0053 -0.0065  0.2790
20709W        W36783   2.634   3.192   6.395 -0.1524  0.3184 -0.0543
20710W        W36784   3.336   8.869   4.211  0.0342 -0.3117  0.0238
20711W        W36785   3.127  13.695   2.958 -0.1692 -0.2700 -0.0881
20712W        W36786  18.026   2.033   4.708 -0.2077 -0.1158 -0.1041
20713W        W36787   6.882   4.036   5.482  0.1066 -0.3563 -0.2993
20714W        W36788  10.443   4.868  13.372 -0.1134 -0.0630  0.0926
20715W        W36789   3.544  14.146  14.964 -0.1535  0.0510  0.3680
20716W        W36790   9.330   8.718  15.086 -0.0978 -0.0784  0.1644
20717W        W36791   8.525  16.474   5.319 -0.0146 -0.0261  0.1254
20718W        W36792   6.751  14.884   3.092  0.2845  0.1222 -0.1054
20719W        W36793   5.291  12.011   4.078  0.0645  0.2155  0.0115
20720W        W36794  18.115  10.753  15.994 -0.1459  0.1709  0.3169
20721W        W36795  10.075   6.066  11.281  0.1807 -0.3067  0.0648
20722W        W36796  12.987  12.618   4.980  0.0776  0.1152  0.0813
20723W        W36797  16.436  13.491   2.445 -0.2941  0.0209 -0.4313
20724W        W36798  10.828   5.099  10.511 -0.1517 -0.2920 -0.0926
20725W        W36799   6.072  17.568   3.380  0.1033  0.0069 -0.1710
20726W        W36800  13.241  12.014  16.170 -0.0015  0.2975  0.1667
20727W        W36801   6.519  17.388  15.477 -0.0401 -0.1951 -0.0856
20728W        W36802   9.264  15.142  12.845  0.0403 -0.2564 -0.2106
20729W        W36803  12.181   0.102  14.963 -0.2999 -0.1757 -0.1627
20730W        W36804   9.967   3.780   1.534 -0.1121 -0.0200 -0.3481
20731W        W36805  12.279   9.234  15.724 -0.0624 -0.0461 -0.2098
20732W        W36806  16.304  17.384  15.806 -0.3123 -0.1230 -0.0184
20733W        W36807   7.784   5.232  14.423 -0.1093 -0.1705  0.0845
20734W        W36808   7.030  14.075   3.151 -0.0515  0.1642  0.0569
20735W        W36809  16.764   5.873   1.422  0.0244  0.2305 -0.2753
20736W        W36810  12.348  17.350  13.564  0.0842  0.0587 -0.1897
20737W        W36811  15.782  11.868   5.923 -0.4357 -0.0948 -0.4762
20738W        W36812   9.321  13.604  16.147 -0.3037  0.3934 -0.3982
20739W        W36813   7.778  16.950   5.000 -0.1486  0.0425  0.1404
20740W        W36814  16.091  16.501   5.650  0.1581  0.0039  0.2635
20741W        W36815  13.405   0.098  12.303 -0.0101 -0.1205 -0.3652
20742W        W36816  17.717  12.800  16.391 -0.2158  0.3349 -0.2283
20743W        W36817  14.795   6.797  14.647  0.0930  0.2296  0.2386
20744W        W36818  13.176   0.391   2.085 -0.2399 -0.1676  0.0761
20745W        W36819  12.168   4.105  12.645  0.1991  0.1108  0.1201
20746W        W36820   9.142   2.065   2.978  0.1727 -0.2038 -0.1432
20747W        W36821   8.966  15.592   3.511 -0.0941 -0.1356 -0.1482
20748W        W36822  10.739   0.208   0.604  0.1290  0.2314  0.1386
20749W        W36823   2.226   6.726  13.157 -0.0868 -0.2501 -0.3333
20750W        W36824   1.240   0.842   3.995 -0.2756  0.2088  0.1900
20751W        W36825  14.789   8.282   1.014  0.0724  0.0940 -0.1215
20752W        W36826   2.654  14.228  13.005 -0.0313 -0.1646  0.2338
20753W        W36827   4.745  14.615  15.091  0.1751 -0.2085 -0.3039
20754W        W36828   8.307   3.287  13.631 -0.1085  0.0585  0.1803
20755W        W36829  10.696   7.745   3.318  0.0119  0.3710 -0.1002
20756W        W36830  10.430   2.188   2.471  0.3273  0.3783  0.0678
20757W        W36831   4.987  12.205   5.070  0.0836 -0.0824 -0.1318
20758W        W36832  10.455   9.353  15.159 -0.0815 -0.1081  0.1728
20759W        W36833  12.904  16.865   4.398 -0.2732  0.1924  0.2365
20760W        W36834  15.804   7.981   1.763  0.1001  0.0030  0.0633
20761W        W36835  17.787  15.688   1.395 -0.2221 -0.1554 -0.1853
20762W        W36836  13.535  16.637  11.636 -0.1083 -0.2989 -0.3168
20763W        W36837  11.210   2.211   6.161 -0.2449  0.0522 -0.1693
20764W        W36838  18.129  10.565   4.407  0.2339  0.2941 -0.1099
20765W        W36839   7.775   5.083   1.577  0.0646  0.1195 -0.3326
20766W        W36840  14.514   1.086   1.776 -0.1897 -0.0404  0.1080
20767W        W36841   7.001  12.824   3.189 -0.0800 -0.2871 -0.0470
20768W        W36842   9.022   1.951   3.637  0.1174  0.1035  0.1827
20769W        W36843   6.266  16.164  11.826 -0.0792 -0.0317 -0.3105
20770W        W36844   2.352   7.529  15.770 -0.0932 -0.1730 -0.0232
20771W        W36845  16.027  17.165   2.610 -0.3249 -0.0420  0.2458
20772W        W36846   7.141  11.182   5.087 -0.0156 -0.0627 -0.0148
20773W        W36847  14.717  17.559  15.015  0.1866  0.0816  0.0378
20774W        W36848   2.269  13.093  15.389  0.0381 -0.0879 -0.0456
20775W        W36849   8.542   5.378   4.825 -0.3652 -0.4102 -0.1731
20776W        W36850   6.179  11.927   0.463 -0.0143 -0.1619  0.4484
20777W        W36851   1.695  13.240   3.500  0.0684  0.1141 -0.0616
20778W        W36852  13.899  11.318   1.936 -0.0793 -0.0192  0.0889
20779W        W36853   9.773   9.794   2.584  0.0032  0.0308 -0.3931
20780W        W36854   0.263   1.137  14.271  0.2202 -0.0252 -0.2660
20781W        W36855  12.463   2.401   3.109 -0.0388 -0.1211  0.1249
20782W        W36856   0.471   5.017  11.874 -0.2575 -0.1559  0.0351
20783W        W36857  11.601   6.689  13.860 -0.1315  0.0429 -0.1250
20784W        W36858  17.860  14.048   2.566  0.4243 -0.1592  0.2674
20785W        W36859  10.605   2.582   5.737  0.0800 -0.0432 -0.0836
20786W        W36860   8.298  12.792   0.053  0.1352 -0.2731  0.0869
20787W        W36861   5.352   3.290  13.430  0.3487 -0.2946 -0.2094
20788W        W36862  11.746  18.089  13.982 -0.2580 -0.1768 -0.1690
20789W        W36863  18.159  11.840   2.746 -0.1191 -0.3540  0.1869
20790W        W36864  12.869   9.481  11.905  0.0595  0.0025  0.5043
20791W        W36865  14.876   8.233  13.774  0.5233  0.1210  0.3681
20792W        W36866  16.594   4.127   4.081 -0.0809 -0.3623 -0.2600
20793W        W36867   9.863   9.925  12.370  0.2650  0.1483  0.2197
20794W        W36868  10.715   0.623   1.160  0.4827 -0.1272  0.3704
20795W        W36869  16.751  16.212  12.066 -0.2642  0.2260 -0.1804
20796W        W36870  15.904   8.233   4.065 -0.2350 -0.0773 -0.2765
20797W        W36871  14.649   1.329  15.263 -0.1097 -0.0722  0.1834
20798W        W36872  13.881   2.674  12.099 -0.2218 -0.0497 -0.1904
20799W        W36873  13.249   4.176   4.871 -0.0645  0.0727 -0.0940
20800W        W36874   3.129  12.097  14.339  0.1149  0.0140  0.1163
20801W        W36875  12.197   1.738   0.651  0.0761  0.0282 -0.2891
20802W        W36876   5.938   7.415  13.590  0.1508 -0.0233 -0.0642
20803W        W36877  10.303  14.611  12.542  0.1844 -0.3707  0.0584
20804W        W36878   6.806  15.362   2.360 -0.2354 -0.3108 -0.0971
20805W        W36879  11.412  17.459  15.073  0.1701  0.0262  0.2175
20806W        W36880   3.714  17.689   3.257 -0.0668  0.1597  0.2195
20807W        W36881   2.822   2.124   0.717  0.0979  0.3452 -0.1240
20808W        W36882   3.281  11.754   0.686 -0.2360 -0.2557 -0.0289
20809W        W36883  15.212  15.501  15.960  0.2557 -0.3317 -0.0004
20810W        W36884   3.025   4.279   1.704 -0.1628 -0.3066  0.0773
20811W        W36885  11.726   9.720   1.863  0.0993 -0.0856 -0.1638
20812W        W36886  15.761  15.401   4.957  0.0123 -0.6082 -0.2624
20813W        W36887   5.468   7.901  15.924  0.4345  0.2174  0.0287
20814W        W36888   6.015   8.841  12.014  0.2750  0.2206  0.0111
20815W        W36889  13.189  10.465   4.374  0.0067 -0.2011  0.1054
20816W        W36890   7.055  11.941   0.012 -0.1709 -0.3417 -0.0323
20817W        W36891  16.892   9.961   2.396 -0.0181 -0.1967 -0.0663
20818W        W36892  16.410   1.243  14.830 -0.2960  0.0615 -0.4904
20819W        W36893   7.812   3.812   4.323 -0.0486  0.1838 -0.0026
20820W        W36894  13.510  10.631   0.057 -0.0421 -0.2569  0.4162
20821W        W36895  16.289   6.650   5.093 -0.0706 -0.0573 -0.1854
20822W        W36896   7.025   6.028   2.802  0.2892 -0.1474  0.0074
20823W        W36897   2.629  14.021   3.049 -0.0697  0.0569 -0.0618
20824W        W36898   7.312   8.364  13.234  0.1659 -0.0936 -0.0379
20825W        W36899  16.650  13.185   2.851  0.0078  0.1098  0.1064
20826W        W36900   9.458  11.932   0.130  0.0405  0.4659  0.0608
20827W        W36901  14.872   7.406   4.258  0.0872  0.0185 -0.0156
20828W        W36902  12.974   6.798   1.841  0.3246 -0.2150  0.0158
20829W        W36903   6.682   1.965   4.661 -0.1496 -0.0637  0.1012
20830W        W36904  17.540  11.041  13.902 -0.0611 -0.0677  0.0442
20831W        W36905   9.883   1.289  11.687 -0.1707 -0.1477  0.0993
20832W        W36906   9.930  15.309  12.288 -0.0545 -0.0559 -0.1778
20833W        W36907  12.614  16.187  14.829  0.2373  0.0077  0.1685
20834W        W36908  11.175  16.396   5.266 -0.0265 -0.0075 -0.1370
20835W        W36909   5.062  12.585  12.770  0.0311 -0.0933 -0.0006
20836W        W36910   6.140  12.941   2.901  0.3652  0.3373  0.0605
20837W        W36911   3.938  12.536   4.317 -0.1182  0.1680 -0.0414
20838W        W36912  11.881   4.993   3.047  0.0503 -0.0383 -0.1786
20839W        W36913  14.220   9.092  13.826  0.2495 -0.0103 -0.2700
20840W        W36914  15.937   6.663  14.645  0.0608 -0.3736  0.2190
20841W        W36915  16.184  16.793  15.111  0.1861 -0.3538 -0.0731
20842W        W36916   8.204   3.821  12.073 -0.1980 -0.0705 -0.1342
20843W        W36917   7.140  16.190  14.166 -0.1307  0.0573  0.2610
20844W        W36918  13.446  13.362   0.828 -0.1703  0.1756  0.1749
20845W        W36919   8.129   6.042   0.660  0.0443 -0.3318  0.0724
20846W        W36920  14.207  10.586   0.378  0.0859  0.0890  0.0822
20847W        W36921  15.467  13.310   2.422 -0.0119  0.1226  0.3605
20848W        W36922   9.654  12.583  15.095  0.0690  0.0658  0.2322
20849W        W36923  16.024  15.945  16.081 -0.3317 -0.1199 -0.2797
20850W        W36924   2.153   9.752  14.952  0.1792 -0.3587 -0.1353
20851W        W36925   7.446  16.951   1.349  0.1198 -0.1541 -0.2651
20852W        W36926  11.549   3.477   1.827  0.0389 -0.0981 -0.0601
20853W        W36927   9.383   7.833   5.842 -0.1005 -0.3077 -0.2762
20854W        W36928  17.831   8.234  14.901  0.0595 -0.1118  0.1908
20855W        W36929   2.654  16.391   2.437 -0.0904  0.1581  0.1022
20856W        W36930  10.125   7.769   4.124 -0.1888  0.2121 -0.0157
20857W        W36931  15.179   1.468  11.859 -0.0956 -0.1463 -0.1752
20858W        W36932   6.458  11.404   0.503 -0.1659 -0.1781  0.0418
20859W        W36933   1.594  12.537  15.017  0.0748 -0.3531 -0.0048
20860W        W36934   8.503  11.608  13.236  0.1850 -0.1999 -0.1239
20861W        W36935  12.833  13.328   0.877  0.0794 -0.0540  0.1102
20862W        W36936   8.340   3.681  14.189 -0.1674 -0.1111  0.1518
20863W        W36937   8.369  17.687   0.153  0.1592  0.0409  0.1624
20864W        W36938   1.928   9.119  13.752  0.0451 -0.0770 -0.1029
20865W        W36939   2.215   4.061   2.217  0.0383  0.1431  0.0651
20866W        W36940   3.329   6.398   2.951 -0.1942 -0.1429 -0.3028
20867W        W36941   7.861   8.211  12.421 -0.0296  0.2409 -0.2114
20868W        W36942   8.207   4.391   0.429 -0.0465  0.0365  0.5263
20869W        W36943  10.913  10.260   0.004 -0.0668 -0.0939 -0.0178
20870W        W36944   1.784   6.217   4.124  0.1696 -0.1256  0.1451
20871W        W36945  14.990  16.025   3.677 -0.0492  0.0917  0.0494
20872W        W36946  13.987  13.297  13.087 -0.3605 -0.1537  0.0234
20873W        W36947   7.609   9.382   4.667  0.1883  0.0693 -0.2827
20874W        W36948   8.026   6.699   1.290 -0.0709  0.1169 -0.1231
20875W        W36949  14.996   0.921  12.678 -0.1255  0.0756  0.0928
20876W        W36950  13.382  14.932   0.028 -0.0233  0.0231 -0.1434
20877W        W36951   5.918   6.518  11.059  0.2867 -0.0290 -0.1178
20878W        W36952  17.941  14.544  15.501  0.1393 -0.0234  0.4376
20879W        W36953  11.396   5.293   0.346 -0.1681  0.1288  0.1834
20880W        W36954   8.552  15.557  12.896 -0.1891  0.0102 -0.3662
20881W        W36955  13.913   4.411   1.597 -0.0048 -0.0389 -0.0566
20882W        W36956  10.923   2.968   2.502  0.0286 -0.1487  0.1377
20883W        W36957   4.349   9.487   0.164 -0.0155 -0.0995 -0.1125
20884W        W36958   9.376  15.697  16.381 -0.0669 -0.0924 -0.1626
20885W        W36959   0.612  12.354  14.604  0.2361  0.3295  0.1909
20886W        W36960   8.907   4.616  11.867  0.0294  0.1462  0.1903
20887W        W36961  12.430  16.653   4.373  0.0840  0.3324  0.0688
20888W        W36962  15.407   0.171   1.693  0.3440 -0.4438 -0.0591
20889W        W36963   1.683   0.291   4.593 -0.0515 -0.1331 -0.2657
20890W        W36964  16.486  12.427  11.728  0.1795 -0.1402 -0.0744
20891W        W36965   2.727  10.805   2.817 -0.3540  0.1209 -0.0198
20892W        W36966   1.799   4.987   0.668 -0.1619 -0.1290  0.1703
20893W        W36967  13.521   2.276  12.341 -0.3251  0.2045  0.0927
20894W        W36968  15.542  15.620   6.127  0.2563 -0.4840  0.0056
20895W        W36969   5.508   0.901   5.136 -0.3131  0.1667 -0.0707
20896W        W36970   3.391   2.269  14.453  0.1027  0.1221 -0.0825
20897W        W36971  11.276   8.135  12.968 -0.0582  0.1803  0.3366
20898W        W36972   3.640   7.523  16.234 -0.1506 -0.0044 -0.1040
20899W        W36973   1.614  14.271   2.662 -0.0366 -0.1325  0.0324
20900W        W36974  18.190   6.396   3.133 -0.1780 -0.1810 -0.0420
20901W        W36975   3.023   2.627   0.680 -0.3328  0.0549  0.0065
20902W        W36976  16.907  11.211   0.103 -0.1932  0.0611  0.0855
20903W        W36977   2.024  11.981  15.796 -0.0435  0.1577  0.1352
20904W        W36978   8.629  15.434   4.550 -0.0180 -0.2094  0.2118
20905W        W36979   5.625   7.688   2.017  0.0826 -0.3735  0.1960
20906W        W36980  12.038   6.652   3.055  0.0241 -0.1828 -0.3192
20907W        W36981  11.530   0.140   1.216  0.2353  0.1811 -0.1469
20908W        W36982  12.890   1.377  16.109 -0.0456 -0.1374 -0.0486
20909W        W36983   9.597  10.772  16.069 -0.0032  0.0654  0.1759
20910W        W36984   7.925   6.301   3.255 -0.0669 -0.1122 -0.1688
20911W        W36985  11.107   5.286   5.486 -0.2026 -0.0834  0.0027
20912W        W36986   9.805  18.329   1.188  0.0198  0.4217  0.1208
20913W        W36987  12.593  11.965  12.376  0.2275  0.1317  0.2906
20914W        W36988   7.125   6.156  11.239  0.0980  0.1449 -0.0773
20915W        W36989  17.034   2.350   3.092 -0.0042  0.0977  0.2376
20916W        W36990  12.117  15.256   2.918 -0.0557 -0.1412 -0.1240
20917W        W36991  15.078  14.046   5.029  0.0014 -0.1735 -0.2610
20918W        W36992   9.723   8.320  11.168  0.0131  0.2227  0.0118
20919W        W36993   1.804   1.118   2.636 -0.0103  0.2024 -0.0149
20920W        W36994  10.080  17.218  10.949  0.1060 -0.0998 -0.0752
20921W        W36995   7.176  16.191   2.307 -0.0018 -0.0476 -0.0236
20922W        W36996   3.433   7.884  13.320  0.0602 -0.0748  0.0958
20923W        W36997   7.037   3.054  14.087  0.3049 -0.1424 -0.1632
20924W        W36998  17.902   8.114  14.419 -0.3550  0.0692  0.0912
20925W        W36999   2.570  11.176   3.976  0.0824  0.0697  0.2735
20926W        W37000   9.092  18.154  11.305  0.0913  0.0247 -0.2038
20927W        W37001  12.179   2.168   4.386  0.2943  0.2325 -0.0335
20928W        W37002  14.579  11.416  11.543  0.1137  0.1607 -0.3301
20929W        W37003   3.364   7.960   3.096  0.1792  0.2159  0.1208
20930W        W37004   9.128   2.829   2.563 -0.0066 -0.1478  0.1149
20931W        W37005  12.017  16.960  11.938 -0.1433  0.1365  0.0384
20932W        W37006   1.504  14.504   0.859 -0.2435 -0.0774  0.1883
20933W        W37007  14.094   6.984   0.907  0.1882  0.0116  0.1637
20934W        W37008   1.984   7.456   4.826 -0.0298  0.2483  0.1677
20935W        W37009   5.182   7.204   0.135  0.1102 -0.0594  0.3475
20936W        W37010   1.834   6.840   1.807  0.3045  0.1424 -0.0440
20937W        W37011   5.131  12.833   3.715 -0.1593  0.1055 -0.0160
20938W        W37012  18.054   0.444  15.006 -0.3921 -0.4592 -0.2185
20939W        W37013   3.151   9.643  12.157  0.0107  0.4271 -0.3066
20940W        W37014  14.557   8.798   4.129 -0.2841 -0.1814  0.1347
20941W        W37015   9.116  11.683   2.273 -0.1900 -0.0869 -0.1735
20942W        W37016  14.846  13.943   3.960  0.1540 -0.3331 -0.0076
20943W        W37017   2.864   2.364  14.433  0.1852 -0.0434  0.1039
20944W        W37018   5.954  11.043   1.386 -0.2195 -0.0370 -0.0501
20945W        W37019  10.571   6.306  12.354 -0.0250  0.0422 -0.1416
20946W        W37020   9.993   9.485  14.624  0.1695  0.5137 -0.1112
20947W        W37021   6.892  12.074   5.030  0.3290 -0.0619 -0.0362
20948W        W37022   1.510  11.344  12.840  0.3344  0.1247  0.1739
20949W        W37023  14.596   7.012   0.290  0.0374  0.1062 -0.2122
20950W        W37024  13.443   9.667   0.831  0.3826  0.0533  0.0283
20951W        W37025   4.219   3.525   4.980  0.0411  0.1628  0.0151
20952W        W37026  15.322  10.043   1.568  0.3158  0.0633 -0.2197
20953W        W37027   0.699   5.850  11.395  0.0505 -0.2652  0.1403
20954W        W37028  13.116  12.707  11.776 -0.1111  0.0531 -0.0524
20955W        W37029   1.959  10.358   3.140 -0.1157  0.1720 -0.0356
20956W        W37030   0.065   8.143  12.818 -0.0760  0.0075 -0.0912
20957W        W37031  10.619   4.285   3.485 -0.0620 -0.2810  0.2073
20958W        W37032   4.073   8.805   1.948 -0.0184 -0.0113 -0.2416
20959W        W37033  13.248   2.333  13.778  0.1360 -0.0832 -0.3031
20960W        W37034  17.272  17.109  14.853 -0.0434  0.0943  0.3806
20961W        W37035   4.605  15.594   4.201  0.2080 -0.0975 -0.0533
20962W        W37036  12.217   6.839  12.734  0.0094  0.1697 -0.2377
20963W        W37037   4.912   3.177   2.180 -0.0622 -0.0366 -0.1424
20964W        W37038  14.334   8.827   5.104  0.0669  0.2183  0.1211
20965W        W37039  11.481  13.721  14.247 -0.3093  0.0300  0.0680
20966W        W37040  12.432  17.041  13.157 -0.4161  0.1899  0.2544
20967W        W37041   2.524  10.301  16.251 -0.1053  0.2447 -0.2616
20968W        W37042   4.444  10.970  12.160 -0.1859  0.2495 -0.1447
20969W        W37043   6.799  15.209   5.067 -0.3517  0.2892 -0.0753
20970W        W37044  10.114   9.384  15.990  0.0211 -0.0898 -0.2503
20971W        W37045  12.617  14.456  14.456  0.1396 -0.1623  0.0197
20972W        W37046  12.152   0.163   0.645  0.2458 -0.0694 -0.1382
20973W        W37047   0.544  11.182  16.173 -0.3810  0.0869 -0.2189
20974W        W37048   2.366  10.987  14.276 -0.0279  0.1219  0.1702
20975W        W37049  14.687   1.129   0.378  0.2610 -0.0571 -0.1318
20976W        W37050   3.501  14.544  13.725  0.3706  0.2629  0.0945
20977W        W37051   1.174   5.522   0.346 -0.0760  0.0034  0.0144
20978W        W37052  10.153  13.293  13.300 -0.0039 -0.1914 -0.1471
20979W        W37053  10.697  13.006  15.476 -0.2083  0.0704  0.2608
20980W        W37054   6.316   4.069   1.222  0.0986  0.1984  0.0252
20981W        W37055   1.598   2.749   1.731 -0.0691  0.0211  0.1125
20982W        W37056   3.283  18.088  15.677 -0.1246 -0.1060 -0.3169
20983W        W37057  12.418  12.577   6.182  0.2656 -0.0748 -0.1914
20984W        W37058   0.138  14.115  13.223 -0.4557 -0.1307 -0.1075
20985W        W37059   1.746  15.624  16.188  0.0499 -0.0246  0.1953
20986W        W37060   6.879   7.501   2.772  0.3401 -0.1063  0.1280
20987W        W37061   9.483   1.098  12.923  0.2265 -0.0233  0.0929
20988W        W37062   4.226   2.191   4.466 -0.1382  0.1729  0.0332
20989W        W37063   3.818   7.762   2.234  0.0789  0.1075  0.0673
20990W        W37064   4.534  10.944  15.912 -0.1729  0.0123  0.1146
20991W        W37065   3.031  13.146  13.555  0.0976  0.2376 -0.0651
20992W        W37066   3.597   1.757   2.790  0.1857  0.0754  0.1267
20993W        W37067   1.046  10.675   2.246  0.1459  0.1626 -0.0565
20994W        W37068  15.991   5.127   4.580 -0.1167 -0.0747  0.0867
20995W        W37069  11.464  12.628  15.445 -0.0545  0.2058  0.0587
20996W        W37070  13.946   8.185  12.893  0.1179  0.2188  0.1147
20997W        W37071  10.075   7.096   1.150  0.0564 -0.2269 -0.1392
20998W        W37072  16.342   4.746  14.618  0.2286  0.1376 -0.0768
20999W        W37073  17.767   2.126   4.154  0.0205 -0.2651  0.0062
21000W        W37074   7.890  14.262  11.199  0.1589  0.0133  0.0047
21001W        W37075   9.835   0.317   3.603  0.0567  0.0524  0.0716
21002W        W37076  12.071   0.795   4.737  0.1967  0.4647  0.1409
21003W        W37077   5.036   7.504  14.724  0.1105 -0.5335  0.0861
21004W        W37078  12.746   1.114  12.717 -0.0458 -0.0235  0.0187
21005W        W37079   1.874   8.820   2.523 -0.1424  0.2124  0.1893
21006W        W37080   8.053  18.197  11.471  0.4085 -0.0864  0.1398
21007W        W37081  13.468  17.981   5.010  0.1860  0.0852  0.3659
21008W        W37082  15.091   2.084   0.303 -0.1884 -0.0801  0.0450
21009W        W37083   4.501   2.278  10.696  0.2119  0.2906 -0.2481
21010W        W37084   8.362  18.017  16.167  0.0630  0.2186  0.0388
21011W        W37085   4.527   3.147  11.629  0.0146  0.3099  0.1800
21012W        W37086  17.327  15.894   4.142 -0.3477 -0.0286 -0.1794
21013W        W37087  13.673  16.019  12.159 -0.1025  0.1550  0.0840
21014W        W37088   3.426  17.723   0.772 -0.1599 -0.1208  0.1806
21015W        W37089  17.328   2.116   0.674 -0.2736  0.1399 -0.0009
21016W        W37090   9.612  11.311   4.731 -0.1553 -0.0447 -0.2403
21017W        W37091  15.143   6.324   3.384 -0.1549  0.1316 -0.0354
21018W        W37092   3.097   8.624   0.780 -0.0464  0.3885 -0.2129
21019W        W37093   4.057   1.007  11.643 -0.0166  0.2928  0.1951
21020W        W37094   1.086   5.793  11.764  0.1197 -0.0566  0.3041
21021W        W37095  12.714  15.880   4.651 -0.2873 -0.1086  0.0707
21022W        W37096   4.415  15.937  11.651  0.1892  0.1493 -0.0567
21023W        W37097   4.313  18.163   3.992 -0.0834  0.0130  0.5597
21024W        W37098  15.429   3.175  13.270  0.2141  0.1848  0.3032
21025W        W37099   9.751   0.473   4.136 -0.0514 -0.1429  0.0112
21026W        W37100   5.031   9.950   3.728 -0.0911 -0.0205  0.4925
21027W        W37101  11.223   1.512  14.432  0.1499 -0.1736  0.0746
21028W        W37102   2.035   6.104   6.167  0.4400 -0.4246  0.1611
21029W        W37103   4.037  17.930  15.184 -0.1427  0.2286 -0.4240
21030W        W37104   6.325  16.247  11.066  0.0127 -0.2221  0.2518
21031W        W37105  11.666   9.848   2.381 -0.3561 -0.0376  0.1731
21032W        W37106   7.636   9.668   1.420 -0.1625  0.1259 -0.1073
21033W        W37107   3.399   6.107   2.519 -0.0150  0.2167  0.0652
21034W        W37108  14.171   4.965   1.686 -0.1310 -0.2296 -0.0668
21035W        W37109   9.794   0.956   1.372 -0.2658 -0.1835 -0.0619
21036W        W37110  11.435  16.949   4.371  0.1826  0.0452  0.1118
21037W        W37111   6.868  14.415   5.508 -0.0105  0.1082 -0.1240
21038W        W37112   6.249   8.077  12.887 -0.0445  0.0666  0.1818
21039W        W37113  12.264   0.160  15.963 -0.2580  0.0913 -0.1141
21040W        W37114   4.393  17.725  11.994 -0.2256 -0.0468  0.3117
21041W        W37115   7.912  13.222  14.708  0.1373  0.0356 -0.2074
21042W        W37116  15.920   7.529  11.592 -0.2064 -0.1353 -0.0690
21043W        W37117   4.514  14.860   3.807  0.2429  0.1066 -0.0170
21044W        W37118   8.287  17.781   4.523  0.3089 -0.0293  0.1329
21045W        W37119   5.815  16.841   3.744  0.1167 -0.0335 -0.1408
21046W        W37120   0.256   1.965  12.597  0.1304 -0.1034 -0.2018
21047W        W37121  13.404   9.061   2.789  0.0387  0.2120  0.0400
21048W        W37122  17.558   8.643   0.145  0.0684 -0.1834 -0.1899
21049W        W37123   8.105   4.000  14.987  0.0257  0.0208  0.1310
21050W        W37124   0.693  11.114  14.041  0.3046 -0.0116  0.1878
21051W        W37125  13.364   9.118   3.807 -0.3983 -0.0984  0.0184
21052W        W37126   5.328   0.445   4.199 -0.4271 -0.0147  0.0775
21053W        W37127   4.390   2.137   2.660 -0.0636  0.0021  0.1181
21054W        W37128  16.235   3.276   4.912 -0.0037  0.2446  0.0125
21055W        W37129  17.265  16.159  14.222  0.2068 -0.0433 -0.0935
21056W        W37130  15.469   4.503   3.048  0.0198  0.1103 -0.0147
21057W        W37131  15.227   2.501  16.273 -0.2434  0.0187 -0.2961
21058W        W37132   5.960  12.368  15.308  0.1705 -0.2522 -0.1418
21059W        W37133   4.376   0.078  16.151 -0.0051 -0.4509  0.2249
21060W        W37134  14.986   1.701  12.303 -0.0214  0.0063  0.3470
21061W        W37135   3.214   8.805  14.137  0.0153 -0.1484  0.1227
21062W        W37136  11.158   1.719  14.924 -0.0174 -0.0709  0.1520
21063W        W37137  14.686   0.705  12.165 -0.0792 -0.0771  0.0180
21064W        W37138   9.105  11.602  12.820 -0.0697 -0.0872 -0.1901
21065W        W37139   4.536   2.749  13.403  0.1293  0.2131  0.0114
21066W        W37140  16.218  15.411  12.301 -0.1534 -0.1075  0.0206
21067W        W37141  16.837   1.325  11.091  0.2597  0.2395  0.1312
21068W        W37142  10.861  17.259  14.806 -0.4473 -0.2248  0.1622
21069W        W37143   1.871   1.724   5.298  0.2342  0.0468  0.4109
21070W        W37144  11.337  12.947   2.546  0.1411  0.1754 -0.1165
21071W        W37145  16.979   8.419   3.600 -0.2081 -0.0599 -0.1610
21072W        W37146  11.207  15.828  11.225 -0.0624 -0.1732 -0.4642
21073W        W37147   1.938   8.730   1.802 -0.0195  0.1176  0.0637
21074W        W37148   0.626   4.101  12.202  0.1234 -0.0089  0.2151
21075W        W37149  14.062   7.341  15.099  0.4396 -0.2741 -0.0768
21076W        W37150   4.860   9.475   3.452 -0.1292 -0.2038 -0.0958
21077W        W37151  11.614   6.883   4.062  0.5741  0.1113 -0.1872
21078W        W37152  12.700   5.520   2.821  0.2334 -0.1238  0.4469
21079W        W37153   6.448  14.207   3.123  0.0119  0.1100  0.1214
21080W        W37154  18.023   1.315  16.217  0.1946  0.1035 -0.2343
21081W        W37155   0.786  14.994   0.001 -0.3171 -0.2365 -0.0846
21082W        W37156   2.586  18.001  13.251 -0.2357 -0.1550  0.1326
21083W        W37157   5.062  10.040  12.250 -0.0323  0.0063 -0.2276
21084W        W37158   8.557   7.495  12.001  0.0313 -0.2840 -0.2126
21085W        W37159   0.622  11.450   0.267 -0.0024 -0.0049 -0.0799
21086W        W37160   3.807  12.834  14.065  0.0792  0.1448  0.0828
21087W        W37161  11.066  15.883  14.930 -0.1426  0.0630  0.0880
21088W        W37162  17.204  17.420   1.333 -0.1773 -0.0311 -0.0556
21089W        W37163  13.931  15.459   3.331 -0.1085 -0.0206 -0.0952
21090W        W37164   9.854  10.500   5.763  0.1379 -0.0262 -0.1261
21091W        W37165   9.185   1.997   4.144 -0.0032 -0.3115 -0.0583
21092W        W37166  16.474  14.617  14.710 -0.3260  0.0339 -0.0213
21093W        W37167  11.257  11.939  16.101  0.0113  0.2676  0.0192
21094W        W37168  11.700   4.754   4.159  0.2492 -0.1603  0.3647
21095W        W37169   4.889  17.809   0.372 -0.2559 -0.3169 -0.0090
21096W        W37170   1.717  13.819   3.895 -0.1318 -0.0942  0.2777
21097W        W37171   8.652   0.197   0.523 -0.1394  0.1920  0.0873
21098W        W37172   1.511  15.964  13.955  0.0125 -0.1929  0.1215
21099W        W37173   6.246   2.347  13.114 -0.1944  0.1409  0.3143
21100W        W37174  14.130  14.152   1.610 -0.0414  0.4183  0.2590
21101W        W37175  14.605  13.846   1.603  0.1688  0.0329  0.0030
21102W        W37176  17.065   8.739   4.116 -0.0455 -0.0868 -0.0035
21103W        W37177   4.147   8.026  11.939  0.0436  0.4845 -0.2740
21104W        W37178   5.747  17.851   5.669 -0.3800  0.3086 -0.2258
21105W        W37179  10.060  11.559  14.782  0.2347  0.3154 -0.1089
21106W        W37180   2.420   2.005  11.850  0.0152 -0.2894  0.3112
21107W        W37181  10.665  17.184  13.657  0.1461  0.2465  0.3679
21108W        W37182  10.896  14.966  12.388  0.1313 -0.3197  0.1897
21109W        W37183   9.885   3.024  15.085 -0.1868  0.3312  0.1017
21110W        W37184  11.963   4.442   1.389 -0.2012  0.0644 -0.0825
21111W        W37185  10.003  15.107   3.697 -0.3207 -0.0871  0.3059
21112W        W37186   3.357   5.916  15.905  0.1059 -0.3331  0.3140
21113W        W37187  17.510  16.751  11.293 -0.0564 -0.0188 -0.0790
21114W        W37188  15.413  16.070   1.719 -0.0577 -0.1588 -0.1371
21115W        W37189   8.486  15.268  15.205 -0.1738 -0.2254 -0.0974
21116W        W37190   2.463  11.746   1.387  0.0105  0.0295  0.3876
21117W        W37191   1.244   1.861   5.254 -0.1328  0.2191  0.0044
21118W        W37192   7.840   7.559  12.539 -0.3238  0.1260  0.2131
21119W        W37193  17.572  16.879  15.179  0.1701 -0.1267 -0.1655
21120W        W37194  14.403   4.428   5.125 -0.2099 -0.1183 -0.0225
21121W        W37195  17.743   6.819   0.782  0.2971  0.0003  0.1597
21122W        W37196   5.625  14.173  16.340  0.2403  0.2620  0.2283
21123W        W37197  12.242   4.271  15.905 -0.3589  0.3991  0.1880
21124W        W37198   0.787  16.011   3.410 -0.1582 -0.0979  0.2247
21125W        W37199   4.620  17.403   3.670 -0.1203  0.4402 -0.0665
21126W        W37200   3.078   2.350  10.907  0.1583 -0.0908  0.2520
21127W        W37201  11.126  18.122   0.748 -0.1149 -0.1724  0.1345
21128W        W37202   4.062   5.994   3.362  0.0703  0.0639 -0.4360
21129W        W37203   9.296  11.641  11.313 -0.0249 -0.1126 -0.5659
21130W        W37204  18.061   3.434   2.977  0.2103  0.1684 -0.0599
21131W        W37205  18.302  13.136  13.142 -0.1550  0.1821  0.0012
21132W        W37206   4.558  11.118   3.895 -0.4479  0.1905 -0.1264
21133W        W37207  16.003  10.217  14.001  0.0089 -0.1957 -0.2920
21134W        W37208  17.672   5.071  15.080  0.0589  0.1649  0.2228
21135W        W37209   5.399  11.592   3.773  0.1288 -0.5157  0.0678
21136W        W37210   1.251   4.017   0.861 -0.2216  0.2844  0.2309
21137W        W37211  12.907   0.355  11.191 -0.1394  0.3224  0.3584
21138W        W37212  11.087   7.564  14.298 -0.0192 -0.2887 -0.1517
21139W        W37213   6.847  15.889   2.425  0.0946 -0.1823  0.2088
21140W        W37214   0.760   8.628   2.976 -0.0884  0.3038 -0.2410
21141W        W37215   1.181   3.859  12.427 -0.2632  0.2427 -0.5570
21142W        W37216  15.784   5.633   1.392  0.0695  0.1330  0.0280
21143W        W37217   2.701   6.370  12.867  0.4848 -0.0885  0.1356
21144W        W37218   6.529   7.450  13.564  0.1475  0.3010 -0.0720
21145W        W37219  18.071  11.074  15.019 -0.0604 -0.1441  0.1543
21146W        W37220   0.866   2.295  14.608  0.0697  0.1562 -0.0764
21147W        W37221   7.800   4.312   5.451  0.1561 -0.0170  0.0455
21148W        W37222  10.443  12.571  12.214 -0.0577  0.0924  0.4505
21149W        W37223   9.978  13.479  14.511 -0.0502  0.1914  0.2321
21150W        W37224  17.770   6.665  16.306  0.0762  0.0580  0.0057
21151W        W37225  15.164   1.185   0.468  0.1793 -0.0031 -0.5874
21152W        W37226   4.523   9.020  10.980 -0.0712 -0.1244 -0.1074
21153W        W37227  13.537   1.269  12.750  0.1604 -0.3755  0.2487
21154W        W37228  17.189   9.337  11.668  0.0212 -0.0062 -0.1983
21155W        W37229   0.942   8.127   0.786 -0.0567  0.0970 -0.0711
21156W        W37230  10.005   5.547   2.808  0.0423  0.2028  0.0263
21157W        W37231  16.403  18.239  14.930 -0.1595 -0.1652  0.1805
21158W        W37232  12.807   9.116   6.309 -0.2732 -0.4140  0.0185
21159W        W37233  10.197   2.844   1.866  0.0629 -0.1296  0.0761
21160W        W37234  12.468  16.477  15.688  0.0861  0.1223  0.0877
21161W        W37235   2.860   7.835  13.718  0.0649 -0.0051  0.0471
21162W        W37236  10.090   7.003   3.374 -0.3361 -0.1205  0.0227
21163W        W37237  14.059  15.348  14.071 -0.0485 -0.0935  0.0225
21164W        W37238   1.568  17.288  11.088  0.0572  0.1271  0.2395
21165W        W37239   6.826  15.632  15.350  0.0684  0.0935 -0.0016
21166W        W37240   3.513  12.559  13.220 -0.0609  0.1242  0.3182
21167W        W37241   3.076  16.567  11.622 -0.5223  0.0378 -0.0741
21168W        W37242  10.520   3.734   4.563  0.0085  0.0406  0.2052
21169W        W37243   2.855   9.768   3.373  0.0682  0.1716  0.1845
21170W        W37244   7.939  10.959  15.184  0.2923 -0.0097 -0.0717
21171W        W37245  14.233  14.334   0.704 -0.0392  0.0239  0.1503
21172W        W37246  11.635  15.072  13.707  0.1606 -0.4388  0.2166
21173W        W37247   7.859   9.585  11.134 -0.2100 -0.1015 -0.0570
21174W        W37248   5.399  17.367  11.835  0.2848  0.1781  0.2463
21175W        W37249  17.161  17.535   5.168 -0.3273 -0.3567 -0.1152
21176W        W37250  10.302  17.826   1.842  0.1129 -0.2869  0.1297
21177W        W37251   7.084   3.509   1.605 -0.0408 -0.2039 -0.2966
21178W        W37252  11.936  13.279  14.018  0.1517 -0.2166 -0.0572
21179W        W37253  18.236  11.703  13.752 -0.0452  0.1417 -0.1734
21180W        W37254  10.234   2.736   3.473  0.3022 -0.1518 -0.2008
21181W        W37255  14.892   0.582  11.669  0.0700  0.1144  0.0423
21182W        W37256   8.079   0.820   0.327  0.0866  0.0346 -0.1161
21183W        W37257   3.756   3.269  11.972 -0.0535 -0.0723 -0.1891
21184W        W37258  11.226  15.630   0.607 -0.0663 -0.1199  0.1336
21185W        W37259   3.352   2.645  12.901 -0.5228  0.3654  0.1257
21186W        W37260   4.071  10.913   5.979  0.2330  0.0693  0.2023
21187W        W37261   3.948   6.084  10.445  0.1545  0.1312  0.1422
21188W        W37262   1.268  17.169   1.640  0.2341 -0.0521  0.3241
21189W        W37263   0.391  12.170  12.798 -0.0312  0.1632 -0.1335
21190W        W37264  12.618  11.741  11.926 -0.0903 -0.0392 -0.2012
21191W        W37265   5.772  15.733  12.139  0.2626 -0.0116 -0.0674
21192W        W37266  16.378  11.454  15.338 -0.0693 -0.0313  0.2228
21193W        W37267  16.951   3.256  12.533  0.3132 -0.0426 -0.3321
21194W        W37268   6.909   1.946   5.342 -0.3014  0.0277 -0.1495
21195W        W37269  18.099   8.592  14.455  0.2401  0.2836 -0.3955
21196W        W37270   9.473   9.101  13.976 -0.2240 -0.1825  0.1498
21197W        W37271   5.926  14.778  13.236  0.0461 -0.3457 -0.1127
21198W        W37272  18.130   3.791  12.468  0.3724 -0.3916 -0.0618
21199W        W37273   2.405  13.530   5.649  0.4815  0.1900 -0.1511
21200W        W37274  14.984  10.786  12.133  0.2207 -0.2322  0.3614
21201W        W37275  16.807   2.922  12.184 -0.1695  0.2438 -0.3495
21202W        W37276   3.372  15.982   5.070  0.4139  0.3638 -0.0696
21203W        W37277   6.631  18.141   3.050  0.1568  0.1364 -0.1055
21204W        W37278   9.143  17.343  13.514 -0.2486 -0.5403 -0.2640
21205W        W37279   1.030   8.896   2.733 -0.3121 -0.0894 -0.1426
21206W        W37280   6.511   6.204  13.272  0.1100 -0.1103  0.0524
21207W        W37281   2.706   0.055  12.417 -0.0020  0.2197 -0.0436
21208W        W37282   6.293   9.527   4.241 -0.1818 -0.4052  0.1582
21209W        W37283  10.233  14.192  13.890  0.3319 -0.1215 -0.0277
21210W        W37284   5.590   4.468  14.159  0.0623 -0.0903 -0.2864
21211W        W37285  11.843   2.277   1.528  0.3100 -0.0147 -0.2709
21212W        W37286  14.900   8.872   0.948  0.0062  0.2967  0.0649
21213W        W37287  10.703  13.890   0.424  0.2348  0.1473  0.0959
21214W        W37288  17.369   0.483   2.527  0.2770 -0.2202 -0.1364
21215W        W37289   3.459   8.445   4.059 -0.1893  0.2136 -0.0756
21216W        W37290   2.191   0.241  14.461  0.3184  0.3813  0.1907
21217W        W37291   8.409  16.334   3.713  0.1012  0.1276 -0.1704
21218W        W37292   8.644   6.926  12.980 -0.0094  0.0435  0.2254
21219W        W37293  16.463  15.557  15.566  0.1707  0.1196  0.0462
21220W        W37294   4.053   2.185  10.899 -0.1383  0.1286 -0.0394
21221W        W37295   5.259   7.980  15.296 -0.0990 -0.1851  0.1662
21222W        W37296   4.186  12.896  12.545 -0.1523  0.1849 -0.3191
21223W        W37297  15.948  13.235  16.163  0.0901  0.3364 -0.0186
21224W        W37298  10.745   3.709   5.003 -0.0976  0.0070  0.1617
21225W        W37299  12.195   3.331  11.544 -0.0547  0.1673 -0.1231
21226W        W37300   9.473  10.338  14.154  0.0365  0.1563 -0.2715
21227W        W37301   6.285  16.141   5.421  0.0525 -0.1669 -0.1058
21228W        W37302   6.548   9.152   0.034  0.1125 -0.1002  0.0657
21229W        W37303   1.868  10.027   0.530 -0.1497  0.4661  0.1072
21230W        W37304  11.930   1.147  13.790  0.0039  0.1968 -0.0770
21231W        W37305  12.224  18.038   4.009 -0.1247 -0.2641 -0.2906
21232W        W37306   0.404   1.239  12.055  0.0946 -0.2990 -0.0828
21233W        W37307   2.391  11.936  12.495 -0.0629 -0.2743  0.0274
21234W        W37308  15.166   1.044  13.384 -0.2369  0.1299 -0.1348
21235W        W37309   1.160  11.393  15.583  0.0416  0.0065  0.0453
21236W        W37310   0.241  11.009   1.110  0.1325  0.1038 -0.0716
21237W        W37311  16.551  18.312  14.419  0.0697  0.2008  0.1449
21238W        W37312   0.855   5.871   0.271  0.0150 -0.1768  0.0597
21239W        W37313  16.569   4.848  11.700  0.1219 -0.0223 -0.0622
21240W        W37314   4.848  17.382   4.656 -0.1635 -0.0383 -0.2069
21241W        W37315   7.018  14.178  15.311 -0.1027  0.1076  0.2913
21242W        W37316   4.838  15.702  13.392 -0.1022  0.2052 -0.2622
21243W        W37317   7.692  17.272  16.101  0.0796 -0.2248 -0.0952
21244W        W37318  14.473  15.370  12.088  0.0972 -0.0275  0.0492
21245W        W37319  11.240  13.831   0.486 -0.0550 -0.0495  0.0520
21246W        W37320   2.331   4.509   3.784 -0.2781  0.1829 -0.2105
21247W        W37321  15.526   8.561  14.991  0.1910 -0.0345 -0.0876
21248W        W37322   8.043  13.094  11.616 -0.0652 -0.1169 -0.2041
21249W        W37323  17.850   5.091  12.113 -0.0813  0.1474  0.1628
21250W        W37324   1.295  11.619   3.098 -0.1094 -0.0514  0.3731
21251W        W37325   0.070   4.488   0.473 -0.0208  0.1007  0.1904
21252W        W37326   1.257  13.516  15.278  0.1954 -0.2377 -0.1152
21253W        W37327  17.660  15.954  13.626 -0.2548 -0.1249 -0.2107
21254W        W37328  13.313   0.969   5.319  0.2019  0.0991  0.0169
21255W        W37329   1.280  15.446  13.356 -0.1500 -0.1022 -0.2775
21256W        W37330   5.361   3.117  11.203 -0.2102 -0.0015 -0.0425
21257W        W37331  13.731   2.875  12.533 -0.0570 -0.1923 -0.3088
21258W        W37332  11.098   6.876   1.035 -0.1160  0.0558 -0.2076
21259W        W37333   3.887   4.579  14.505  0.2705 -0.4184 -0.1609
21260W        W37334  15.805  11.132   5.398  0.0138  0.1070  0.3477
21261W        W37335   8.771  15.980  14.146  0.2063 -0.2683  0.4082
21262W        W37336   7.205   6.899   2.549 -0.0875 -0.0003  0.0230
21263W        W37337   3.614  16.285   5.445  0.1228  0.0873 -0.0375
21264W        W37338  12.764   5.005   2.813  0.0973  0.2345  0.0339
21265W        W37339   2.840  17.089   2.407  0.4170 -0.1302 -0.2701
21266W        W37340   9.193   5.308  12.059 -0.3428 -0.1923 -0.2119
21267W        W37341  11.449  12.315  13.168  0.1922  0.2879 -0.0031
21268W        W37342   7.803   2.681   2.875 -0.0334  0.2248  0.3709
21269W        W37343   6.748   3.010   2.448 -0.1130  0.0718 -0.0100
21270W        W37344  16.149  17.063   3.135  0.0512  0.2260  0.0521
21271W        W37345  13.962   6.089   1.831  0.0658  0.2205  0.2437
21272W        W37346   5.520  18.187  15.125 -0.2795  0.2807 -0.0007
21273W        W37347   0.162   5.908   3.865  0.1083  0.1822  0.2304
21274W        W37348   1.652   1.821  11.526  0.0469  0.1253  0.2553
21275W        W37349   2.083   6.628  15.682  0.1192 -0.0330  0.1410
21276W        W37350  10.249  10.657  12.341  0.0038  0.1824  0.2286
21277W        W37351   9.114   7.254   4.947  0.0735  0.0552  0.1046
21278W        W37352  12.017   8.900   1.607  0.2071  0.0305  0.1025
21279W        W37353  11.022   8.819  11.615  0.1481 -0.2688 -0.0114
21280W        W37354   2.286   7.783   1.676  0.1747 -0.2062  0.1050
21281W        W37355  17.625   4.569   5.321  0.0886 -0.1136  0.1286
21282W        W37356  10.251   7.884  14.899 -0.0993 -0.1935 -0.1778
21283W        W37357  14.767  11.082  16.194 -0.0808 -0.0530 -0.1617
21284W        W37358   7.682  12.203   0.440  0.1089  0.2779 -0.0084
21285W        W37359  13.158  10.716   2.347  0.1681  0.2559  0.0198
21286W        W37360   3.514  13.492   4.152 -0.0009  0.1659 -0.1027
21287W        W37361   3.800   4.567  16.372  0.2260  0.0758 -0.0556
21288W        W37362   1.996   8.692   0.557  0.3368  0.3372  0.0057
21289W        W37363   2.845  12.062   1.471  0.1280 -0.1341  0.0783
21290W        W37364  12.824  17.226   3.173  0.2825  0.1899  0.1558
21291W        W37365   2.086  10.111   3.760  0.0882  0.1951 -0.1054
21292W        W37366  11.725  16.087   1.383 -0.0529  0.3761  0.0436
21293W        W37367  14.218  17.909   1.911 -0.0827 -0.2233  0.2199
21294W        W37368  14.103   3.418  11.545 -0.3959 -0.0561 -0.4058
21295W        W37369   4.511  14.163  12.209  0.0166 -0.3115 -0.3521
21296W        W37370   2.235   5.652   5.939  0.2096 -0.0933  0.1728
21297W        W37371   4.960   5.498   4.455 -0.2722 -0.1920 -0.0312
21298W        W37372   7.858   3.496   3.879  0.1550  0.1254 -0.2383
21299W        W37373  18.326   6.007  15.363 -0.0661  0.3745 -0.0998
21300W        W37374   9.967   2.358  13.589  0.2616 -0.2530 -0.1775
21301W        W37375   1.814   1.171   4.592  0.1182 -0.3251  0.0761
21302W        W37376  17.601   7.177  14.673  0.3530 -0.1631  0.2184
21303W        W37377  14.362   7.900   2.843 -0.2218  0.0133 -0.3222
21304W        W37378  11.320  13.092   4.476 -0.0587 -0.0776  0.2198
21305W        W37379   6.727  15.760   0.957  0.0923 -0.0099  0.1880
21306W        W37380  12.991   0.103  12.745 -0.0981 -0.1378 -0.0546
21307W        W37381   5.927   6.893   4.167 -0.4945  0.2370  0.0811
21308W        W37382  18.220  14.586   3.330  0.2412  0.0516 -0.3284
21309W        W37383  14.542  16.975   4.623 -0.0508 -0.0101  0.0179
21310W        W37384  14.823  10.154   1.702 -0.4349 -0.1762 -0.1101
21311W        W37385  13.588   3.890   2.710  0.1595 -0.0558  0.1406
21312W        W37386   6.255  17.220  11.651 -0.0675  0.1748  0.0761
21313W        W37387  16.596  13.731  13.649  0.1393 -0.0320  0.2640
21314W        W37388   7.534  14.451   2.056 -0.1679 -0.1908 -0.3433
21315W        W37389   3.722   0.302  12.857  0.1301 -0.0743  0.2130
21316W        W37390   1.766   8.003   1.949  0.0844 -0.4166  0.2803
21317W        W37391  12.009   7.418   4.243  0.1206  0.4474 -0.0621
21318W        W37392   5.958   1.518   4.977  0.0214  0.0449 -0.1350
21319W        W37393  13.096   6.244  11.361 -0.0391 -0.0572 -0.0522
21320W        W37394   2.768  16.631   3.267  0.0992 -0.2941 -0.2197
21321W        W37395  13.633   7.024   3.694  0.1768  0.0095  0.1900
21322W        W37396   0.168   1.465  14.605 -0.0814  0.0944  0.0444
21323W        W37397  10.794   1.610   3.459  0.2869 -0.4545  0.1002
21324W        W37398  15.518   3.383  12.151  0.1928 -0.0455 -0.0648
21325W        W37399   8.208  14.396  14.425  0.1706 -0.0318 -0.0341
21326W        W37400  11.722   0.650  12.954  0.2278 -0.0009 -0.0206
21327W        W37401  16.466  10.449  11.908 -0.2322  0.0426  0.2508
21328W        W37402   0.088   4.218  12.126 -0.6052  0.1618 -0.2329
21329W        W37403   9.796  14.697   2.666  0.0286  0.1055  0.2650
21330W        W37404   2.630   8.859   3.898  0.0801 -0.1379 -0.1045
21331W        W37405   2.904  11.712  14.769  0.2599 -0.0684 -0.2748
21332W        W37406  11.214   7.229   0.714  0.0044  0.1856 -0.3832
21333W        W37407  13.700  14.322  15.797 -0.3116  0.0933 -0.2692
21334W        W37408  10.516  12.680   0.967 -0.0217  0.2389 -0.0575
21335W        W37409  15.902   5.676   0.193  0.1892  0.2555 -0.0958
21336W        W37410  11.678   1.411  10.971 -0.1936  0.3277  0.3342
21337W        W37411  17.249   3.726   2.738  0.1683 -0.0057  0.3459
21338W        W37412   8.011  15.427  11.127 -0.2199 -0.2430  0.1457
21339W        W37413  10.019  13.715   1.671 -0.0132  0.1841  0.2093
21340W        W37414   0.016  10.998   4.401  0.1518  0.0475 -0.1200
21341W        W37415   0.495  15.379  11.274 -0.0065  0.0019 -0.2264
21342W        W37416   4.425   9.920   5.351 -0.0847  0.4794  0.0658
21343W        W37417  17.123  10.889   5.451  0.1181  0.0442  0.1102
21344W        W37418   6.748   4.260   1.453  0.0526  0.5716 -0.1488
21345W        W37419  15.886   6.488   3.308 -0.1624  0.0220 -0.1146
21346W        W37420   3.704  15.750  16.194  0.1792  0.3980 -0.1906
21347W        W37421  14.966  13.709   5.424 -0.1905 -0.2647  0.0141
21348W        W37422  14.968   2.854   2.051 -0.1323 -0.3047 -0.3071
21349W        W37423   0.373  14.909   2.163 -0.2159  0.2257  0.1372
21350W        W37424   1.121   4.628  12.802  0.0645 -0.0086 -0.2096
21351W        W37425  13.340   4.717  12.921  0.1308  0.4848  0.1651
21352W        W37426   8.407  14.241   6.086  0.0492 -0.0995  0.1442
21353W        W37427  17.159  17.153   2.451 -0.0410  0.0207 -0.1880
21354W        W37428  10.227   9.922   2.299  0.2397  0.0738  0.0792
21355W        W37429  15.879  14.142  16.186 -0.0314 -0.2268 -0.1156
21356W        W37430   2.706  15.581  13.144  0.0747  0.0082  0.4678
21357W        W37431   0.459  11.294   5.120 -0.0248  0.1967  0.0579
21358W        W37432   9.628   8.809   1.038 -0.0315  0.1839 -0.1088
21359W        W37433   4.324  10.451   5.468 -0.1035 -0.0673 -0.0961
21360W        W37434  10.682   0.851  14.379  0.2126 -0.0973 -0.0393
21361W        W37435   5.257   3.281  12.498  0.1213 -0.0638 -0.0509
21362W        W37436   3.603   9.075   3.746 -0.0217  0.1195 -0.1236
21363W        W37437  16.273  12.112   6.229 -0.0327  0.0880 -0.2851
21364W        W37438  11.260   9.810   1.775  0.4023  0.2346  0.2432
21365W        W37439   6.513  14.591   3.717 -0.1725 -0.0026 -0.0987
21366W        W37440  11.761  15.956   4.036 -0.2232 -0.1813 -0.1472
21367W        W37441  10.074   6.605   9.819 -0.1519  0.1171 -0.3520
21368W        W37442   3.032  17.993  15.234 -0.0983 -0.3047 -0.0394
21369W        W37443   9.024  15.551  14.039  0.0048 -0.1245 -0.0304
21370W        W37444   2.188  10.157   1.742 -0.0549  0.0732 -0.1159
21371W        W37445   3.898  12.655  16.245 -0.0355  0.0386 -0.2101
21372W        W37446  12.840   6.998   1.339  0.2639 -0.1276  0.0749
21373W        W37447  14.169  15.578  13.639  0.2562 -0.3903  0.2362
21374W        W37448  16.803   2.673   2.802  0.0696  0.1445 -0.1454
21375W        W37449  16.493  16.714   3.179  0.1673  0.0798  0.0108
21376W        W37450  12.720  14.838   3.696  0.0531  0.1477  0.1471
21377W        W37451   0.815  11.661  14.312  0.2002  0.1451 -0.0610
21378W        W37452   1.420   0.319   0.572  0.2811  0.2285  0.0422
21379W        W37453  17.401  15.597  13.917  0.2078 -0.2520 -0.1248
21380W        W37454  11.020  12.694   0.222 -0.2066  0.1907  0.0525
21381W        W37455  16.827   1.621   0.200 -0.2829 -0.1704  0.1515
21382W        W37456   1.956  12.192   0.961 -0.1455 -0.1426  0.1589
21383W        W37457   6.576  10.793   6.236 -0.1833  0.0813  0.0089
21384W        W37458   4.332   9.194   2.234 -0.0477 -0.1888  0.0763
21385W        W37459   6.521   1.870  14.092 -0.0745  0.2169  0.3416
21386W        W37460  12.526   1.969   3.343  0.1085 -0.0810  0.0406
21387W        W37461   8.649  14.625  16.342  0.2291 -0.1337 -0.2010
21388W        W37462   0.636  10.315   3.670  0.0607  0.0829  0.3192
21389W        W37463  11.835   3.793  11.789 -0.2401 -0.0273 -0.1378
21390W        W37464   4.919  11.753   1.030  0.1968 -0.0668 -0.0875
21391W        W37465   6.193  10.512  15.252  0.4640 -0.0628  0.0303
21392W        W37466  15.554   1.582   3.498  0.0074 -0.0004  0.5061
21393W        W37467  16.831  16.140   2.448 -0.0948 -0.0323 -0.3001
21394W        W37468   3.431   6.202  15.390 -0.1255  0.0028  0.2589
21395W        W37469  12.038  16.460  14.585  0.2921 -0.0982 -0.0234
21396W        W37470   9.882  10.410  12.518 -0.3684  0.1235  0.2606
21397W        W37471  15.143   1.044  15.966 -0.0614 -0.1175  0.0421
21398W        W37472  10.137   0.100  14.988 -0.3091  0.0974 -0.0094
21399W        W37473   2.960   6.441   0.979 -0.1065  0.0219  0.0337
21400W        W37474   0.218  18.143   3.871 -0.0837  0.0511  0.2260
21401W        W37475  11.663   4.291  15.873  0.5063  0.2653  0.1424
21402W        W37476  18.148  15.178  13.833 -0.3602  0.0594  0.0646
21403W        W37477   3.613  10.046  14.953  0.0681 -0.2872  0.1435
21404W        W37478   3.828  10.140   4.788  0.0133  0.3812  0.2092
21405W        W37479   3.887  11.569   3.227  0.1146  0.3639  0.0423
21406W        W37480   3.116   5.319   4.956 -0.0192 -0.1259  0.0559
21407W        W37481   9.236   5.125  11.102  0.0929  0.2231  0.1752
21408W        W37482  12.054  14.325   1.078  0.2627 -0.2307  0.2072
21409W        W37483   6.420  17.879   3.548  0.3531  0.2914 -0.1360
21410W        W37484   0.643   9.463  16.212 -0.0215  0.0622 -0.0167
21411W        W37485   8.802  11.584  12.006  0.0449  0.0353 -0.1121
21412W        W37486  12.525   8.458   3.210  0.3013 -0.1286  0.1838
21413W        W37487   6.379  14.445  15.952 -0.0326 -0.0821  0.3107
21414W        W37488   2.739  12.541  11.126  0.1184 -0.2885 -0.0039
21415W        W37489  14.815   7.302   1.172  0.1720  0.0627  0.2159
21416W        W37490  17.688   2.217   3.668  0.2681  0.2241 -0.3062
21417W        W37491   5.780   4.659   3.457  0.1444 -0.2125  0.0932
21418W        W37492  15.264  12.117  11.953 -0.0186 -0.0071  0.0030
21419W        W37493  14.970   2.330  15.891  0.1663 -0.1739  0.4130
21420W        W37494  15.447   5.554   1.771 -0.0602 -0.3506 -0.0429
21421W        W37495   3.459   8.227   0.225 -0.2304  0.0745  0.2059
21422W        W37496   8.450  14.079   5.641 -0.0842  0.0088  0.4521
21423W        W37497   2.386   8.141  13.110 -0.1713 -0.1773  0.1655
21424W        W37498  15.734   5.247  12.716 -0.2224 -0.0871 -0.0649
21425W        W37499  17.689   4.316   4.529 -0.1324 -0.0187  0.1041
21426W        W37500  18.320   3.852  11.746  0.1826 -0.0359 -0.0598
21427W        W37501  13.424  13.806  13.814  0.0437 -0.1651  0.1888
21428W        W37502  18.259  14.896   3.743  0.1522 -0.2457  0.3216
21429W        W37503   5.394   4.258  15.449 -0.0088  0.1691 -0.0864
21430W        W37504   8.630   8.506  12.519  0.1090  0.0102  0.2120
21431W        W37505   2.681  12.082  15.707 -0.1217  0.4255  0.1210
21432W        W37506   2.555   2.301   4.724 -0.1152 -0.1993 -0.1930
21433W        W37507  13.901  16.286  11.749 -0.1293 -0.0094 -0.0872
21434W        W37508   4.873   8.778   0.396 -0.1971 -0.4274  0.1053
21435W        W37509  13.877   9.647  14.984 -0.1696 -0.0028  0.0198
21436W        W37510  18.009  12.480  14.591  0.2664  0.0446 -0.1336
21437W        W37511  15.620  17.733   0.763  0.0919 -0.2316 -0.0521
21438W        W37512  15.784   7.268   3.261  0.1258  0.0773  0.2001
21439W        W37513   5.778   2.949   0.524 -0.3879  0.0704  0.0362
21440W        W37514  13.399   6.735  11.318 -0.3611  0.1107  0.0378
21441W        W37515  15.686  17.562   4.741  0.2376 -0.2385  0.0495
21442W        W37516   9.677   7.946  12.840  0.1855  0.4508 -0.0433
21443W        W37517   3.984   1.897   4.837  0.0379 -0.2318 -0.0752
21444W        W37518   7.409  14.593   3.369 -0.0102 -0.2037  0.0363
21445W        W37519   7.659   0.301   1.913  0.0920 -0.0626  0.0891
21446W        W37520  14.321   9.489   3.246  0.2056 -0.0117  0.6515
21447W        W37521   7.408  15.329   1.332 -0.1314 -0.0519  0.3913
21448W        W37522   4.618  17.195  14.301  0.2141 -0.2183  0.1848
21449W        W37523   4.964   0.902   0.079 -0.0202 -0.1383  0.3530
21450W        W37524  15.103  17.333  14.797  0.1232 -0.0138 -0.3274
21451W        W37525  17.464   3.208   3.431 -0.2263 -0.4823  0.1204
21452W        W37526  17.850  18.240  14.747 -0.0448  0.0902 -0.0085
21453W        W37527   7.729  18.253   0.871 -0.2139 -0.0912  0.1803
21454W        W37528  10.637   2.637   1.741  0.0680 -0.3635  0.0172
21455W        W37529   6.754  12.449  14.018  0.0176 -0.0708 -0.1351
21456W        W37530  12.166  10.214  13.749 -0.0868 -0.0164 -0.0852
21457W        W37531   6.117  13.291   0.130  0.2756 -0.2905 -0.0366
21458W        W37532   1.242  17.509  13.354  0.1269  0.0131  0.1433
21459W        W37533  13.527  11.960  12.339 -0.0569 -0.2292 -0.1004
21460W        W37534   2.237  16.998  14.067 -0.2900  0.2785  0.2251
21461W        W37535   8.395   4.563  12.760 -0.0473  0.2057  0.1743
21462W        W37536   8.695   9.316  12.984 -0.0356  0.3426  0.2400
21463W        W37537   3.581   4.776   2.656 -0.1125  0.1909  0.1491
21464W        W37538  15.686  16.271   0.481 -0.2807  0.3532  0.1088
21465W        W37539  12.868  12.942  13.692  0.1058 -0.2345 -0.1274
21466W        W37540   5.131   5.356   1.369 -0.1207 -0.3111 -0.1443
21467W        W37541  15.403  13.112  12.758 -0.1342  0.0296  0.0735
21468W        W37542  16.071   2.392   1.819  0.0820 -0.3867  0.0709
21469W        W37543   7.710  17.012   3.288  0.0018  0.0355 -0.0126
21470W        W37544  10.991  14.380  15.340 -0.2488 -0.0620 -0.3623
21471W        W37545  16.530   1.235   0.173  0.0271  0.3212 -0.0525
21472W        W37546  12.092   2.983  13.486  0.0694  0.1207 -0.1301
21473W        W37547   0.160  15.990   2.209 -0.0702 -0.0773  0.2070
21474W        W37548  11.964  12.413  14.763  0.5584  0.1059 -0.1507
21475W        W37549   0.893   7.836  16.317  0.0640 -0.0532  0.1385
21476W        W37550  18.317   6.611  13.439 -0.0171 -0.2942  0.2094
21477W        W37551  13.683  16.857  13.564 -0.0952  0.3355 -0.2647
21478W        W37552   3.321   8.306   5.200 -0.0391 -0.0199  0.0691
21479W        W37553   4.757   7.563   6.010 -0.1758  0.1143  0.1099
21480W        W37554   2.026  15.656   0.254  0.2709  0.1033 -0.2216
21481W        W37555   8.582  16.659   4.867  0.2065  0.0677  0.0097
21482W        W37556  16.869  16.454  14.641  0.0422 -0.3081  0.0150
21483W        W37557  16.815  13.942  12.176 -0.0598 -0.0009 -0.1482
21484W        W37558  13.283   0.778   2.312  0.0646 -0.2468  0.1973
21485W        W37559   2.498   0.342  14.034  0.1490  0.0034 -0.3470
21486W        W37560  14.859   5.165   2.370  0.0539  0.1196 -0.0253
21487W        W37561  12.363   9.970  12.460 -0.2204  0.2498 -0.1247
21488W        W37562   9.877   5.283   1.510 -0.0291 -0.3325 -0.1293
21489W        W37563   9.813  17.614  14.735  0.0168  0.0498 -0.1168
21490W        W37564   1.121  12.870  15.635  0.0057 -0.1742 -0.0023
21491W        W37565   6.998  12.431   5.352 -0.1346  0.2397  0.0697
21492W        W37566   8.425  12.148   0.633  0.0914 -0.2702 -0.0722
21493W        W37567  13.347  15.663  15.325  0.1159 -0.0319  0.0015
21494W        W37568   5.015  16.593   2.257 -0.1131  0.2231 -0.0653
21495W        W37569  14.357   1.164   4.045  0.1249  0.0830  0.1370
21496W        W37570  15.286   7.907  13.780 -0.1557 -0.2110  0.0051
21497W        W37571   2.799  15.111  11.814 -0.2712 -0.2486  0.0828
21498W        W37572  17.805   9.302   2.498  0.0635 -0.1010  0.2839
21499W        W37573   6.412   9.533   1.878 -0.2079  0.1378 -0.0268
21500W        W37574  11.750   5.373  13.036  0.0539 -0.2023  0.1252
21501W        W37575   4.416   9.545   3.134 -0.1226 -0.2045 -0.0723
21502W        W37576  10.204  14.001   2.480  0.0309  0.0459  0.0070
21503W        W37577  15.262   7.994  15.192 -0.0906 -0.2580  0.0250
21504W        W37578   2.149   7.860  14.823  0.2596  0.1532  0.5387
21505W        W37579   9.909   6.754  16.367  0.0395 -0.3124 -0.1059
21506W        W37580  10.521  15.650   3.281  0.1109  0.1051  0.0702
21507W        W37581   2.534  15.619   3.659 -0.1944  0.0653 -0.3817
21508W        W37582   5.218   4.235  12.725  0.0417  0.1482  0.1793
21509W        W37583  16.802   9.988  15.659  0.2197 -0.2654  0.0964
21510W        W37584  10.518   2.528  15.073  0.1648  0.2143  0.0085
21511W        W37585  15.002   6.510   5.414  0.2325 -0.3957 -0.0615
21512W        W37586   7.796   5.392   4.460  0.3767 -0.1564  0.2535
21513W        W37587  15.089  17.195  12.369 -0.2736 -0.0423 -0.3261
21514W        W37588   9.097  16.985   3.374  0.0099 -0.0318 -0.0587
21515W        W37589  13.594  16.800   4.997 -0.0847 -0.3750 -0.2225
21516W        W37590   1.879  16.900   0.265  0.0783 -0.6206  0.0280
21517W        W37591  17.237  16.654  12.385 -0.0527 -0.0881 -0.4718
21518W        W37592  15.487  11.444   3.856  0.2045  0.1299  0.0939
21519W        W37593  15.970   6.010   5.649 -0.2355 -0.1214  0.1190
21520W        W37594  13.483   8.675   5.744  0.0712  0.4316 -0.0159
21521W        W37595  16.923  14.771  12.231  0.0025  0.2062 -0.2260
21522W        W37596   1.354  15.006   2.117  0.1961 -0.1796 -0.2846
21523W        W37597  14.273   2.039   3.495  0.4964 -0.1125  0.1326
21524W        W37598  10.527   3.134  11.881  0.3855 -0.2320  0.1134
21525W        W37599   8.301  13.166  12.892  0.0200  0.0725 -0.1081
21526W        W37600   9.987   3.645  12.888  0.1146  0.0507  0.2339
21527W        W37601   0.217  12.500  14.216  0.3444  0.0176  0.1050
21528W        W37602  16.256   6.497  12.688  0.1043 -0.0348  0.0605
21529W        W37603  16.846   4.552   1.749 -0.0372 -0.0507 -0.2035
21530W        W37604  14.920   5.459  11.736 -0.2680 -0.0149  0.1169
21531W        W37605   7.143  16.884   0.311  0.1088  0.2333  0.1396
21532W        W37606   7.372  13.609  16.036 -0.1734 -0.2390  0.2612
21533W        W37607  11.091   8.407   1.708 -0.1730 -0.2532 -0.2634
21534W        W37608   3.312  13.230  16.203 -0.1712 -0.2437  0.2757
21535W        W37609   6.651   4.387   4.574 -0.1288 -0.0277  0.3446
21536W        W37610  13.011  14.656   4.330 -0.1796  0.2323  0.1713
21537W        W37611   6.823   0.685  11.344  0.0627 -0.0548 -0.1560
21538W        W37612   7.605  14.067   3.366  0.0230  0.0490 -0.2708
21539W        W37613   1.084   3.877   5.047 -0.0531 -0.0853  0.4627
21540W        W37614   8.363   9.502  12.406 -0.1537  0.1344  0.0970
21541W        W37615  10.308   0.543  14.579  0.0088 -0.2602 -0.0073
21542W        W37616   9.309   2.981  12.045 -0.1423  0.1224  0.1773
21543W        W37617  13.868   5.899   4.766  0.1429 -0.0227  0.3138
21544W        W37618   6.219   5.941  16.320 -0.3401 -0.3269  0.2547
21545W        W37619   2.661  17.340  12.098 -0.1603 -0.0715  0.2595
21546W        W37620  13.214  14.938   2.658 -0.0207 -0.2301  0.6564
21547W        W37621   0.025   2.165  14.564  0.0219 -0.0009  0.1656
21548W        W37622  12.234  15.756   1.502 -0.2378 -0.0207 -0.1283
21549W        W37623   6.329   5.050   2.256 -0.0753  0.2069 -0.2043
21550W        W37624   6.520   9.163  12.116  0.4890 -0.3805 -0.1267
21551W        W37625   7.279   7.830  15.574 -0.1515  0.3431 -0.1009
21552W        W37626  10.227   3.903  15.087 -0.1065 -0.0509  0.0398
21553W        W37627  14.323  13.852  13.083  0.0068  0.0693  0.2977
21554W        W37628   1.084   7.085   3.032 -0.0013  0.0811  0.3991
21555W        W37629   2.386  15.964  11.379 -0.0752  0.1490  0.1379
21556W        W37630  10.753  13.521  15.579 -0.2938  0.1850  0.0962
21557W        W37631   8.064   3.345  15.802 -0.2546  0.1683  0.0010
21558W        W37632  12.605   1.302  15.709  0.1644 -0.1388 -0.1000
21559W        W37633   1.037   7.978   2.860  0.3139  0.1717  0.0440
21560W        W37634   5.607  11.523  10.405 -0.1339 -0.1687 -0.0990
21561W        W37635   7.555   6.277   0.825 -0.3329  0.1081 -0.1259
21562W        W37636   8.199  13.580   3.822  0.0168  0.0650  0.0428
21563W        W37637  11.158  15.121   4.487  0.3173 -0.1283  0.1593
21564W        W37638  14.824  11.842   1.810  0.0919 -0.1404  0.0101
21565W        W37639  16.205   5.572  15.103  0.0884  0.2353  0.2385
21566W        W37640  10.162   6.548   3.088 -0.2544 -0.0011 -0.0659
21567W        W37641   6.238  10.637  13.865  0.3135  0.0613  0.0375
21568W        W37642  16.907   7.092  12.906  0.4325 -0.0229 -0.1142
21569W        W37643  14.683  14.058   0.770 -0.1207 -0.0048  0.4325
21570W        W37644   7.506  17.399   5.581  0.0976  0.1629 -0.0451
21571W        W37645  18.105   8.914   1.170  0.3686  0.1448  0.0648
21572W        W37646  16.216  14.334   2.118 -0.0740 -0.0719  0.0227
21573W        W37647   7.814  16.229  15.829  0.1442  0.0268  0.0829
21574W        W37648   9.275   0.671  15.134  0.0851  0.1199  0.0966
21575W        W37649   4.321  14.147   0.283  0.3117 -0.0548 -0.2189
21576W        W37650  12.231   9.107  15.196 -0.1693  0.1767  0.1273
21577W        W37651  13.706   7.317   2.253 -0.0833 -0.4302 -0.0119
21578W        W37652   7.848   0.397   4.254 -0.1268  0.1045 -0.0582
21579W        W37653   1.527   0.549  11.961  0.2216  0.0905  0.3622
21580W        W37654  18.231  17.535  13.673  0.0167 -0.0981 -0.2163
21581W        W37655   0.730   7.602  14.091 -0.4275 -0.3317  0.3014
21582W        W37656  11.998  16.767  13.123  0.2145 -0.0369 -0.2102
21583W        W37657  17.585   5.993  15.148 -0.1297  0.2383 -0.0634
21584W        W37658   0.147   7.095  13.518 -0.0607  0.0833  0.1733
21585W        W37659   3.010   0.152   0.107  0.0946  0.2551 -0.0255
21586W        W37660   6.142  15.558   6.068  0.1752  0.2522 -0.2913
21587W        W37661   6.111   4.380   9.900  0.0464  0.1532 -0.2894
21588W        W37662  17.657  12.818   4.633  0.1738 -0.0823  0.0278
21589W        W37663  13.270   1.955   1.592 -0.1330  0.3631 -0.0394
21590W        W37664  14.440  15.911   1.574  0.0837  0.0427  0.2689
21591W        W37665  16.763   0.974   0.548 -0.1213  0.1180 -0.4430
21592W        W37666  10.275  17.941   2.428 -0.0516  0.1899  0.0431
21593W        W37667   3.388  16.770  16.012  0.0902  0.3186 -0.0125
21594W        W37668  17.035  15.089   5.764 -0.0248  0.1662 -0.0015
21595W        W37669   5.272  15.642  12.191 -0.0181  0.0154  0.3092
21596W        W37670   8.709   6.452  12.043  0.0079  0.0044  0.3819
21597W        W37671  10.184  12.313   3.836 -0.1119 -0.0171 -0.0741
21598W        W37672  16.036   0.644   3.959 -0.4203 -0.2066  0.3287
21599W        W37673  16.361  13.866  12.355 -0.3925  0.0939  0.1006
21600W        W37674   9.029   8.722  11.231 -0.2813  0.2406  0.0091
21601W        W37675   0.970  12.848   1.188  0.1640  0.1054  0.1945
21602W        W37676   0.191   0.001   0.191  0.2026 -0.0624  0.2457
21603W        W37677  14.870  11.147   4.919  0.1576 -0.1370 -0.0058
21604W        W37678   8.582   9.714   6.381 -0.0810 -0.0162  0.0148
21605W        W37679   8.184  16.902   0.687 -0.0383 -0.0586  0.0408
21606W        W37680  14.800  12.995   0.437  0.2007 -0.0500 -0.3544
21607W        W37681   5.359  17.020  12.628 -0.1610  0.2360 -0.0097
21608W        W37682  10.432  14.144  14.346  0.2403  0.1577  0.1027
21609W        W37683  17.766  11.235  12.373  0.1912  0.0989 -0.4121
21610W        W37684  14.834   8.548   0.554 -0.2778  0.0197 -0.5258
21611W        W37685   0.928   7.327   3.452  0.1814  0.2054  0.0732
21612W        W37686   1.388   7.678   1.931 -0.1537 -0.3171 -0.2750
21613W        W37687   6.780  14.682  15.236 -0.1481 -0.0799  0.2515
21614W        W37688   7.220  13.926   3.661  0.0615  0.0639 -0.0189
21615W        W37689  15.148  11.710   4.296 -0.1635 -0.0293 -0.0574
21616W        W37690  11.361   3.891  10.568 -0.2302  0.2681 -0.1644
21617W        W37691   5.719   0.450   3.854  0.0577 -0.0769  0.1162
21618W        W37692   0.053   5.038   0.005  0.1210 -0.0031 -0.2294
21619W        W37693   9.598   5.211  12.864  0.1823  0.0871  0.1932
21620W        W37694   3.483   1.521  12.521  0.0655  0.0889 -0.1104
21621W        W37695   9.352   6.620  15.116  0.1809  0.0984 -0.1502
21622W        W37696  17.067   4.291  12.814  0.0094  0.1111  0.0950
21623W        W37697  11.905   8.646   4.387 -0.0110  0.2135 -0.3168
21624W        W37698  14.685  10.917  11.763  0.0220  0.0785  0.0001
21625W        W37699   0.719  10.554  14.002 -0.0215  0.2792 -0.0150
21626W        W37700  11.404  10.124   4.281  0.3181 -0.0666  0.1632
21627W        W37701  10.173   1.141  12.357  0.0098  0.0011 -0.0047
21628W        W37702   2.184  13.861   2.469 -0.2085  0.1726 -0.0121
21629W        W37703   7.239   8.627   2.319 -0.0330 -0.2957  0.4634
21630W        W37704   8.633  18.239  13.365  0.0981 -0.1944 -0.1709
21631W        W37705   7.821  10.885   3.927  0.0627 -0.1704 -0.0833
21632W        W37706   3.247   5.579   5.816  0.0414  0.1647 -0.0546
21633W        W37707  14.357  18.160  11.723  0.1470  0.2050  0.1453
21634W        W37708   2.223   9.434   0.398  0.0095  0.1593 -0.0318
21635W        W37709   2.209   9.583   1.759 -0.1391 -0.1804 -0.1217
21636W        W37710   8.643   1.226   3.476  0.2208  0.3260  0.1632
21637W        W37711   2.523   1.630   2.088 -0.1013  0.2350 -0.3087
21638W        W37712   8.211   6.025  14.883 -0.0706 -0.1386  0.1004
21639W        W37713   1.369   2.710   3.840 -0.0233 -0.2720  0.2633
21640W        W37714  18.016  13.673  13.410  0.2284  0.0746  0.1368
21641W        W37715   7.083   8.605   3.739 -0.1115  0.2625  0.2139
21642W        W37716   7.041   5.459  10.661  0.1429 -0.2198 -0.0685
21643W        W37717  14.773   8.482   5.911 -0.0177  0.1232 -0.2859
21644W        W37718  16.642   2.298  12.453 -0.0794  0.2218 -0.1601
21645W        W37719  17.958   1.086  14.981 -0.0518 -0.0066 -0.0068
21646W        W37720   6.656   4.746  11.252 -0.1095 -0.3405 -0.2895
21647W        W37721  15.153  13.886   5.838  0.2503 -0.0215  0.0467
21648W        W37722  14.298   0.880   0.606 -0.0781 -0.1252 -0.1688
21649W        W37723   9.417   0.318   3.345 -0.4077 -0.1460  0.2552
21650W        W37724  16.091  16.011  12.052 -0.2022  0.1955 -0.2218
21651W        W37725  18.261  10.680   5.623 -0.1299 -0.0477 -0.0734
21652W        W37726   6.024  16.572  13.719  0.4314 -0.1447 -0.2752
21653W        W37727  17.285  10.402   5.501  0.2277  0.0075  0.0543
21654W        W37728   7.415  16.082   1.193  0.1843  0.0820 -0.2018
21655W        W37729  13.820   6.582  16.144  0.2063 -0.0290  0.0823
21656W        W37730  10.352  13.714   2.060 -0.1488  0.0354  0.1949
21657W        W37731   6.931   2.860  10.910  0.2650  0.1578  0.2446
21658W        W37732   1.423   3.870   6.440 -0.0576  0.1554  0.0030
21659W        W37733   1.508   7.804  12.260  0.2377 -0.1226  0.3762
21660W        W37734  11.621  16.138  14.679 -0.0773  0.0872 -0.3486
21661W        W37735   4.485   4.579  12.298 -0.1035  0.2064  0.1046
21662W        W37736  10.645   5.636   4.730  0.2967 -0.2909  0.1626
21663W        W37737   6.235   9.268   4.661 -0.0110  0.2964  0.1669
21664W        W37738  13.083  17.103   1.654  0.2823  0.0860  0.0447
21665W        W37739   2.130   0.230   4.254  0.2266  0.0390  0.0232
21666W        W37740  13.283  17.901  15.772  0.2577 -0.0717  0.0168
21667W        W37741   5.906   2.849  11.367  0.2645 -0.0279  0.0228
21668W        W37742   8.676   9.829   5.041 -0.2076  0.2348  0.1649
21669W        W37743  10.345   8.164   1.133  0.2754 -0.0118  0.3392
21670W        W37744   0.471   1.505  13.676 -0.1135  0.1547  0.1885
21671W        W37745   4.716   8.093  15.486 -0.0090  0.1815 -0.2783
21672W        W37746   4.955   0.311  13.408  0.2710  0.1285  0.0396
21673W        W37747  12.133  14.253  12.030 -0.0414 -0.0621  0.1998
21674W        W37748  16.272  13.040   4.136 -0.3223  0.3544  0.0859
21675W        W37749  18.199   5.126  13.780 -0.0754 -0.3845  0.2480
21676W        W37750   6.132  16.429  14.225 -0.0760 -0.1160  0.1164
21677W        W37751   1.890  18.111  15.487  0.0039  0.0577  0.0887
21678W        W37752   5.235   6.804   1.659  0.1134 -0.0583  0.2121
21679W        W37753  12.375  11.599   4.082  0.1130  0.0118  0.0464
21680W        W37754   1.258   5.075   0.518  0.0564  0.0762  0.1524
21681W        W37755  17.300   7.064   1.709 -0.3478 -0.1776  0.3207
21682W        W37756   3.496  17.679  12.855 -0.0301  0.2178 -0.0358
21683W        W37757  14.880   3.952  11.596 -0.1741 -0.0006 -0.3940
21684W        W37758  12.202   1.719   1.881 -0.2237 -0.0464 -0.1216
21685W        W37759   8.499   9.517  15.288 -0.2371 -0.0088  0.5839
21686W        W37760   7.543  17.172  14.797 -0.0365  0.3271 -0.1393
21687W        W37761   2.951   5.065   4.106 -0.1300 -0.0157  0.6042
21688W        W37762  12.819   1.359   4.236  0.3090 -0.1312  0.2021
21689W        W37763  15.048   4.304  11.948 -0.1511 -0.0009  0.0345
21690W        W37764   9.215   8.472   5.939 -0.0098 -0.0237  0.1542
21691W        W37765   8.399   8.256  14.813 -0.1126  0.0822 -0.4478
21692W        W37766   4.999   9.880   4.331 -0.1027  0.0549  0.2585
21693W        W37767   7.057  17.651  12.213 -0.0989  0.0922 -0.1156
21694W        W37768  12.458   9.524   4.918 -0.1782  0.1188  0.3627
21695W        W37769   8.858   8.026  12.605 -0.0899 -0.0320 -0.1393
21696W        W37770  16.993   2.759  14.190 -0.4333 -0.2198  0.3111
21697W        W37771   2.134  15.823   3.897 -0.1548  0.1410  0.1552
21698W        W37772  18.086   7.154   3.028 -0.1526  0.1037  0.0888
21699W        W37773   9.505   6.205  13.171  0.1679 -0.1739 -0.1149
21700W        W37774   8.548  17.805   1.163  0.2026 -0.2134  0.2879
21701W        W37775  10.417  13.072  12.949 -0.2392 -0.2114  0.1308
21702W        W37776  17.515   7.613  15.107 -0.2078 -0.1820 -0.0544
21703W        W37777  14.290   0.001   3.072 -0.1502 -0.3419  0.2472
21704W        W37778   4.240   2.444  14.619 -0.0531  0.0745  0.0398
21705W        W37779  16.502   5.314   1.025 -0.2003  0.0122  0.0108
21706W        W37780   7.232   8.264  11.068  0.1192 -0.0635  0.0801
21707W        W37781  16.837   3.428  16.211 -0.0300  0.0244 -0.1430
21708W        W37782  15.557   8.322  15.524  0.2865 -0.0722 -0.0379
21709W        W37783   4.953   2.022  15.613 -0.2790  0.2010 -0.1779
21710W        W37784   2.258   8.720  13.572  0.0735 -0.1897  0.0905
21711W        W37785   7.048  17.850  16.312 -0.2178  0.0264 -0.1787
21712W        W37786   6.835  17.744   2.586 -0.1093  0.2896 -0.0913
21713W        W37787   1.239  17.430  12.355  0.0589  0.2149 -0.0971
21714W        W37788   7.795  11.109  14.608  0.0373 -0.2403 -0.0873
21715W        W37789  13.997   3.820   4.509  0.5004 -0.3551 -0.0080
21716W        W37790   1.390   6.275   4.446  0.1412 -0.0084 -0.1503
21717W        W37791   3.841  17.348   3.857 -0.0760 -0.1417 -0.0639
21718W        W37792   2.406   7.727   3.631  0.2403 -0.0261  0.1130
21719W        W37793  14.852  13.600   4.871 -0.2128  0.0231 -0.0861
21720W        W37794   2.551  10.405  14.354 -0.0774 -0.0168  0.0792
21721W        W37795  17.204   7.559  14.448  0.1134  0.0154  0.1868
21722W        W37796  11.312  12.820  13.000  0.0938 -0.1970 -0.1685
21723W        W37797  15.809   1.482   1.193  0.1189 -0.2624  0.0998
21724W        W37798   4.743   2.768  12.917 -0.2791  0.0397  0.0684
21725W        W37799   1.090   7.490  13.290 -0.0119 -0.2147  0.0699
21726W        W37800   9.023  10.429   1.994  0.2931  0.1371  0.0919
21727W        W37801   3.137  10.817   0.431  0.2297 -0.2882 -0.0133
21728W        W37802  12.331  11.433  12.528 -0.1912 -0.2712  0.0437
21729W        W37803   9.537   0.517  12.696  0.1947  0.0803 -0.1022
21730W        W37804  15.543   6.215  14.902 -0.2568 -0.0156 -0.0714
21731W        W37805  12.958   1.818  14.926 -0.0413 -0.1444  0.4139
21732W        W37806  17.730   9.699  13.439 -0.0239  0.2615  0.0608
21733W        W37807  15.190  17.487   2.860  0.2085  0.2953  0.1174
21734W        W37808  15.576   9.822   2.950 -0.2203 -0.0877 -0.1582
21735W        W37809  17.331  15.079   1.773  0.1082 -0.1429  0.0621
21736W        W37810   4.458   3.443  15.714 -0.0500 -0.2034 -0.0794
21737W        W37811  10.336   2.947  14.813 -0.3235 -0.1325  0.0475
21738W        W37812  16.562  10.305   4.872 -0.4264  0.2342 -0.0890
21739W        W37813   9.985   4.479   4.113  0.0098 -0.0866 -0.0769
21740W        W37814   2.367   8.011   1.167  0.4527  0.1426  0.1227
21741W        W37815  13.397  11.201   1.204  0.2411 -0.1899 -0.3440
21742W        W37816  11.065  17.067   0.345  0.1865  0.0984 -0.0981
21743W        W37817   6.566   3.592  13.504  0.0818 -0.1716  0.2422
21744W        W37818  16.899   2.929   5.297  0.1034 -0.0650 -0.0601
21745W        W37819  12.298  17.900  11.398  0.2140 -0.0533 -0.1197
21746W        W37820  14.337   4.090   1.536 -0.0844 -0.1295 -0.0065
21747W        W37821   4.671  15.419  11.892  0.3835 -0.2803  0.0440
21748W        W37822   3.911  15.996  14.437  0.2418  0.2767  0.1378
21749W        W37823  12.150   2.428  14.082 -0.0629 -0.0639 -0.2211
21750W        W37824   1.881  14.180   2.243 -0.0016  0.0079  0.1913
21751W        W37825   4.438   6.076  11.941 -0.0015  0.0078  0.1763
21752W        W37826  12.285  11.849   5.628 -0.0728  0.0371 -0.3454
21753W        W37827  12.920  16.365   4.650  0.1333 -0.0732  0.3281
21754W        W37828   8.826  13.534  12.307  0.0367 -0.2039  0.2603
21755W        W37829  15.142  12.349   2.044 -0.6386  0.0727  0.1184
21756W        W37830  16.214  13.973   4.473 -0.2600 -0.2693 -0.0725
21757W        W37831  16.951  14.083  13.302  0.0087  0.1869 -0.2824
21758W        W37832   8.374   5.204   1.494 -0.0948  0.1342 -0.1077
21759W        W37833   6.430   1.910  13.468 -0.0308  0.0956 -0.0127
21760W        W37834   1.905   2.758  14.166 -0.0869  0.0160 -0.3351
21761W        W37835   8.196   3.271  12.161  0.3194 -0.1905 -0.1586
21762W        W37836  12.793  15.646  13.018  0.0604 -0.0105  0.0346
21763W        W37837  11.828   4.710  14.693 -0.2148  0.0752 -0.2556
21764W        W37838   6.869  13.885   5.146 -0.1556 -0.0963 -0.3184
21765W        W37839   3.020  15.374  15.004 -0.1590  0.0647 -0.2453
21766W        W37840  11.771   3.471   0.550  0.0223 -0.0053 -0.3543
21767W        W37841   8.325   2.810   2.894 -0.3465  0.0992  0.1691
21768W        W37842  15.724   0.804  15.311 -0.0111  0.1796  0.3024
21769W        W37843   2.869  17.155  13.206 -0.0984 -0.1897 -0.1153
21770W        W37844   7.383   6.160  15.789 -0.1197 -0.2653 -0.5920
21771W        W37845  16.432   1.702  16.348  0.1231  0.0331  0.1388
21772W        W37846  10.559   8.706   2.880  0.3316 -0.1510 -0.2873
21773W        W37847  16.796   5.959   4.737 -0.4553 -0.1072  0.0427
21774W        W37848  16.047   2.341   2.428 -0.0427 -0.2046 -0.0387
21775W        W37849   5.932  11.560  12.455 -0.2749  0.1492  0.2777
21776W        W37850   9.182   4.976   4.429  0.0018  0.2342  0.2954
21777W        W37851  12.003  13.429  11.751 -0.0682  0.1508 -0.0366
21778W        W37852  12.002   7.990  14.521 -0.2917 -0.0849 -0.0134
21779W        W37853   7.516   3.959  12.546 -0.0849 -0.0721 -0.2112
21780W        W37854   6.190  11.554   5.066  0.1240 -0.3944 -0.1225
21781W        W37855   3.977   8.152   4.228  0.1427  0.2062  0.2560
21782W        W37856   1.313   7.246  16.009  0.0339  0.2337  0.1016
21783W        W37857   3.092  14.532  13.468  0.0814 -0.2748 -0.0218
21784W        W37858   6.718  14.768  14.338 -0.1087 -0.2972 -0.0607
21785W        W37859  16.751   8.027  12.562  0.0595 -0.2001 -0.1454
21786W        W37860   1.633  16.082   1.248  0.2537 -0.2661  0.0954
21787W        W37861   9.947   4.200  14.804  0.1222 -0.4851  0.1973
21788W        W37862  16.331  11.866   5.467 -0.0224  0.1869  0.0193
21789W        W37863  17.595   3.309   2.947 -0.1687  0.1000  0.2283
21790W        W37864   9.842   8.824  13.287 -0.0496 -0.0264 -0.0268
21791W        W37865  11.076   8.489  11.953  0.4928 -0.2725  0.0755
21792W        W37866   3.243  13.494  12.176  0.1359 -0.1228  0.0395
21793W        W37867   9.069   3.680   4.892  0.1537 -0.1018  0.1523
21794W        W37868   8.024   8.086   2.554 -0.2882 -0.1104  0.0399
21795W        W37869   0.287   5.937   2.866  0.1208  0.5414 -0.1437
21796W        W37870   9.136   9.467   6.423 -0.1790 -0.0621 -0.0964
21797W        W37871   7.046   5.766  12.105 -0.0336  0.2362 -0.1431
21798W        W37872   4.778   4.618  11.419  0.0917 -0.1044  0.2018
21799W        W37873  16.980  14.924  11.768 -0.2585 -0.3271 -0.1920
21800W        W37874   5.799   7.995  13.068 -0.1443  0.1279 -0.1202
21801W        W37875  11.553  13.286   4.911 -0.2432  0.2386 -0.2436
21802W        W37876  14.435   4.616  14.337 -0.0026  0.4237 -0.2158
21803W        W37877  10.316  14.130   3.874  0.4563 -0.1359 -0.1538
21804W        W37878  14.333   9.850   0.175  0.1721 -0.1094 -0.0035
21805W        W37879  16.198  16.355   3.997 -0.0726 -0.1484 -0.4335
21806W        W37880  15.027  16.883   3.751  0.0926 -0.0594  0.3706
21807W        W37881  12.184   3.652   0.171  0.3435  0.1018  0.1704
21808W        W37882   8.413  11.907  12.220 -0.1574 -0.3804 -0.2129
21809W        W37883  10.459  11.926   3.963  0.0515 -0.0225  0.1761
21810W        W37884  11.352  12.959  16.373  0.0602 -0.3660 -0.2225
21811W        W37885   0.679   3.330  15.163 -0.1757  0.2316 -0.3478
21812W        W37886   7.053  11.992   4.568 -0.0785  0.2598  0.0072
21813W        W37887  11.821  12.851   4.491 -0.1865  0.1137  0.0055
21814W        W37888   3.244  14.040  14.543 -0.1760  0.2838  0.0369
21815W        W37889  10.858  12.126  11.791 -0.0199  0.0279 -0.0672
21816W        W37890   0.780  18.027  10.705 -0.1542 -0.0589 -0.2440
21817W        W37891   6.149   5.215   1.838 -0.2956  0.0991  0.2454
21818W        W37892   7.277   1.604  15.466  0.1841  0.4280 -0.0775
21819W        W37893  14.229   9.607   4.434 -0.0712 -0.2828  0.1357
21820W        W37894  17.112   6.676  11.698 -0.1411 -0.2185 -0.2038
21821W        W37895   7.489  12.972  14.870  0.1009 -0.1460 -0.1530
21822W        W37896   8.843   8.008   0.301 -0.0274  0.4427  0.3137
21823W        W37897   0.664  14.442   5.323  0.0640 -0.4000 -0.3819
21824W        W37898   1.582  11.515   5.310  0.1014  0.3190  0.3296
21825W        W37899   6.653  13.679   0.900  0.1264  0.0732 -0.1633
21826W        W37900  13.290  13.662  15.309 -0.1270  0.1706  0.0457
21827W        W37901   6.662   7.313  14.092 -0.1785  0.0407 -0.0128
21828W        W37902   5.048  18.162   1.400  0.1736  0.0174  0.2757
21829W        W37903   4.584   1.849   0.125 -0.1271  0.0892 -0.0769
21830W        W37904  14.355  11.562   1.751  0.1009  0.2179  0.4942
21831W        W37905   6.764  16.433  15.338 -0.2186 -0.3723  0.3112
21832W        W37906   8.173  16.587   1.614 -0.2057 -0.0503  0.3292
21833W        W37907  16.782   1.819   1.230 -0.1713  0.3316  0.5772
21834W        W37908   6.561  16.732   0.211 -0.3268  0.0422  0.1742
21835W        W37909   2.883  13.115   3.844 -0.0772 -0.2924  0.1373
21836W        W37910   5.851  15.775  13.114 -0.1273 -0.0449 -0.1039
21837W        W37911   3.219  14.402  15.219  0.2091  0.0196 -0.0179
21838W        W37912   1.819  14.602  12.695 -0.2031 -0.1137 -0.0214
21839W        W37913  13.424  14.855  14.606  0.2677 -0.1310 -0.1470
21840W        W37914   7.165  13.875   2.607  0.1451 -0.6063  0.0853
21841W        W37915   8.549   3.301  15.451  0.1438  0.3488 -0.1943
21842W        W37916   2.824   4.324   2.985 -0.0353 -0.2791 -0.2120
21843W        W37917  14.780   6.242   0.529  0.0750 -0.0132 -0.0122
21844W        W37918  10.143  11.690   4.833 -0.0644 -0.0283 -0.0555
21845W        W37919   5.721  14.895  13.639 -0.2943 -0.0309  0.0622
21846W        W37920  16.263   2.137  14.501 -0.4685  0.2336 -0.0377
21847W        W37921   5.758   9.659   2.629 -0.0555 -0.0821 -0.0256
21848W        W37922   7.275  12.703   1.725  0.0581  0.1344  0.1317
21849W        W37923   2.292  10.330  13.679 -0.0774 -0.2847 -0.0540
21850W        W37924   2.756  15.991   0.936  0.0223  0.0488 -0.1343
21851W        W37925  13.754  14.887   5.437  0.1533 -0.0212  0.1423
21852W        W37926  11.642   8.289   2.193  0.3238 -0.1053  0.0438
21853W        W37927  13.419  14.725  11.803 -0.0784 -0.2756  0.1110
21854W        W37928   1.183  18.304   2.946  0.1334 -0.1753 -0.3637
21855W        W37929   8.055  10.975   0.487  0.1720 -0.0420 -0.2432
21856W        W37930  18.088   9.854   3.258 -0.4853 -0.0291  0.0386
21857W        W37931  17.366   1.683  12.522 -0.0424  0.0370 -0.0431
21858W        W37932   9.160   9.034   5.794 -0.0801  0.0227  0.2635
21859W        W37933  13.387   4.639   3.004  0.2444  0.0227  0.0301
21860W        W37934  13.186  16.303  12.310 -0.3711  0.1783  0.1020
21861W        W37935  17.940   6.917  14.085  0.3193 -0.1740  0.1424
21862W        W37936  18.216  10.700  13.513  0.0143 -0.1137 -0.1417
21863W        W37937   2.074  15.164   1.424  0.0350  0.1698 -0.0460
21864W        W37938   2.475   3.599   1.571 -0.1416 -0.0792 -0.1554
21865W        W37939  17.008   5.177   0.180 -0.5171 -0.3351 -0.2693
21866W        W37940  17.364   7.164   0.018  0.1700 -0.0001  0.0037
21867W        W37941  12.932   3.462   0.598  0.0381  0.1706  0.1257
21868W        W37942   4.308  11.138   1.800  0.2402 -0.3249 -0.0396
21869W        W37943   9.920   1.535   3.808  0.0108 -0.1046  0.2271
21870W        W37944   3.514  17.027   5.046  0.0855  0.2214  0.1497
21871W        W37945  18.144   4.810  14.950  0.3753 -0.0132  0.2428
21872W        W37946  17.007   7.498   5.115 -0.0066  0.0713 -0.0027
21873W        W37947   9.033  17.906  13.348 -0.3942 -0.2097 -0.0101
21874W        W37948  12.596   4.570   1.970 -0.0603 -0.0337 -0.2316
21875W        W37949   9.996   4.886  13.056 -0.3537 -0.0337 -0.0643
21876W        W37950   1.421  13.853  14.118  0.0146  0.2914  0.0662
21877W        W37951   3.298   7.232   1.210  0.0871  0.1862 -0.1014
21878W        W37952  14.406   9.927  11.982  0.1820  0.0987  0.0218
21879W        W37953   2.679   7.267  11.075  0.0017 -0.0454 -0.0300
21880W        W37954   7.539   3.484  15.924  0.0338  0.0850  0.0821
21881W        W37955  16.517  14.979  12.002  0.2899  0.0197  0.4204
21882W        W37956   5.384   8.115  13.696  0.4456 -0.1395  0.0386
21883W        W37957   6.126   3.307  15.688 -0.0764  0.1787  0.2117
21884W        W37958   7.525   3.398  15.347 -0.1530  0.1173 -0.1057
21885W        W37959  12.666  15.821  11.660  0.1665  0.0261  0.0335
21886W        W37960  15.922   4.587   3.596 -0.1669  0.2441 -0.0108
21887W        W37961  14.658   7.957  11.590 -0.1858 -0.0007  0.1326
21888W        W37962   3.941   2.867  12.325  0.1308 -0.3105 -0.2578
21889W        W37963   0.336   3.836   6.123 -0.1034 -0.1411 -0.3057
21890W        W37964   0.535  17.692   5.066 -0.2171  0.0259 -0.2878
21891W        W37965   7.942  16.864   0.136 -0.1068 -0.1490 -0.0628
21892W        W37966   2.702   0.724   3.173  0.0929  0.0158 -0.1622
21893W        W37967  14.748   1.261  13.006 -0.0349  0.1043 -0.1147
21894W        W37968   7.275  15.908   5.582  0.0561  0.1102 -0.4419
21895W        W37969   4.858   4.752  15.838  0.1416  0.6624 -0.0698
21896W        W37970   2.167   6.693  14.545 -0.2678  0.2897 -0.2464
21897W        W37971   2.952  14.103   4.894 -0.0489  0.2083  0.0237
21898W        W37972   6.568   5.363  14.477  0.2170 -0.0224  0.1989
21899W        W37973   1.050   8.929   3.266  0.1124  0.1293 -0.0051
21900W        W37974   0.826  10.264  14.598 -0.4188 -0.0058 -0.1223
21901W        W37975   5.915  16.894  14.218  0.4212  0.1554 -0.0226
21902W        W37976   0.386  12.513   3.766 -0.0969  0.0162 -0.1476
21903W        W37977   0.229  13.524  12.325  0.0451 -0.1461  0.0900
21904W        W37978   1.372   4.020  15.492 -0.1948  0.1930  0.1138
21905W        W37979  16.545   2.924  15.148  0.0266  0.1132 -0.1191
21906W        W37980  15.911   6.942   4.962 -0.0302 -0.0713 -0.0756
21907W        W37981  12.821   2.174   4.035  0.0578  0.3869  0.0918
21908W        W37982  15.912   6.123  14.500 -0.0052 -0.0230 -0.1255
21909W        W37983   6.502   1.638   5.053 -0.0064  0.0130  0.2801
21910W        W37984  18.022  16.116  15.905 -0.0837 -0.1039  0.2424
21911W        W37985   1.375  15.445   4.796  0.2774 -0.2713  0.2438
21912W        W37986  12.056   2.184   3.462  0.1625 -0.1436  0.0233
21913W        W37987  15.704   2.873   2.988 -0.0656  0.1071 -0.0820
21914W        W37988  13.840  11.124  12.437 -0.1892  0.1335 -0.0513
21915W        W37989  11.845  12.418   1.182  0.0054  0.3313  0.0657
21916W        W37990   4.719   7.971  14.629 -0.1951  0.1962  0.1377
21917W        W37991   4.650   5.384   4.853  0.0019 -0.0671 -0.0642
21918W        W37992   7.559   9.818   6.011 -0.0233  0.1379  0.1868
21919W        W37993   6.991   7.697   1.780  0.0812 -0.1153  0.2416
21920W        W37994  15.179   4.270   0.114  0.1299  0.2119  0.3703
21921W        W37995   6.517   7.015  16.288 -0.0223  0.0816 -0.1517
21922W        W37996   7.924   3.067  14.500  0.1703 -0.1669 -0.1530
21923W        W37997  16.223   7.813   4.018 -0.2474  0.3112  0.2379
21924W        W37998  14.376  17.848  14.765 -0.1964  0.1892 -0.0995
21925W        W37999   0.448   4.836   1.866 -0.0088 -0.3296 -0.0534
21926W        W38000   2.048  14.632  13.414  0.4054 -0.0206  0.1071
21927W        W38001  15.821   5.929   4.763  0.4170  0.0965 -0.0097
21928W        W38002  14.653  16.483  14.726  0.1779 -0.0505  0.0900
21929W        W38003   4.688  10.190  12.609  0.0183  0.2694 -0.1662
21930W        W38004   7.432  16.834  16.356 -0.0078  0.1952  0.2887
21931W        W38005   6.176   3.494  12.258  0.2999 -0.0652  0.1191
21932W        W38006   4.976   0.355  15.085  0.0370 -0.1330  0.0072
21933W        W38007   8.352   6.071   2.914  0.2033  0.1927  0.2117
21934W        W38008  15.408   4.989  14.109 -0.0222 -0.0085 -0.1471
21935W        W38009  14.405  15.521   3.535 -0.3075 -0.0530 -0.2556
21936W        W38010   7.514   8.795   3.597 -0.0646 -0.0989 -0.3308
21937W        W38011   7.834  17.755   3.646  0.0143  0.3133 -0.3309
21938W        W38012   4.066   8.567  14.222 -0.1727  0.1584 -0.2559
21939W        W38013   0.208  10.528   2.892 -0.3386 -0.0343  0.2131
21940W        W38014   4.439  10.485  15.727 -0.0268 -0.0803 -0.0978
21941W        W38015   9.833  17.906   5.504  0.0041 -0.3582  0.3597
21942W        W38016   6.040  10.373   1.476  0.0229  0.2347 -0.1185
21943W        W38017  11.820   8.227   5.096  0.3479  0.1535  0.1108
21944W        W38018   4.163  15.827  15.932 -0.0063 -0.4797 -0.0225
21945W        W38019   6.650   9.521  15.220  0.3015  0.0839 -0.0210
21946W        W38020  12.717   3.598  13.312  0.2181 -0.1148 -0.1002
21947W        W38021   2.303  18.185   1.941  0.1673 -0.1113 -0.0623
21948W        W38022   6.381   4.119   5.620  0.1649 -0.0636  0.0276
21949W        W38023   3.435  16.271   1.040  0.0454  0.1996 -0.0653
21950W        W38024  16.349  14.572  16.195  0.1039  0.0184  0.1276
21951W        W38025  16.542  10.423   2.353  0.3108 -0.3350 -0.3557
21952W        W38026  12.659   8.247   5.530 -0.2193  0.1415  0.0658
21953W        W38027  16.157   1.706  12.922  0.0208 -0.0333  0.0871
21954W        W38028  14.965  16.189  13.366  0.1391 -0.0946  0.0020
21955W        W38029   1.725  10.823  12.205  0.1151 -0.1203  0.1385
21956W        W38030   9.163  13.935  12.084  0.3715  0.0990 -0.0203
21957W        W38031   7.343   3.663   0.048 -0.1621 -0.2280  0.1050
21958W        W38032   4.997   7.888   4.212 -0.0800  0.2444  0.4274
21959W        W38033   0.468  11.054   2.216 -0.1983 -0.1822  0.1769
21960W        W38034   5.695  14.260   4.971 -0.0377 -0.0068 -0.5409
21961W        W38035   6.198  17.914   4.909 -0.1844  0.1469  0.5824
21962W        W38036   8.154  15.170   5.668 -0.0494 -0.2238 -0.0692
21963W        W38037  15.553  10.522  11.722  0.1157 -0.0434  0.0051
21964W        W38038  12.936  16.015   5.523 -0.2234  0.0366 -0.0109
21965W        W38039   7.787   7.292  12.991 -0.0588 -0.1130 -0.0881
21966W        W38040   9.019  16.439  14.422 -0.0404  0.2391 -0.0093
21967W        W38041  10.399  12.097  14.550  0.2474 -0.1964 -0.2316
21968W        W38042   2.539  11.469   2.206 -0.1571 -0.2516  0.0196
21969W        W38043   6.964  15.031  16.314 -0.0579 -0.1634 -0.0560
21970W        W38044   6.427   0.214   0.178  0.0398 -0.1621  0.2983
21971W        W38045  11.605   2.230   4.602  0.0186 -0.0804  0.2692
21972W        W38046   1.173  15.868   4.632  0.3776 -0.1765  0.2296
21973W        W38047   5.982   3.783  13.646 -0.1776 -0.1378  0.2462
21974W        W38048   1.478  13.783   5.521 -0.4007 -0.0632 -0.0888
21975W        W38049   4.228   8.994  13.704 -0.0215  0.1510  0.2635
21976W        W38050   7.239  15.548  16.202  0.1352 -0.0294  0.2096
21977W        W38051  15.371   6.895  13.981 -0.1250  0.0893 -0.3423
21978W        W38052   2.495  13.986   1.072 -0.3136 -0.0289  0.0319
21979W        W38053  12.514   0.463  10.875 -0.0449 -0.1989 -0.1644
21980W        W38054  16.735   4.511  13.283 -0.1459 -0.0897  0.2420
21981W        W38055  18.169   7.965   2.619 -0.2656 -0.1694 -0.0173
21982W        W38056   8.179  14.771   5.966  0.0378 -0.4094  0.0791
21983W        W38057  16.767   8.782   0.485 -0.1420  0.0179 -0.0845
21984W        W38058   2.887  10.678  11.665  0.2932 -0.1091 -0.0605
21985W        W38059   2.129  17.479   3.648 -0.0721 -0.1345 -0.0490
21986W        W38060  13.484   4.335  15.974 -0.0981  0.1889  0.0547
21987W        W38061  10.154   5.029   2.757  0.3043  0.0378  0.2162
21988W        W38062   8.495   8.721   2.420  0.2113 -0.4373  0.2975
21989W        W38063   6.800   9.530  15.672  0.2795  0.0453 -0.0669
21990W        W38064   9.133   4.102  11.613 -0.1083  0.0513  0.0761
21991W        W38065   5.790   6.245   3.231  0.1045  0.0174 -0.1491
21992W        W38066   3.426  13.996   4.056  0.0210  0.0213 -0.2982
21993W        W38067   7.286   3.015  14.701  0.2894  0.3448  0.0011
21994W        W38068   1.707   0.613   3.580 -0.2226  0.1276  0.0475
21995W        W38069   7.907   1.191  11.092  0.2457  0.1937 -0.4558
21996W        W38070   5.951  10.500   3.143 -0.2813  0.1082 -0.2389
21997W        W38071  17.800  16.952  15.604  0.1230  0.0442 -0.2162
21998W        W38072   7.605  13.451  12.712 -0.4650 -0.1749 -0.1141
21999W        W38073   5.883   0.847  15.976 -0.2410 -0.1531 -0.0962
22000W        W38074   9.150   3.929   2.749  0.3260 -0.2818 -0.0507
22001W        W38075   3.060   9.988  15.018 -0.0862  0.3852  0.2291
22002W        W38076  12.171  13.135  14.462 -0.0072  0.0253 -0.0509
22003W        W38077  10.083  16.664  14.791 -0.0557  0.2890 -0.0868
22004W        W38078   7.999  14.156   2.133  0.1753  0.0479 -0.2962
22005W        W38079  17.308  10.159   1.317 -0.3401  0.1874  0.0352
22006W        W38080   1.911   7.001  14.260  0.1419 -0.2147  0.1475
22007W        W38081  12.664   5.800  15.059  0.2431  0.0793  0.2415
22008W        W38082  15.121   8.253  14.762  0.1368 -0.2536 -0.1154
22009W        W38083   6.760   8.406   3.211  0.1255  0.0968  0.2378
22010W        W38084  11.465   4.867  14.128 -0.0296  0.0125  0.1385
22011W        W38085  11.597   2.248   1.066  0.0557 -0.0216 -0.0401
22012W        W38086  15.546   0.618  16.184 -0.1414 -0.0721  0.0652
22013W        W38087  17.609   0.443   0.309 -0.2371  0.2151  0.3172
22014W        W38088   9.087  13.777   3.569 -0.0547  0.0204  0.3629
22015W        W38089   7.593  14.273   4.135  0.0504 -0.3190 -0.0562
22016W        W38090  15.292  13.424   5.119 -0.1847 -0.1832  0.1804
22017W        W38091   5.506   0.254  15.466 -0.0135 -0.2538 -0.0799
22018W        W38092   4.778   7.434  12.853  0.0682  0.1419 -0.2368
22019W        W38093   4.845   6.515   2.070  0.0875  0.0874  0.1509
22020W        W38094   3.166   3.013  15.540  0.3059 -0.1134  0.1288
22021W        W38095   1.912   0.691   3.027 -0.0407  0.0075 -0.0855
22022W        W38096   2.697  17.040   1.257  0.2725 -0.1439 -0.1873
22023W        W38097  11.892   4.913   1.219 -0.1929  0.0511 -0.1566
22024W        W38098   2.319   4.486   2.526  0.0539  0.4280  0.4606
22025W        W38099  11.830  12.628   1.662  0.2204 -0.0617 -0.2122
22026W        W38100  15.998   0.635  15.938 -0.1143 -0.3067  0.2954
22027W        W38101   3.051  15.363   3.929 -0.0802  0.0112  0.1210
22028W        W38102   6.622  14.229  13.167  0.1412  0.1901 -0.0408
22029W        W38103   4.365   9.676  14.869 -0.0940  0.3279 -0.2286
22030W        W38104   8.769   5.027   0.689 -0.0911 -0.0662  0.1703
22031W        W38105   7.701   9.930  11.859  0.1883  0.1296  0.0965
22032W        W38106   0.539   3.296  13.986 -0.3578  0.0912  0.1627
22033W        W38107   1.133  17.538   4.759  0.0245  0.2567 -0.3035
22034W        W38108  12.644  13.077   0.429  0.0868 -0.2024 -0.1085
22035W        W38109   8.581   3.062  16.234 -0.0041  0.2191 -0.3631
22036W        W38110  11.525   4.997  11.676  0.0418 -0.0206  0.1276
22037W        W38111   3.722  17.515   0.397  0.1819 -0.2208 -0.1018
22038W        W38112   8.842   1.702  12.388 -0.1026  0.1259 -0.2433
22039W        W38113  14.574  14.033  12.169 -0.0352 -0.1578  0.2457
22040W        W38114   5.395   4.906  10.074 -0.0493 -0.0456 -0.2054
22041W        W38115   1.969  10.699  14.499  0.1900  0.0826 -0.1046
22042W        W38116  17.756   2.846   2.652  0.0157  0.1028 -0.0532
22043W        W38117  16.600  17.222  11.984 -0.0407 -0.1354  0.3412
22044W        W38118   6.380   9.581   1.182  0.0889 -0.0925 -0.0599
22045W        W38119  16.095   5.275   2.358 -0.0730  0.2014  0.0591
22046W        W38120  17.909   0.266   1.432 -0.1163 -0.2697 -0.2695
22047W        W38121   9.040   7.312  12.918 -0.0092 -0.0439 -0.1174
22048W        W38122  14.610   8.607  13.917  0.1998  0.5008  0.0933
22049W        W38123   4.805   6.351   5.352  0.0347  0.0644 -0.0904
22050W        W38124  12.191   9.451   4.034  0.0066  0.0798  0.1333
22051W        W38125   4.821  12.786   0.910 -0.1753  0.0396 -0.0298
22052W        W38126  13.231   4.720   2.414 -0.1399  0.1126  0.0681
22053W        W38127  17.686  15.271  14.703 -0.4683  0.2537 -0.2283
22054W        W38128  10.479   2.728   5.125  0.0053  0.2089  0.2903
22055W        W38129   2.419   1.847  13.219 -0.2696  0.3280  0.0416
22056W        W38130  16.604   4.152  12.443 -0.2009 -0.2532  0.4135
22057W        W38131  12.435  17.551   5.805 -0.1260 -0.0602 -0.0976
22058W        W38132  12.063   1.658   4.229 -0.0812  0.0143  0.1010
22059W        W38133   2.003   5.112  12.883 -0.0132  0.0820 -0.1456
22060W        W38134  13.180  13.631   5.541 -0.0078 -0.0998 -0.1412
22061W        W38135   7.921  11.740  12.367  0.2897  0.2238 -0.1004
22062W        W38136  16.289   6.191   1.989  0.3559  0.3197  0.3650
22063W        W38137   8.527   9.142  14.927  0.3150  0.1677 -0.0170
22064W        W38138  15.374   4.042   3.283  0.0703 -0.0417  0.0645
22065W        W38139   8.935  11.820  12.429 -0.3357 -0.1477 -0.0878
22066W        W38140   8.356   4.412  11.901 -0.2725 -0.3968  0.3587
22067W        W38141  11.903   7.230  14.127  0.0442  0.2708  0.0450
22068W        W38142  11.137  13.516   3.291 -0.0248  0.4271  0.0650
22069W        W38143  14.930   2.783   3.789 -0.0193  0.2389 -0.2387
22070W        W38144   8.999  14.530  13.879 -0.3161  0.1632  0.0056
22071W        W38145  16.099   9.467  14.627 -0.0452 -0.4190 -0.0304
22072W        W38146   2.914   8.654   1.303 -0.1427 -0.0507  0.1430
22073W        W38147  11.403   7.215   2.699 -0.3611 -0.2447 -0.0266
22074W        W38148  18.004  14.974   5.445  0.2702 -0.3641  0.0305
22075W        W38149   3.890   5.921   2.453 -0.2865  0.2927 -0.2870
22076W        W38150  12.747   4.002  11.954 -0.1905  0.4773 -0.2613
22077W        W38151   8.177  17.456  13.302 -0.1607 -0.5530  0.1994
22078W        W38152  18.142   9.687   5.464 -0.2452 -0.0478 -0.0814
22079W        W38153   1.944  13.423  11.635  0.1460  0.0901  0.0098
22080W        W38154   6.593   7.403  15.894 -0.1750  0.3558 -0.1412
22081W        W38155  16.535   5.769   4.161 -0.3065 -0.4779 -0.2630
22082W        W38156  14.365  14.484   4.724 -0.1509 -0.0165 -0.3018
22083W        W38157  12.645  12.773   3.128 -0.1985  0.3472 -0.0843
22084W        W38158   5.434   7.578   1.402  0.0980  0.0050 -0.0515
22085W        W38159  13.722   1.785   4.496 -0.0649  0.1827 -0.2895
22086W        W38160   2.111  16.338   2.062 -0.2623  0.0508  0.3559
22087W        W38161   3.152  13.394  14.856  0.2293 -0.1078  0.0937
22088W        W38162   6.133   3.059   4.239 -0.2462 -0.0638  0.0834
22089W        W38163   7.492  13.758   4.928  0.0244  0.1043 -0.1890
22090W        W38164   0.891   6.809  14.466  0.0385 -0.0710  0.2591
22091W        W38165   1.813  12.131  15.229  0.1967 -0.0279  0.1246
22092W        W38166   9.137  16.542   0.569 -0.2514 -0.0764  0.1213
22093W        W38167  10.040  14.464  14.405  0.0500  0.1217 -0.0176
22094W        W38168   8.725  17.301  14.233  0.1547 -0.0591 -0.2368
22095W        W38169  18.101  16.092   5.374  0.0451 -0.0912  0.0342
22096W        W38170  14.956   0.258  14.432  0.0272 -0.1229  0.1118
22097W        W38171  13.653   6.110  12.156 -0.1997 -0.1597  0.1425
22098W        W38172  10.638   7.844  14.496 -0.0330  0.0225  0.2516
22099W        W38173  15.793  15.655  12.305  0.3418 -0.0491 -0.1843
22100W        W38174  17.400   4.186   1.108 -0.0910 -0.0179  0.0655
22101W        W38175  13.143  12.089   5.673  0.0563 -0.1922  0.0114
22102W        W38176   7.765  14.081  11.747 -0.2001  0.1452  0.1385
22103W        W38177  11.204  13.442   4.164  0.0402  0.0001  0.4528
22104W        W38178   3.012   2.919   2.083 -0.1566  0.0585 -0.0036
22105W        W38179  16.539  15.183   2.086  0.3167  0.2063 -0.2404
22106W        W38180  15.140  11.292  12.162  0.0282 -0.1216 -0.2694
22107W        W38181   0.007   6.988  13.055 -0.0108 -0.1653  0.0022
22108W        W38182  10.463  18.231  15.945 -0.2510  0.1326  0.2126
22109W        W38183   1.902  15.815   2.073  0.0018  0.0623  0.0100
22110W        W38184   0.019  10.359   5.290 -0.0380 -0.0496  0.0535
22111W        W38185  13.394  16.345  16.026 -0.0353  0.2005 -0.2584
22112W        W38186   0.400   4.536   3.624 -0.2748 -0.2502  0.1318
22113W        W38187   0.725   7.392   1.726 -0.3191  0.0797 -0.1511
22114W        W38188  12.077   2.640  14.954  0.0066  0.1228 -0.0648
22115W        W38189   2.424   3.964  15.748  0.1141  0.0802  0.0172
22116W        W38190   1.018   2.064  15.022  0.1288 -0.1002 -0.2031
22117W        W38191  12.299   4.395   5.125 -0.0927 -0.3018  0.2448
22118W        W38192  15.937   2.445  15.983  0.1706  0.0357  0.0017
22119W        W38193  14.603  17.800   3.685 -0.5012  0.0863 -0.2113
22120W        W38194   3.293  10.337   0.466 -0.0103 -0.1517  0.1339
22121W        W38195   3.471  18.162   5.103  0.0286 -0.2577 -0.2202
22122W        W38196  15.454   4.436   3.585 -0.1674  0.1713  0.2259
22123W        W38197   1.080   9.001  14.923 -0.2551  0.5348 -0.0616
22124W        W38198  12.165  11.733   3.678 -0.1257  0.1268  0.3609
22125W        W38199  16.873   1.014   5.081  0.2921 -0.1172  0.0833
22126W        W38200  12.140   8.636  11.922 -0.1293  0.0639  0.3867
22127W        W38201  15.186  14.386   5.484  0.3599  0.0448 -0.0722
22128W        W38202   5.871   3.250   3.610  0.0532  0.0912  0.2112
22129W        W38203  10.508   4.371  15.173 -0.0590  0.3423  0.0809
22130W        W38204  11.822  16.452   4.481  0.2264 -0.1338  0.1462
22131W        W38205  15.376  12.113   0.893 -0.0207 -0.0444  0.0298
22132W        W38206  18.064  13.634   2.368  0.0279 -0.4093 -0.3407
22133W        W38207  15.230   1.047   5.707 -0.0671  0.2905  0.0170
22134W        W38208   6.684  12.433  12.259  0.1337 -0.0460 -0.1811
22135W        W38209  15.350   7.988  14.302  0.1293  0.0214  0.1792
22136W        W38210   3.966  16.824   4.631  0.0762 -0.2168 -0.1563
22137W        W38211  16.524   8.864   4.431 -0.4626 -0.2007 -0.0933
22138W        W38212  16.009   9.237   1.626  0.2978  0.3029  0.0319
22139W        W38213  15.699   0.868   5.702 -0.1108  0.1159 -0.0099
22140W        W38214   1.400  13.434   2.319 -0.0278 -0.2929  0.0479
22141W        W38215   5.409   8.485  14.418  0.1067 -0.1512  0.2497
22142W        W38216  10.726  17.295   3.298 -0.0026 -0.1479  0.0229
22143W        W38217  15.989  13.450  14.359  0.0329 -0.1438 -0.3009
22144W        W38218   3.030   6.071   3.234  0.2214  0.2485 -0.1131
22145W        W38219   0.940  16.739  13.623  0.0456 -0.0084 -0.1087
22146W        W38220   8.565  14.122  16.078  0.0523 -0.5354  0.3408
22147W        W38221  17.339  13.519   0.254 -0.2313  0.0420  0.2431
22148W        W38222  10.217  15.643  11.487  0.0550 -0.1207 -0.2000
22149W        W38223   6.245   0.462  11.795 -0.0613 -0.2227  0.1434
22150W        W38224  12.924  13.474   2.960 -0.1825  0.3155  0.0546
22151W        W38225   3.535   7.152   1.641 -0.1751  0.2256  0.1166
22152W        W38226   8.159  12.115   4.451  0.1906 -0.0990  0.1054
22153W        W38227  14.959  12.626   2.443 -0.3343  0.1623 -0.0239
22154W        W38228   3.824  12.840  14.629 -0.2055  0.0514 -0.0324
22155W        W38229   5.790  15.241   3.539  0.3178  0.0813  0.1447
22156W        W38230  13.543   3.677   4.815  0.0644  0.0526 -0.0020
22157W        W38231   4.478   6.600  12.694  0.2262 -0.1438 -0.0397
22158W        W38232  11.402   7.748  11.990 -0.0246  0.0813  0.0050
22159W        W38233   5.378  16.839   2.003 -0.1387 -0.0094  0.0650
22160W        W38234   7.395   5.845  14.685  0.4148 -0.2283  0.0856
22161W        W38235   2.379  14.596  15.050  0.1399 -0.2755 -0.1610
22162W        W38236   9.696  17.185   0.999  0.0057 -0.3209  0.2930
22163W        W38237  11.341  15.080  15.667 -0.2837 -0.1552  0.0299
22164W        W38238   4.938   3.269   1.667 -0.0113 -0.2180 -0.0333
22165W        W38239  14.350  11.793  10.318 -0.4193  0.0925  0.1853
22166W        W38240  10.740  10.395  14.062  0.2140 -0.0119  0.0851
22167W        W38241  11.354  11.834   5.464 -0.1143  0.0868 -0.0163
22168W        W38242   3.877   6.692   5.026 -0.2310 -0.2931  0.1059
22169W        W38243   1.331  11.900  15.199  0.4279 -0.1600  0.0352
22170W        W38244   8.861  12.585   5.478  0.0394  0.0232 -0.2114
22171W        W38245   6.333   8.600   4.489 -0.2414 -0.3704 -0.0747
22172W        W38246  11.314  11.403   2.915 -0.0443  0.1385  0.1725
22173W        W38247   4.660   8.837   2.682 -0.0225  0.1376 -0.1789
22174W        W38248   5.338  15.083  13.907  0.1562 -0.0161 -0.2408
22175W        W38249  16.080  15.325   3.829  0.0317 -0.1831  0.0340
22176W        W38250  12.971  15.987  12.707  0.3172 -0.1767 -0.1649
22177W        W38251   6.213  12.980   4.085  0.0423 -0.1548  0.2293
22178W        W38252   4.265  15.529   2.984  0.0668  0.1349 -0.0567
22179W        W38253   4.946   1.524   3.939  0.0359 -0.2583 -0.0989
22180W        W38254   3.771   6.582  13.345  0.2076 -0.0744 -0.2509
22181W        W38255   1.502   3.391  15.899  0.1402  0.0143  0.1284
22182W        W38256  13.075  14.169   4.988 -0.0515  0.0875  0.4245
22183W        W38257  11.942   9.457   1.433  0.2269 -0.1573  0.0651
22184W        W38258  10.552   7.913   2.255  0.0088 -0.4341  0.0111
22185W        W38259   1.090   0.651   2.937  0.0443 -0.0480 -0.0781
22186W        W38260   3.564   6.433  12.932 -0.1089 -0.0139 -0.1688
22187W        W38261  13.710   0.659   5.285  0.0470 -0.3708 -0.1261
22188W        W38262   4.932   6.628  16.302  0.0845  0.2541  0.0284
22189W        W38263   1.156   4.898   4.162  0.1362 -0.3808 -0.1178
22190W        W38264  11.981  12.072   0.846  0.0531 -0.0322  0.2189
22191W        W38265  13.693   5.912   0.665  0.3565  0.5488  0.0013
22192W        W38266  11.115   4.445   3.563  0.0956 -0.1985  0.2606
22193W        W38267  14.492   0.364   5.758  0.2185 -0.0621  0.0410
22194W        W38268   1.581  17.212  12.106 -0.0562  0.0762 -0.1721
22195W        W38269   5.905   2.005  13.491 -0.0995 -0.1206 -0.1907
22196W        W38270   7.882  12.108   5.419 -0.0660 -0.1590 -0.2442
22197W        W38271   6.749   8.445  13.277 -0.1494 -0.1680  0.0204
22198W        W38272  17.295  18.285   5.541 -0.2088  0.0124  0.2306
22199W        W38273   9.309  17.138   2.191 -0.0680  0.0026 -0.0614
22200W        W38274   2.992  10.075   2.340 -0.0493  0.1039  0.0302
22201W        W38275  13.675   5.076   4.659  0.0040  0.1044  0.6221
22202W        W38276  15.360   9.558  14.265 -0.0980 -0.0399  0.0210
22203W        W38277  13.776  16.526  15.268 -0.0861  0.0037 -0.1007
22204W        W38278   8.941   8.938   4.542  0.0749  0.1201 -0.0285
22205W        W38279   5.137   1.993   1.707  0.2392  0.0281  0.0919
22206W        W38280   1.546  14.317   5.387  0.1928 -0.2209 -0.1460
22207W        W38281  15.899   8.567  12.183 -0.3519  0.2210  0.1942
22208W        W38282  12.226  16.802  15.997 -0.0969 -0.0342  0.0964
22209W        W38283   3.023  13.151   0.217  0.0779  0.0055  0.2868
22210W        W38284  11.501  16.468  13.345 -0.2591  0.0696  0.1795
22211W        W38285   5.332   7.218   2.565 -0.2431 -0.1071  0.2441
22212W        W38286   7.764  14.787   3.031 -0.0344 -0.0721  0.1536
22213W        W38287  17.856   9.517  15.998 -0.1374 -0.2420 -0.0432
22214W        W38288   4.064  14.929  11.485 -0.1391  0.3785 -0.2707
22215W        W38289   4.607  12.607   3.070  0.4078 -0.1381 -0.2132
22216W        W38290   5.590  11.742   0.338  0.2702 -0.2418 -0.2640
22217W        W38291   2.271  14.810  16.046 -0.4481 -0.3173 -0.0378
22218W        W38292  10.066   2.359   3.847 -0.2434  0.1928 -0.0318
22219W        W38293   9.757  15.830   3.554 -0.1947  0.1699 -0.1838
22220W        W38294  13.389  11.411   2.893 -0.1245 -0.0252  0.0102
22221W        W38295  13.810  16.159   5.238 -0.0576 -0.0767 -0.0380
22222W        W38296  13.481   3.603  11.344  0.1359 -0.0554 -0.2562
22223W        W38297   2.857   3.676   2.365 -0.1829 -0.2406  0.1071
22224W        W38298  12.435   4.901   0.302 -0.1735  0.0131  0.1164
22225W        W38299  13.579   5.648   2.449 -0.0204  0.2302 -0.1909
22226W        W38300  16.233  16.021   4.451  0.0585 -0.0617 -0.2217
22227W        W38301  14.964   5.895  14.166  0.0321 -0.2549 -0.2265
22228W        W38302   5.823   8.055   4.972 -0.0471 -0.3057  0.0039
22229W        W38303   7.000   9.534   0.663  0.0257 -0.2934  0.0506
22230W        W38304   2.227   9.539  13.854 -0.0447 -0.1125 -0.1543
22231W        W38305   6.969   5.783  15.826 -0.0407  0.1139 -0.0318
22232W        W38306  18.138  17.397  14.358  0.2119 -0.1463  0.0241
22233W        W38307   7.277   3.516  12.239  0.2136  0.3022 -0.2074
22234W        W38308  11.855   9.870  15.720  0.2915  0.0706  0.0737
22235W        W38309   1.500   1.023   1.223  0.0543  0.1403  0.1423
22236W        W38310  13.540   7.203  11.434 -0.0139  0.0336  0.2008
22237W        W38311  12.318   4.763  11.437  0.2234  0.0654 -0.0379
22238W        W38312   7.657   3.796   2.898  0.0142  0.0029  0.0174
22239W        W38313  18.167   2.057  16.182 -0.3242 -0.2148  0.0492
22240W        W38314   1.110   7.573  14.893 -0.0558  0.4309 -0.0899
22241W        W38315   7.451  13.451   2.271  0.0477  0.3900 -0.2692
22242W        W38316   1.810   0.197   2.080 -0.4841 -0.1349  0.3057
22243W        W38317  17.443  16.802  11.923 -0.3770 -0.0413 -0.0220
22244W        W38318  15.652   1.695  14.824  0.0174 -0.0047  0.3809
22245W        W38319  11.916   1.644   2.728  0.3495  0.0261  0.0908
22246W        W38320  12.503   9.879  13.934  0.3421  0.1759 -0.0724
22247W        W38321   6.958  10.269   1.460 -0.0388  0.2353 -0.1999
22248W        W38322  16.251   1.343  13.961 -0.2293 -0.0098  0.2355
22249W        W38323   2.629  15.578  11.581  0.1886  0.2766 -0.0006
22250W        W38324   2.831   8.231  11.785  0.3577 -0.0262  0.0936
22251W        W38325  10.822   8.939  14.444  0.1186 -0.0674 -0.0955
22252W        W38326   9.760  11.353  12.158  0.3695 -0.0056 -0.1336
22253W        W38327   6.950  17.364   2.981 -0.0068  0.0377 -0.2362
22254W        W38328   2.849   9.670  11.655  0.1536  0.0863 -0.2521
22255W        W38329   0.815   8.160  12.172  0.1409  0.1351  0.0849
22256W        W38330  16.760  15.950   4.220  0.0137 -0.1401  0.2468
22257W        W38331   1.234  14.178   1.361 -0.1704 -0.1400 -0.1105
22258W        W38332   0.945   7.838   1.846  0.0979 -0.0154 -0.1502
22259W        W38333  15.909   2.867  14.719 -0.0563  0.2500  0.2012
22260W        W38334   8.603  15.080   0.176 -0.1421  0.1111  0.1642
22261W        W38335   6.865   3.503   0.112  0.2709 -0.2063  0.0356
22262W        W38336   9.491  15.671  13.950  0.1707 -0.1832  0.1866
22263W        W38337   1.513   5.948  12.796 -0.3032 -0.1842  0.1675
22264W        W38338   8.861  11.923   1.315  0.0031  0.1192 -0.1216
22265W        W38339  11.151  11.025  12.510  0.2830  0.0865 -0.1364
22266W        W38340   2.708  14.961   2.111  0.0630  0.0273  0.0275
22267W        W38341  15.437  12.508   3.121  0.0288 -0.1925  0.1632
22268W        W38342  15.006   6.645   0.370 -0.1513 -0.0566 -0.0456
22269W        W38343  16.840  16.937  12.663 -0.3350  0.0397 -0.1467
22270W        W38344   3.844   8.350  13.149  0.0647 -0.1683 -0.0117
22271W        W38345   3.782   4.874  11.556  0.0190 -0.0091  0.1702
22272W        W38346  12.513  14.990   0.904 -0.1229  0.1282  0.0338
22273W        W38347   0.363   0.457  16.232  0.1998  0.1030  0.4284
22274W        W38348  13.738   1.863   0.869  0.1258  0.2088 -0.1179
22275W        W38349   8.853  12.270  13.568  0.1640  0.3185 -0.0309
22276W        W38350  11.124   5.733   4.531 -0.3032  0.2050 -0.3220
22277W        W38351  12.664  14.352   5.257  0.1596  0.3055 -0.3412
22278W        W38352   6.897  11.457  12.021 -0.1779 -0.0084 -0.0276
22279W        W38353   8.596   0.763   4.281 -0.0522  0.0388  0.1949
22280W        W38354   4.315   8.494  16.286 -0.0326  0.4661  0.1346
22281W        W38355   7.682  15.606   0.192 -0.0682 -0.0771 -0.1160
22282W        W38356   3.355  16.241  12.992  0.2375 -0.2380 -0.2322
22283W        W38357  15.338  13.780   4.683  0.0439  0.0055 -0.1870
22284W        W38358   8.476  12.295   1.122 -0.3569  0.2489 -0.1307
22285W        W38359  17.178  11.824  11.341 -0.2706 -0.0738 -0.3057
22286W        W38360   0.059   4.585   5.808 -0.0994 -0.0722  0.2336
22287W        W38361  13.640  16.014  14.537  0.1737 -0.1676 -0.0370
22288W        W38362  16.066  17.956  11.831  0.1690 -0.1107 -0.2507
22289W        W38363  17.769   1.575   2.903  0.1441  0.0037  0.0343
22290W        W38364   6.518  11.514  15.149  0.1326 -0.0540 -0.1476
22291W        W38365   5.853  13.057   4.849 -0.0683  0.0159  0.1960
22292W        W38366  12.477  13.196   3.657 -0.1895  0.2721 -0.1338
22293W        W38367   0.173  14.225   0.413  0.3357 -0.0905  0.1293
22294W        W38368   7.057  13.801   0.138  0.0082  0.0866 -0.0456
22295W        W38369  10.656  18.309  14.958  0.1845  0.1957  0.2325
22296W        W38370   9.825   4.766   0.788  0.1645  0.4106 -0.2335
22297W        W38371   0.694   6.224   3.411 -0.2334  0.2182 -0.0439
22298W        W38372  17.200   0.478  15.962  0.0202 -0.0429 -0.1367
22299W        W38373   2.980  15.076   5.315 -0.1642 -0.1045 -0.2443
22300W        W38374   9.135   4.589   3.539 -0.1383  0.1916  0.0981
22301W        W38375  12.092   4.289   1.936 -0.0005  0.0616 -0.1497
22302W        W38376   3.387   1.519   1.845 -0.1917 -0.1653 -0.1713
22303W        W38377  16.480   5.163   4.668 -0.0743 -0.0227 -0.0775
22304W        W38378  10.108  18.157  11.184 -0.3281  0.2288  0.3097
22305W        W38379   3.322   7.830  16.033  0.2313  0.0773 -0.0257
22306W        W38380  16.207  17.378  16.350  0.1785 -0.1699  0.3147
22307W        W38381  16.286   3.475   1.664  0.1719  0.1625  0.1954
22308W        W38382   3.369   3.683  12.665 -0.0689  0.3490 -0.0086
22309W        W38383   3.292  10.962  15.060 -0.0693  0.1977  0.3015
22310W        W38384  13.859  13.197  14.430  0.1266  0.2756 -0.2010
22311W        W38385   7.380   7.670  14.491 -0.1447 -0.2210  0.0745
22312W        W38386  15.626  13.146  15.838  0.0776  0.1813 -0.0039
22313W        W38387  13.449   3.626  14.431  0.0632 -0.1140 -0.3117
22314W        W38388   3.171   6.586   3.906 -0.1601 -0.1029 -0.3719
22315W        W38389   1.162   2.399  12.115 -0.1128 -0.0083 -0.2397
22316W        W38390   6.784   2.051   3.232 -0.1660  0.1263  0.1233
22317W        W38391  13.340  13.057  13.707 -0.2932  0.0594 -0.0920
22318W        W38392   1.651  12.991   2.426 -0.1730 -0.0370  0.0907
22319W        W38393  11.347  16.899  16.268  0.4344 -0.1329  0.0941
22320W        W38394   7.776   0.755  16.164 -0.3166  0.0623  0.2938
22321W        W38395   3.231  15.757  13.013  0.5629 -0.0966 -0.1082
22322W        W38396  11.574  16.452  14.276 -0.2692 -0.4712 -0.0835
22323W        W38397   3.714  11.942  14.385  0.1185 -0.5141 -0.1936
22324W        W38398  10.371  17.635  11.370 -0.0019 -0.3043 -0.0481
22325W        W38399   5.166   5.606   0.383  0.1277  0.4230  0.3228
22326W        W38400   2.243  11.529  12.839  0.0179  0.0630 -0.0517
22327W        W38401   3.902   9.371  13.874 -0.0232  0.0882  0.1871
22328W        W38402  11.228  14.835   3.431  0.2988  0.0689 -0.1685
22329W        W38403   9.539  17.100  13.244 -0.1546 -0.1851 -0.2334
22330W        W38404  14.254  11.235   2.329  0.0021  0.2213  0.4012
22331W        W38405   5.699  10.405   4.131 -0.0257  0.3031 -0.1394
22332W        W38406   8.613   4.206   1.201 -0.0482 -0.0187 -0.3209
22333W        W38407   0.219   9.767  12.434 -0.2847  0.0180  0.1482
22334W        W38408   1.379   0.236  14.420 -0.0419 -0.0377 -0.2122
22335W        W38409   8.250  16.941   5.118  0.0556  0.1663 -0.0832
22336W        W38410  14.397  11.205   1.114  0.1282  0.1579 -0.0153
22337W        W38411   6.867   8.755   5.659  0.1593 -0.1768  0.1344
22338W        W38412  17.270  16.310   3.276  0.1032  0.1747  0.1379
22339W        W38413  11.080  18.262   3.795 -0.2099 -0.2077  0.0832
22340W        W38414  12.936  16.132  16.129  0.2129 -0.0379  0.0214
22341W        W38415   5.170   1.626  12.789 -0.2934 -0.1326 -0.2532
22342W        W38416   7.219   2.261  15.637 -0.2312 -0.0254 -0.0744
22343W        W38417  17.593   1.985  14.300 -0.2017 -0.0834  0.3239
22344W        W38418   4.439   2.325  13.671 -0.0219 -0.1313  0.0838
22345W        W38419  14.897  18.180  13.192  0.0307 -0.1846 -0.0247
22346W        W38420   5.594  11.131   2.385  0.0943  0.4228  0.1148
22347W        W38421   5.161   8.912   4.071  0.0078 -0.0388  0.0025
22348W        W38422   9.900   9.427  12.453 -0.0851  0.3452  0.0282
22349W        W38423  10.344  12.111   2.485  0.1054 -0.2991  0.2106
22350W        W38424   3.413   6.482  14.954  0.3113  0.3714  0.5627
22351W        W38425  10.572   7.116   5.681  0.1759  0.4555 -0.4679
22352W        W38426   2.170  10.428   1.275  0.2321  0.1527 -0.1754
22353W        W38427  18.173  16.449  12.024  0.0542  0.2629  0.0588
22354W        W38428   6.960  18.235  11.636 -0.0371  0.1809  0.1319
22355W        W38429  16.188  14.456  12.584  0.0133 -0.1459  0.3223
22356W        W38430   5.141   1.643   1.174  0.1945 -0.0135 -0.0944
22357W        W38431  16.901  16.664   3.486 -0.0588 -0.2490 -0.1995
22358W        W38432  13.275   3.087  12.653 -0.1940  0.1016 -0.0181
22359W        W38433   8.970  11.096   4.458  0.0597  0.0799  0.1926
22360W        W38434  17.106  18.294   1.133 -0.0081  0.0504  0.4048
22361W        W38435  18.031   0.461   3.886  0.1938 -0.2281  0.0274
22362W        W38436   8.814  14.227   1.678  0.1642 -0.0434  0.0865
22363W        W38437   2.509   6.019  11.633 -0.1374  0.2140 -0.0286
22364W        W38438   4.413   7.932   1.411  0.1009  0.4101 -0.0737
22365W        W38439  16.289  13.320  12.234 -0.3089  0.2058  0.1154
22366W        W38440   6.400   4.944   0.888 -0.0539  0.0067  0.0922
22367W        W38441   7.483  15.308  15.805 -0.2030 -0.0228 -0.3991
22368W        W38442  11.996   4.859  15.308 -0.0588 -0.0197 -0.0619
22369W        W38443  13.547  10.123  14.996 -0.3494  0.1065  0.3194
22370W        W38444  11.759  14.097  10.649  0.0616 -0.1514  0.0457
22371W        W38445  14.119  17.019   2.035  0.3943 -0.0747 -0.0997
22372W        W38446   8.745  12.691  15.496  0.3381 -0.0799  0.0177
22373W        W38447   5.455   8.943  14.560  0.0394 -0.0491  0.0497
22374W        W38448  15.499   4.790   1.795  0.1338  0.1675  0.3840
22375W        W38449   7.952   8.215   5.185  0.1688  0.0207  0.4354
22376W        W38450   8.863  18.093  13.908 -0.1515  0.1602 -0.1033
22377W        W38451   1.806   1.804  11.977 -0.2522 -0.0977  0.1833
22378W        W38452  13.731   1.216   4.350  0.0073 -0.0298  0.1209
22379W        W38453   8.771  15.683  11.434  0.2207 -0.2826  0.2669
22380W        W38454   1.485   6.014   3.174  0.1538  0.0401 -0.1391
22381W        W38455   3.624   4.075  11.427  0.3836  0.0880  0.0794
22382W        W38456   3.578  11.587  15.844  0.2625  0.0699  0.2605
22383W        W38457  16.192   6.826  15.079 -0.0979 -0.0023 -0.1157
22384W        W38458   8.371  16.487  14.262  0.0507 -0.3127  0.1642
22385W        W38459  14.141  14.524   1.227  0.1140  0.0860  0.2905
22386W        W38460  15.515   3.973  16.242  0.1268 -0.3461  0.0287
22387W        W38461   7.649   4.763  10.913 -0.1048 -0.0901  0.0442
22388W        W38462  13.613   4.164   4.509 -0.0195 -0.1348 -0.1359
22389W        W38463  10.184   9.442   3.674  0.0290  0.3679 -0.2026
22390W        W38464  16.593   9.351  13.449 -0.3582 -0.1058  0.0450
22391W        W38465  15.647  13.507   1.868 -0.0047  0.3190  0.0409
22392W        W38466  12.535  17.598  11.794  0.0699 -0.0630 -0.0420
22393W        W38467  15.130   7.697  12.869 -0.0388 -0.1285 -0.3416
22394W        W38468  11.131   2.400   0.972  0.0697  0.1858 -0.3733
22395W        W38469  16.075  11.990   3.438  0.2603  0.0385  0.2982
22396W        W38470   3.024  13.018  11.429 -0.0954 -0.3657  0.2682
22397W        W38471  10.867   3.825  13.207 -0.0082  0.1013 -0.0154
22398W        W38472  16.657   1.421  15.231 -0.0445 -0.1962  0.3706
22399W        W38473  11.309   6.986   3.668  0.2716  0.0183  0.2964
22400W        W38474   2.069  16.041   5.452 -0.0768 -0.2007  0.0552
22401W        W38475  13.997   7.771  13.128  0.1338 -0.0940 -0.0149
22402W        W38476  11.381   5.466   1.840  0.2535  0.0258 -0.2794
22403W        W38477  14.382   4.782   6.007 -0.1594 -0.2851  0.0175
22404W        W38478  11.054  17.346   5.721 -0.2757 -0.0089 -0.0893
22405W        W38479   4.054   4.960   2.712 -0.1761 -0.1038  0.2536
22406W        W38480  10.411  12.198   3.402  0.2184  0.1347  0.2782
22407W        W38481   9.634  14.131   2.561 -0.1994  0.0886 -0.3353
22408W        W38482   3.154   4.635   2.070 -0.0040  0.1323  0.4240
22409W        W38483   4.469  14.586   3.429 -0.3284  0.1846  0.0701
22410W        W38484  12.349   8.195  14.891  0.0958 -0.0893  0.4021
22411W        W38485   9.690  10.178  13.343  0.2342  0.2055 -0.0805
22412W        W38486  12.017  11.378   4.502 -0.1924 -0.1231 -0.0346
22413W        W38487   6.534  14.613  12.391 -0.2466  0.0631  0.2275
22414W        W38488   3.589   0.834   3.072  0.2641  0.1441 -0.0027
22415W        W38489  10.268   4.949   4.022  0.2191 -0.2710 -0.0909
22416W        W38490   8.932   3.880   0.819  0.0973  0.1819 -0.1904
22417W        W38491  17.169  14.113   4.000 -0.0315 -0.1937 -0.0144
22418W        W38492   1.437  15.565   1.903 -0.3056 -0.0487  0.2143
22419W        W38493   4.574   2.335   1.012  0.2148 -0.3421 -0.0055
22420W        W38494  15.291  13.208   1.649  0.4112  0.0249  0.0916
22421W        W38495   9.624   4.464   3.410 -0.2161 -0.1372 -0.1000
22422W        W38496  18.278   2.770  12.510  0.1525  0.1197  0.2672
22423W        W38497  13.829   4.801   3.671  0.4059  0.0179 -0.1080
22424W        W38498   9.333  12.273  14.284  0.0937 -0.0993  0.0551
22425W        W38499   1.463   9.702   1.234  0.0517 -0.2869 -0.0234
22426W        W38500  10.451  15.058  13.338 -0.0155 -0.1888  0.0978
22427W        W38501   4.823  13.747   4.732  0.1609  0.0539 -0.1717
22428W        W38502  16.552  12.356   5.365  0.1700 -0.1978  0.4074
22429W        W38503  16.668   5.421   1.732  0.0794  0.3028 -0.1644
22430W        W38504  16.617  13.794   0.196  0.2285 -0.1138 -0.1416
22431W        W38505  14.050   6.235  15.777 -0.1731 -0.4037  0.2265
22432W        W38506  16.367   4.221   3.428  0.0693  0.0648  0.0467
22433W        W38507   2.324  13.293   1.815  0.1352  0.0865 -0.0800
22434W        W38508  16.069  10.375   4.926  0.3685  0.1136  0.1386
22435W        W38509  14.307   6.051   3.553  0.0323 -0.1429  0.0326
22436W        W38510  17.913  11.793   4.721 -0.1899  0.0988  0.1704
22437W        W38511  16.170   7.626   5.386  0.6099  0.0009 -0.2756
22438W        W38512   3.879   3.185  13.494 -0.0583 -0.0307  0.2000
22439W        W38513   5.796  17.326  14.800 -0.0773 -0.2238 -0.0129
22440W        W38514   0.713   6.973   5.910 -0.3086  0.2184  0.1096
22441W        W38515   9.262   3.058   3.019 -0.0156 -0.0678  0.0533
22442W        W38516  16.727   2.455   5.218 -0.0340  0.0466  0.0550
22443W        W38517   5.665   1.728   2.520 -0.2409 -0.1304  0.0356
22444W        W38518   1.219   4.506  15.524  0.0025  0.1667 -0.3042
22445W        W38519  13.462   4.517  11.460 -0.0139 -0.1163 -0.1623
22446W        W38520  15.487   5.794   5.787  0.1967 -0.2821 -0.0607
22447W        W38521   5.876   5.750   4.269  0.0834 -0.0391  0.1849
22448W        W38522  13.298   9.390   4.455 -0.0513  0.2154 -0.3723
22449W        W38523   2.026   7.714  13.117 -0.2075  0.0698  0.1128
22450W        W38524   7.241  10.992  13.175 -0.0319  0.0034 -0.1170
22451W        W38525   7.041  15.608   1.513 -0.1626 -0.2137 -0.1997
22452W        W38526   6.583  10.501  12.431 -0.2458  0.1655 -0.0161
22453W        W38527   7.781   5.203  12.217  0.2699 -0.0135  0.1574
22454W        W38528   9.306  16.842  12.899  0.0018 -0.0490 -0.3673
22455W        W38529   0.298  16.265   4.803  0.2765 -0.0546  0.0674
22456W        W38530   0.524  15.622  12.626  0.3125  0.1275  0.2737
22457W        W38531   3.265  13.077  15.562  0.3167 -0.1548  0.1027
22458W        W38532  10.615  14.465  13.027  0.5336 -0.0976  0.3598
22459W        W38533  11.414   9.220   5.757 -0.1478  0.0169  0.0190
22460W        W38534   5.981  14.392   3.121  0.0463  0.2735  0.2163
22461W        W38535   2.387   6.797  12.002  0.1278 -0.0398 -0.2998
22462W        W38536  11.890   6.084  16.244 -0.0840  0.1883 -0.2942
22463W        W38537   6.395   2.686  16.151  0.1862 -0.0606 -0.3008
22464W        W38538   3.028  11.219   3.099  0.0049 -0.0968 -0.4547
22465W        W38539   4.913  13.617  12.326  0.0107  0.2128 -0.1189
22466W        W38540  16.847  10.138  11.266  0.0409  0.2545  0.1009
22467W        W38541  13.393  10.918   4.351 -0.2401 -0.0605  0.1103
22468W        W38542   6.393  14.186  12.142 -0.1409 -0.0153  0.0307
22469W        W38543   3.099   9.738   3.815  0.0423  0.2329 -0.1210
22470W        W38544  14.170   1.626  14.726  0.0440 -0.0160  0.0836
22471W        W38545   2.696   8.177   1.561 -0.1277 -0.1177  0.0323
22472W        W38546   2.848   7.133  14.045  0.0030 -0.1071  0.0757
22473W        W38547   2.112   0.040   2.433  0.0221  0.1243 -0.2634
22474W        W38548   6.951  15.941  16.207  0.1315 -0.0813 -0.0844
22475W        W38549  16.332   0.167   3.580  0.2560 -0.0785 -0.1581
22476W        W38550   2.262  10.574   4.469 -0.0789 -0.0205 -0.5868
22477W        W38551   7.007   7.400  16.335 -0.6126  0.3194 -0.2190
22478W        W38552  15.009  14.632   1.466 -0.5329 -0.0315  0.3127
22479W        W38553   2.485  17.151   2.859 -0.2714 -0.2241  0.2315
22480W        W38554  14.347  14.619   1.886  0.0995  0.0806  0.0804
22481W        W38555  14.000  17.087   3.474  0.0633  0.1090 -0.1928
22482W        W38556   5.973   8.369  12.485 -0.1410  0.2403  0.1684
22483W        W38557   7.788  18.053   3.242 -0.0437  0.0526 -0.0801
22484W        W38558  15.499  17.684   5.209 -0.0027 -0.0211  0.4184
22485W        W38559   1.834   6.812   3.200  0.1965  0.3619 -0.3467
22486W        W38560  11.788  10.525  12.942 -0.0042 -0.1668 -0.0194
22487W        W38561   9.524   8.483   0.626 -0.0492 -0.1019 -0.1660
22488W        W38562  10.311  16.665  14.321 -0.0902  0.0390  0.1418
22489W        W38563  14.130   5.083   1.197  0.2189 -0.1094  0.5357
22490W        W38564  10.795  12.382   0.531  0.3536  0.0614 -0.1231
22491W        W38565  12.710  17.564  15.163 -0.4684 -0.1854 -0.2226
22492W        W38566   3.175  16.608  15.616 -0.1808 -0.1451  0.2178
22493W        W38567  13.264  12.605   1.502  0.0097 -0.1603  0.0197
22494W        W38568  10.550   7.968   5.058 -0.1028  0.1535  0.1777
22495W        W38569  13.537  13.448  11.677  0.1079  0.0840  0.1836
22496W        W38570  18.327  16.994  14.743  0.3287  0.2311  0.0366
22497W        W38571  14.688   9.031   2.714  0.0278  0.1051 -0.0990
22498W        W38572   6.408  15.081  14.575  0.0732 -0.1020  0.0639
22499W        W38573  16.162  17.691   1.044 -0.2656 -0.4864 -0.0916
22500W        W38574   8.540  12.251   3.115 -0.0810  0.4215 -0.2305
22501W        W38575  12.798  18.314  15.761  0.2240  0.3265  0.0879
22502W        W38576  13.368   2.662  14.652 -0.0329  0.2071  0.1869
22503W        W38577  11.869   0.491   1.404  0.3291 -0.2015  0.2650
22504W        W38578   4.498  18.098  14.767 -0.2415  0.0271  0.3802
22505W        W38579  16.003   7.121   2.827 -0.0029 -0.1659  0.2161
22506W        W38580  16.743   0.211   2.816 -0.1783  0.2753 -0.2323
22507W        W38581  14.154  12.196  15.965 -0.0761  0.0108 -0.0484
22508W        W38582  13.021  10.422  11.653 -0.1279 -0.2245  0.3608
22509W        W38583   2.627  12.280   3.982 -0.2138 -0.0085  0.0885
22510W        W38584  11.713   4.028   1.685 -0.3806  0.1233  0.3490
22511W        W38585   2.449   6.131  16.051 -0.0557  0.1396  0.0294
22512W        W38586  14.258  18.237  14.064  0.0146 -0.0817  0.2847
22513W        W38587  10.861  11.907  12.807  0.1885  0.1484 -0.0706
22514W        W38588   7.573   4.741   3.705 -0.1029  0.0841 -0.0295
22515W        W38589   2.041  17.078   2.627  0.0301 -0.1459  0.2357
22516W        W38590  10.038  13.740   3.353  0.2284  0.0570 -0.0714
22517W        W38591  14.640  12.305  13.036  0.2352 -0.3640  0.0063
22518W        W38592   8.563   2.364  15.439 -0.0286 -0.0010 -0.1202
22519W        W38593  16.058  16.993   3.829 -0.1231  0.1668  0.1196
22520W        W38594  10.798  13.398   0.459 -0.1410  0.1446 -0.1729
22521W        W38595   1.408   5.394  13.999 -0.1278  0.1265  0.1520
22522W        W38596  14.595   7.064   2.519  0.0088  0.1441  0.0924
22523W        W38597  11.567   0.009   3.852 -0.1334  0.3222  0.0206
22524W        W38598   5.584  12.860   5.610  0.0349 -0.1415 -0.4713
22525W        W38599   1.536  13.324   3.963  0.0396 -0.0595 -0.1003
22526W        W38600   1.927  10.838   1.510  0.1610  0.2197 -0.0268
22527W        W38601   6.060  12.339  13.194  0.1189  0.0897  0.1857
22528W        W38602  11.810   7.674   5.237 -0.0692 -0.2493  0.2658
22529W        W38603   0.695   3.423  15.923  0.0882  0.2108 -0.0447
22530W        W38604   3.308  10.170  12.850 -0.0609 -0.3184  0.2315
22531W        W38605   3.771   2.288  15.821  0.3913  0.1886 -0.1554
22532W        W38606  12.416   9.136  12.800 -0.1378  0.1385 -0.1194
22533W        W38607  10.629   8.613  11.349 -0.0031 -0.1384  0.2200
22534W        W38608   7.064   3.873   1.191 -0.0545 -0.2695  0.0340
22535W        W38609   6.642   0.351   3.298 -0.1910 -0.0167  0.3411
22536W        W38610   9.658   6.918  12.281 -0.2732 -0.3050 -0.0420
22537W        W38611   6.417   2.055   2.848 -0.0234 -0.1743  0.0424
22538W        W38612  10.847   9.593   2.085 -0.1794  0.5592 -0.1631
22539W        W38613  14.580  12.496  16.160 -0.1825 -0.0689  0.1416
22540W        W38614  10.497  12.779  15.083 -0.1905 -0.2393  0.1460
22541W        W38615  10.513   1.265  16.182  0.0099  0.1362  0.2173
22542W        W38616   7.208  18.262   0.801 -0.0563  0.1331  0.1613
22543W        W38617   9.632   2.609  11.935  0.1127  0.0326  0.0437
22544W        W38618  16.354   3.598  11.352 -0.2107 -0.1111  0.0765
22545W        W38619   9.735   6.131  14.039 -0.0080  0.2054 -0.3912
22546W        W38620   4.261  15.681  14.686 -0.0480  0.1335 -0.0969
22547W        W38621  18.023   3.267   4.935 -0.1802  0.2725 -0.0507
22548W        W38622   0.921  15.048  11.239  0.1642 -0.0463 -0.3394
22549W        W38623   1.021   8.957   5.409  0.0472 -0.1734 -0.0615
22550W        W38624  11.003  13.992   5.072  0.1428  0.0152 -0.0946
22551W        W38625  17.792   3.155  16.197 -0.0313 -0.0241  0.1631
22552W        W38626  13.705  10.183   0.760 -0.1202  0.0539  0.0276
22553W        W38627  15.568   1.892   0.874 -0.0842 -0.2029  0.0071
22554W        W38628  12.985  13.244  15.575 -0.0873  0.3356 -0.1273
22555W        W38629   7.917  13.987   5.164 -0.2006 -0.0431 -0.0692
22556W        W38630  14.413  10.909  12.186  0.1721 -0.0226 -0.0844
22557W        W38631   5.034   7.807   2.653 -0.2322  0.1786 -0.2263
22558W        W38632  10.624   4.392   1.618  0.3429 -0.0031 -0.1846
22559W        W38633  13.508   2.349   2.621  0.0889 -0.1567  0.4419
22560W        W38634  17.279   4.219   2.954  0.4361  0.1894 -0.1654
22561W        W38635  16.676   7.250  14.276 -0.0759 -0.3742 -0.2334
22562W        W38636  13.445  14.232   0.711 -0.1915  0.2964  0.2626
22563W        W38637  10.489  14.026  13.308  0.1133  0.0434 -0.1204
22564W        W38638  12.155   9.174  14.061  0.0440 -0.0924 -0.2638
22565W        W38639  11.349  12.563  14.537 -0.0467  0.2132  0.0911
22566W        W38640   1.780   8.413   2.239  0.0279 -0.2968 -0.2375
22567W        W38641   4.387  10.421   4.903 -0.0959 -0.0313  0.0319
22568W        W38642  11.449  15.822   3.561 -0.0552  0.1735 -0.1350
22569W        W38643  15.115   2.268   2.164  0.1810  0.1020  0.0962
22570W        W38644  17.958   3.778  14.264  0.0307  0.2272 -0.2338
22571W        W38645   5.758   7.363  12.194 -0.1298 -0.2902 -0.1980
22572W        W38646   4.425  11.499   4.775 -0.3865  0.1460 -0.0081
22573W        W38647   9.809   1.301   0.533  0.1319  0.0884  0.0482
22574W        W38648   6.992   8.672  15.361  0.1182  0.1245  0.0006
22575W        W38649   9.277  11.561  12.116 -0.1568  0.2374 -0.0666
22576W        W38650   4.837  13.992   1.571 -0.2376  0.1431  0.2416
22577W        W38651   7.197  11.090  12.235 -0.1986  0.0541 -0.3611
22578W        W38652  12.093  11.763   0.464 -0.0751 -0.0410  0.0167
22579W        W38653   0.913  11.714  11.554 -0.0947 -0.2834  0.1611
22580W        W38654   5.820   0.673   3.227 -0.0563 -0.2754  0.0016
22581W        W38655   7.966   2.256   0.146  0.3598  0.1552 -0.1485
22582W        W38656  12.114  12.875  11.782  0.0983  0.1516  0.1981
22583W        W38657  17.408   3.218   0.917  0.1197 -0.3048  0.1286
22584W        W38658  13.259   4.288   0.268 -0.1224 -0.2189 -0.2560
22585W        W38659   2.082  12.632   5.376  0.0729  0.4510  0.0164
22586W        W38660   0.374   0.232  15.801 -0.2301  0.3158  0.0493
22587W        W38661   8.321  17.264   4.349  0.1831 -0.0508 -0.1162
22588W        W38662  15.549  13.500   1.118  0.1177 -0.2178  0.1199
22589W        W38663   9.757   0.348   1.970  0.0749  0.1007  0.0349
22590W        W38664   9.371  13.229  11.124 -0.1857 -0.0306  0.1863
22591W        W38665   9.989   0.018  16.120 -0.1586 -0.0770  0.1623
22592W        W38666   7.044   5.531   1.451 -0.0980  0.0870  0.1175
22593W        W38667  10.982  16.773  12.639  0.1266  0.2045 -0.1222
22594W        W38668   1.659  11.699  10.960 -0.1828 -0.1008  0.0254
22595W        W38669  16.905  11.935   5.463 -0.2885  0.0446  0.4036
22596W        W38670   4.993  11.793   0.003 -0.2369 -0.1047 -0.2109
22597W        W38671   2.747   6.528   1.937  0.0300 -0.3117 -0.2188
22598W        W38672  16.147   5.818  15.974  0.4361 -0.1979  0.1619
22599W        W38673  14.280   5.802   5.089  0.1374  0.0483 -0.0702
22600W        W38674  16.102  13.573  15.846  0.5277 -0.0442 -0.0226
22601W        W38675  12.081   4.106  12.163 -0.1249  0.0618  0.0231
22602W        W38676  12.867   5.258   4.656 -0.1260  0.1714 -0.1528
22603W        W38677  15.836   1.873   5.652 -0.1479  0.1416 -0.0706
22604W        W38678   9.712  11.314   2.976 -0.2547  0.1243  0.1062
22605W        W38679  11.095  12.213  15.224  0.0764 -0.2223 -0.1353
22606W        W38680  14.891  13.090   3.197  0.0972 -0.0226 -0.3829
22607W        W38681  12.272   9.033   4.422  0.0309  0.2162  0.1593
22608W        W38682   5.083   7.663   5.118  0.0405  0.1841 -0.0705
22609W        W38683  15.647  16.872   0.107  0.0187 -0.0737 -0.3717
22610W        W38684   2.188   7.234   1.667 -0.1035 -0.1590 -0.0399
22611W        W38685  18.057  13.646   4.410  0.1738 -0.0928  0.0972
22612W        W38686   9.734   6.538  14.734 -0.2243 -0.1180 -0.4567
22613W        W38687   1.179   4.877  11.881  0.1306 -0.3642  0.2244
22614W        W38688   1.583  14.620  13.100  0.1760 -0.0407 -0.0450
22615W        W38689  11.993   6.225  12.000 -0.2358  0.1181 -0.0477
22616W        W38690  11.729   9.199   4.292 -0.0970  0.1600  0.2338
22617W        W38691  11.257   6.679  15.616  0.0433  0.0884  0.1851
22618W        W38692  13.989   4.961   5.058  0.0316  0.2816  0.0056
22619W        W38693   5.047   6.389  14.970  0.1019  0.2933  0.1002
22620W        W38694   9.828   7.227   0.615 -0.2609 -0.0378  0.1428
22621W        W38695   8.671  14.604  11.127 -0.4214 -0.1536 -0.0215
22622W        W38696  15.197  16.816   4.196 -0.0856  0.4070 -0.0856
22623W        W38697   9.550  13.542  14.669 -0.1117  0.1606 -0.0601
22624W        W38698   7.142   4.370   3.741  0.1641  0.1052 -0.1068
22625W        W38699  12.857   6.898   4.395  0.0821 -0.2104  0.1044
22626W        W38700  12.982  11.938   1.991  0.0468 -0.1942  0.3787
22627W        W38701  11.473   0.160   2.331  0.1347  0.2171  0.2171
22628W        W38702  17.277   2.587   4.522  0.0081  0.2329  0.1078
22629W        W38703  14.055  13.162  16.358  0.0372 -0.2758  0.1273
22630W        W38704  11.649  12.034   0.189 -0.0255  0.1144  0.0969
22631W        W38705   1.552   7.666  15.124  0.1729 -0.0171  0.3417
22632W        W38706  11.457  17.404   0.217  0.0453 -0.0392  0.2359
22633W        W38707   7.837  10.865  16.235  0.0722  0.0490 -0.2307
22634W        W38708   4.273  12.336   2.413 -0.1965  0.3159  0.1530
22635W        W38709  15.407   7.289  12.038 -0.2763 -0.1368 -0.0788
22636W        W38710  10.012   3.988   2.483  0.1277 -0.0904 -0.1663
22637W        W38711   9.164   7.423   1.311 -0.0125 -0.0455 -0.1223
22638W        W38712  17.409  12.524   1.153  0.2013 -0.1812  0.0459
22639W        W38713   8.821   6.638  15.195  0.1943  0.0606 -0.5564
22640W        W38714  12.012  12.421  13.041  0.7221 -0.3125 -0.2759
22641W        W38715   9.601  13.140   1.554  0.1400  0.5108 -0.1559
22642W        W38716   4.709   6.354  15.798  0.1351 -0.1839 -0.2729
22643W        W38717   5.699   1.254   0.555  0.1836  0.2445 -0.1647
22644W        W38718   9.271   5.938  13.741  0.0817 -0.1980  0.1615
22645W        W38719   4.671   6.767   2.429 -0.0798  0.5308 -0.0492
22646W        W38720   3.832  17.210  13.294  0.0845 -0.1333  0.4377
22647W        W38721   8.910  17.116  12.175 -0.0280 -0.1522 -0.0481
22648W        W38722  11.646  10.504   0.055  0.1002 -0.3449 -0.1826
22649W        W38723  10.570  12.920   0.412  0.3611  0.0661 -0.2216
22650W        W38724  11.257   5.469   1.375 -0.1857 -0.0036 -0.1374
22651W        W38725  15.700   5.780  15.718  0.1452  0.0133  0.5080
22652W        W38726   4.269   7.959  16.026  0.0737  0.0859  0.0424
22653W        W38727   4.289   7.557  13.789 -0.1326 -0.1498 -0.0149
22654W        W38728  15.545  14.387  14.452 -0.0277  0.1049  0.1246
22655W        W38729   8.403  12.972  14.554 -0.0390 -0.2675  0.1329
22656W        W38730  13.192   5.935  15.981  0.0946  0.0398 -0.0512
22657W        W38731  17.583   4.173  13.080  0.1654  0.0959  0.0370
22658W        W38732   1.804   1.825  13.249  0.0811  0.1362  0.0595
22659W        W38733  15.330   0.006   5.716 -0.0691  0.0593 -0.0919
22660W        W38734   0.797   4.688  15.726 -0.1528  0.0375 -0.1748
22661W        W38735  13.119  16.493   3.678 -0.2633  0.1483  0.2910
22662W        W38736  11.098  12.574   2.471 -0.0286  0.1470 -0.0410
22663W        W38737   1.394  18.274  12.034 -0.1727 -0.1698  0.1417
22664W        W38738   2.679  10.781  13.933 -0.2776 -0.2318  0.2046
22665W        W38739  13.362  16.693  12.645  0.5745  0.1873 -0.2830
22666W        W38740   7.673   4.552   0.277 -0.1964 -0.1364  0.0692
22667W        W38741   7.715   4.689   1.997 -0.2004 -0.0573 -0.3049
22668W        W38742   6.004   4.787   2.588 -0.0050 -0.1259  0.2795
22669W        W38743  12.947  17.844   3.567 -0.0097 -0.2986  0.1666
22670W        W38744   4.936   9.572  12.021 -0.0745 -0.1679  0.0218
22671W        W38745   7.107   6.832   5.892  0.0996  0.0151 -0.0502
22672W        W38746  10.611  14.965  12.853  0.1649  0.0274  0.2914
22673W        W38747  16.830   7.086   3.118 -0.0404  0.0048 -0.1594
22674W        W38748  13.540   7.205  13.938 -0.1227  0.3938 -0.0136
22675W        W38749  16.829   6.844   1.811  0.2240 -0.2306  0.2025
22676W        W38750   3.515   2.376  13.675 -0.0201  0.0222 -0.0031
22677W        W38751  18.084   7.069   1.596  0.1962  0.4261  0.0752
22678W        W38752   1.265  14.613   4.388  0.1869 -0.2263  0.0150
22679W        W38753   6.520  17.801  14.881  0.2132  0.4551 -0.0033
22680W        W38754  14.717  13.623  15.917 -0.4196  0.1268  0.0510
22681W        W38755   4.507   9.646   4.256 -0.2366 -0.0565  0.0486
22682W        W38756  17.130  15.117  14.585  0.0049  0.0006  0.2740
22683W        W38757  13.874  17.551   3.804  0.2325 -0.4961  0.1019
22684W        W38758  14.372  12.066   1.694  0.1316 -0.0453 -0.0183
22685W        W38759   1.415   8.538  15.166 -0.0592  0.3722 -0.3839
22686W        W38760   3.783  15.314   5.355 -0.0113  0.0439  0.1301
22687W        W38761   2.671   1.641   3.565 -0.2136 -0.1744 -0.0470
22688W        W38762  14.540   8.326  15.620  0.2319  0.0689 -0.0575
22689W        W38763   4.405   6.854  13.203  0.2981 -0.1992 -0.1157
22690W        W38764   3.255  14.574   4.840 -0.1218  0.0960  0.0635
22691W        W38765  17.050  15.042   3.737 -0.0874 -0.2114  0.0723
22692W        W38766   3.717  14.626  12.602  0.1040 -0.1438  0.0513
22693W        W38767   0.634  10.394   4.617  0.2224  0.1838  0.1448
22694W        W38768  14.140   1.719  15.226 -0.2990 -0.0846  0.1327
22695W        W38769  13.144   0.516  12.154 -0.3307 -0.1176 -0.2151
22696W        W38770  11.521  11.782  15.271 -0.3620  0.1339  0.1463
22697W        W38771   6.102   4.634  15.464  0.0215  0.0748 -0.3366
22698W        W38772   7.150  14.970  14.055  0.0469  0.3216 -0.0930
22699W        W38773  14.359  16.565   4.387 -0.2982  0.1235 -0.1134
22700W        W38774   7.174   8.762  13.630  0.0621  0.0045 -0.1965
22701W        W38775   9.636   9.604   2.096  0.0095  0.4260  0.1005
22702W        W38776  14.481   8.605   0.223  0.2356  0.0361 -0.2763
22703W        W38777  15.042  13.159   1.192  0.0400  0.1601 -0.1185
22704W        W38778   9.505  15.250   5.038  0.1542  0.3386 -0.0305
22705W        W38779  18.106   8.855   5.015  0.3329  0.1353  0.0992
22706W        W38780   4.692  15.432   3.351 -0.1196  0.3715  0.1836
22707W        W38781   2.855   3.910  13.737  0.4062 -0.3289 -0.2454
22708W        W38782   0.706  17.776   0.839  0.2664 -0.0329  0.0850
22709W        W38783  12.872   7.060   2.825 -0.0568  0.2096 -0.1298
22710W        W38784   6.755   7.661   0.972 -0.1754  0.1081 -0.1233
22711W        W38785   5.238   4.273   3.715  0.1057  0.3833 -0.1689
22712W        W38786  15.091  15.249  14.508 -0.3905 -0.1272  0.0220
22713W        W38787  16.683  13.124  13.006  0.2881 -0.0881 -0.3529
22714W        W38788  18.094  17.941   4.155  0.0334  0.0438 -0.0365
22715W        W38789   5.038  10.778  11.234  0.1892  0.1399  0.2161
22716W        W38790  13.525   8.426   0.938 -0.3210  0.0854  0.0347
22717W        W38791   3.534   1.478  11.127  0.2606  0.1587 -0.0950
22718W        W38792   9.256  11.742   1.045 -0.1249 -0.0878 -0.1423
22719W        W38793   3.169   6.066  13.441 -0.0664  0.3267 -0.0715
22720W        W38794   1.702  11.535   2.690  0.2043  0.1670 -0.1481
22721W        W38795  14.068   0.136  16.005 -0.1382 -0.0085 -0.4710
22722W        W38796  13.095  17.664  14.091 -0.2633 -0.1378  0.0320
22723W        W38797  10.763  17.484   1.941  0.0127 -0.0492 -0.2134
22724W        W38798   0.996   5.094   4.591  0.2549 -0.1295 -0.0955
22725W        W38799   4.156   4.320   4.271 -0.0462  0.5006 -0.0030
22726W        W38800  11.926   5.661   0.088  0.1864 -0.3352  0.0483
22727W        W38801  13.913  10.993   4.463 -0.2777  0.0408 -0.1472
22728W        W38802   2.313  14.424  15.579  0.1538  0.0831 -0.2875
22729W        W38803   9.990  11.243   5.008 -0.0470 -0.0383  0.3568
22730W        W38804  15.941  16.993   5.605 -0.1295 -0.0219 -0.1187
22731W        W38805  16.056   1.199   5.186  0.1660 -0.2986  0.1067
22732W        W38806  14.565   3.443   0.526  0.2610 -0.2627  0.1807
22733W        W38807  11.458   3.809  14.538  0.0913 -0.2076  0.4025
22734W        W38808   5.378  17.019  11.509 -0.0835  0.1060  0.1898
22735W        W38809   2.301   0.898   2.749  0.0813 -0.1851  0.0825
22736W        W38810   5.107  10.829   5.415 -0.0990  0.2139 -0.3469
22737W        W38811   4.338  17.707  11.418  0.3720  0.2706 -0.0915
22738W        W38812   7.203  16.939   0.799  0.1998  0.0030  0.1505
22739W        W38813   3.096  18.140   0.572  0.4404 -0.3569 -0.3621
22740W        W38814  17.666   8.650  12.742  0.2032 -0.0661 -0.0487
22741W        W38815  17.843   0.757  16.002  0.1873  0.2949  0.0250
22742W        W38816   2.542   9.277   0.075 -0.1940  0.0048  0.0560
22743W        W38817  13.296  16.061   2.609 -0.0241 -0.1012  0.0778
22744W        W38818  15.620   1.429  14.106 -0.0127 -0.1435 -0.0465
22745W        W38819   9.208   9.883   1.836  0.0806  0.0521 -0.3044
22746W        W38820   1.302  10.872   2.612 -0.2235  0.1389  0.1388
22747W        W38821  14.543   4.568  11.915 -0.0247  0.2771  0.2628
22748W        W38822  14.187  16.843   2.474 -0.1605  0.3450  0.0952
22749W        W38823   2.679   6.803  13.164 -0.0008  0.2227  0.0985
22750W        W38824  12.482  16.190   4.349 -0.2451 -0.1916 -0.0525
22751W        W38825   3.907   8.932   0.752 -0.0238  0.2062 -0.0562
22752W        W38826   7.498  17.391  15.632 -0.0313  0.2000 -0.1557
22753W        W38827  14.415   5.769   5.982  0.1145 -0.0140  0.0680
22754W        W38828   0.253  17.781   4.192 -0.1003 -0.1483  0.2059
22755W        W38829  12.448  13.939  12.489 -0.0086 -0.0392 -0.0997
22756W        W38830   4.949  18.197   5.434  0.1087 -0.2627  0.1299
22757W        W38831   3.995   5.784   5.485 -0.1797 -0.0799  0.1181
22758W        W38832  15.433   5.130   0.868  0.1746  0.1692  0.0442
22759W        W38833   0.674   7.359   0.232  0.1393 -0.3304  0.1004
22760W        W38834   4.203  10.355   2.796  0.2194  0.2158  0.1442
22761W        W38835  14.449   0.320  14.460 -0.1331  0.1465 -0.0391
22762W        W38836  14.161  10.272   4.143  0.1632  0.3121  0.3296
22763W        W38837  15.773  10.838   4.963  0.1099  0.1898 -0.1442
22764W        W38838  10.250   3.597  11.064  0.2154 -0.0938  0.1977
22765W        W38839   7.449   4.838  12.911 -0.0108  0.2650 -0.1900
22766W        W38840   1.710  15.192   4.508 -0.0045  0.0884  0.2641
22767W        W38841   9.568   3.810  15.785  0.1388  0.1596  0.1760
22768W        W38842  13.508   5.358  11.629 -0.0284 -0.1545  0.1634
22769W        W38843   9.137   4.388   4.237 -0.0683  0.3237  0.0205
22770W        W38844  17.965  14.629   2.804  0.2704 -0.1187 -0.3829
22771W        W38845   4.759  13.551  11.512  0.0539  0.0620  0.4051
22772W        W38846  14.571  17.025   0.409 -0.2071  0.1006  0.1032
22773W        W38847  17.434   5.551  13.845 -0.2053 -0.2440 -0.2509
22774W        W38848   0.419   2.398  15.486 -0.1594  0.0287 -0.1172
22775W        W38849  10.940   4.730  11.686  0.1089 -0.0200 -0.1152
22776W        W38850   6.537  13.827   0.424  0.2084 -0.2574  0.3353
22777W        W38851   3.013  10.289  14.639  0.0505  0.0476 -0.0785
22778W        W38852   9.916   1.685   0.239 -0.0616  0.0535  0.3030
22779W        W38853   4.926  14.020   2.158 -0.0646  0.1259 -0.1078
22780W        W38854   1.942  16.064  14.171 -0.4345  0.1457  0.0670
22781W        W38855  11.487  15.903   0.083 -0.0597 -0.3187  0.1790
22782W        W38856   9.703  12.105   5.013 -0.1912 -0.2354 -0.1964
22783W        W38857   0.646   3.794  12.630 -0.0237  0.0683 -0.0185
22784W        W38858   5.169  17.068  11.058  0.4150  0.1784  0.1790
22785W        W38859   0.796  14.545   1.505  0.3956  0.0290  0.2689
22786W        W38860  11.461  14.739  14.334  0.2657 -0.4763 -0.1621
22787W        W38861  17.385   6.926  13.424  0.1363  0.2418  0.1649
22788W        W38862   4.835  14.951  14.756 -0.0944 -0.0364  0.0726
22789W        W38863   1.296   0.971   2.548  0.0068  0.3763 -0.0240
22790W        W38864  11.304  11.040   4.541  0.2016  0.2504 -0.0132
22791W        W38865   3.144  15.487  14.507  0.0148 -0.0186  0.2930
22792W        W38866   6.736   4.845   3.168 -0.0254 -0.1307 -0.1887
22793W        W38867   5.781   7.358  11.652  0.0768 -0.1512 -0.0006
22794W        W38868   3.412  16.717  14.561  0.4030  0.1296 -0.0021
22795W        W38869  14.862  11.115  15.118  0.1656 -0.0600  0.0096
22796W        W38870   6.147   2.539   4.690 -0.0929  0.1612 -0.0087
22797W        W38871  17.460  12.372  15.982 -0.2473  0.0539 -0.3187
22798W        W38872  17.595   1.178  12.179 -0.3573  0.3019 -0.2229
22799W        W38873   3.036  12.338   3.356  0.0125  0.0192  0.2697
22800W        W38874   5.049   1.700  15.139  0.3418 -0.2318  0.1835
22801W        W38875   0.908  16.735  15.210  0.1533  0.2019  0.0744
22802W        W38876  13.645   7.202   0.691  0.1408 -0.0517 -0.1342
22803W        W38877  17.297  15.576   0.124 -0.1644 -0.1992 -0.0702
22804W        W38878   7.160  15.232   1.822  0.1341 -0.2179  0.1048
22805W        W38879   6.997   5.254   4.789  0.0127  0.1350  0.3446
22806W        W38880   4.299  13.032   1.681  0.2667  0.0312  0.2547
22807W        W38881  15.706  16.500   3.264  0.0443  0.3618  0.2777
22808W        W38882   0.428   0.258  13.042 -0.1045 -0.1357 -0.2135
22809W        W38883   9.937  15.554   0.797 -0.1104 -0.2859  0.2245
22810W        W38884   1.654   0.904   2.132  0.2097 -0.2640 -0.3709
22811W        W38885  12.186  16.204   1.772  0.0868 -0.2627 -0.2136
22812W        W38886  10.527   3.086  13.881  0.1152 -0.0246  0.2484
22813W        W38887   6.094  18.330   4.379 -0.0326  0.1190 -0.0463
22814W        W38888   6.695  13.236  12.271  0.1045  0.0480 -0.1478
22815W        W38889   1.523  16.068   1.793 -0.2960 -0.0726  0.0805
22816W        W38890  10.542  11.418   4.287 -0.1066  0.2580  0.1571
22817W        W38891   1.564  13.160   1.833 -0.1289  0.0521  0.2327
22818W        W38892  17.252  12.375  14.793 -0.1472 -0.2851 -0.0999
22819W        W38893   7.896  14.264  12.262 -0.1247  0.0373  0.1573
22820W        W38894   6.714   2.220  15.911  0.1706  0.2746  0.0994
22821W        W38895   4.442  13.956   2.206  0.1473 -0.0996  0.0892
22822W        W38896  14.499  14.556   5.958 -0.2973 -0.0910 -0.0523
22823W        W38897   0.472   9.903  11.589  0.0072 -0.2877 -0.1317
22824W        W38898  15.122  12.654   3.514 -0.1697 -0.2118 -0.2876
22825W        W38899   8.307  10.851  11.525 -0.1044  0.1296  0.0493
22826W        W38900  10.124  11.939   0.715  0.0833  0.0136  0.2099
22827W        W38901  11.074   5.190  15.128  0.1354  0.1274 -0.0511
22828W        W38902   4.269  13.770   4.878 -0.2090 -0.0062 -0.1317
22829W        W38903  10.574   4.244   2.581 -0.1172  0.0070  0.3462
22830W        W38904   0.972   4.095  12.906  0.0505 -0.4157  0.1692
22831W        W38905  13.277  17.105  12.350  0.0217 -0.0314  0.0119
22832W        W38906  13.816  14.599   0.789  0.1655 -0.1060  0.1966
22833W        W38907   9.410  15.396  12.028 -0.1853  0.0005 -0.0774
22834W        W38908   8.787   1.514  11.380 -0.2376 -0.1423 -0.0561
22835W        W38909   6.189   6.029   3.464 -0.0862 -0.0501  0.2052
22836W        W38910  10.266   9.260   5.501  0.1135  0.3637 -0.1837
22837W        W38911   5.715   9.740   0.979  0.0676  0.2848  0.1319
22838W        W38912   2.100  13.692  14.187  0.1672 -0.1776  0.1058
22839W        W38913  18.174   7.401  15.443 -0.0427 -0.0001  0.2163
22840W        W38914  10.896   3.223  11.237  0.0557  0.1288  0.3327
22841W        W38915  10.732   2.587   4.386 -0.1516  0.1466  0.1032
22842W        W38916   8.909   9.434   5.881  0.2297  0.0470  0.0197
22843W        W38917  14.063   5.753  13.400  0.1060  0.1021 -0.2285
22844W        W38918  14.102  10.560   0.894  0.0996  0.0100 -0.1491
22845W        W38919   6.593   9.446   2.851  0.0893 -0.2641  0.2295
22846W        W38920   6.343  14.581   1.055 -0.0407  0.2902  0.0020
22847W        W38921  15.019   3.633   4.844 -0.0061  0.1597  0.1147
22848W        W38922   8.432   7.108  11.317  0.0710 -0.1393  0.1711
22849W        W38923  14.428  10.702  16.098 -0.0995 -0.1562 -0.0607
22850W        W38924  12.861  11.554   2.789 -0.0885 -0.0701 -0.0234
22851W        W38925  15.450  10.278  15.937  0.1313 -0.0082  0.0434
22852W        W38926   9.255   6.065  12.634 -0.0388  0.2148  0.1871
22853W        W38927  14.299  12.222  11.898 -0.1728  0.0187 -0.1065
22854W        W38928   1.920   7.463  13.931 -0.3908 -0.2744 -0.0697
22855W        W38929   4.422   7.790   2.819  0.0340  0.0783  0.2134
22856W        W38930   2.070  11.304   1.370 -0.0782 -0.1972 -0.1890
22857W        W38931   5.940   1.596  15.625  0.0174 -0.0776 -0.0787
22858W        W38932   5.079  16.467   1.038  0.1252  0.1160  0.3417
22859W        W38933   5.459  14.613   4.450  0.3777 -0.3057  0.0537
22860W        W38934  18.143  15.780   0.603  0.1906 -0.1714  0.2793
22861W        W38935   1.212   5.253  13.443  0.0728 -0.0638 -0.1830
22862W        W38936  16.445  14.485   4.116 -0.5507 -0.0697 -0.2155
22863W        W38937   5.090   2.078   1.027 -0.0447 -0.0023  0.1604
22864W        W38938   9.806  13.147   2.185  0.0444  0.0620 -0.0951
22865W        W38939  11.701  13.578   3.858  0.0380 -0.1988  0.0672
22866W        W38940   7.650   6.418   6.185 -0.1097  0.3720 -0.0822
22867W        W38941   8.851   8.642  15.250  0.0402  0.4075 -0.0771
22868W        W38942   5.503   7.270  11.213  0.2102  0.0124 -0.0192
22869W        W38943  14.225   3.045   5.674  0.4335 -0.4913  0.4283
22870W        W38944   2.703  12.868  15.111 -0.2026  0.2920  0.0564
22871W        W38945   8.664   1.943   4.443  0.1934  0.1495 -0.0030
22872W        W38946   5.783   3.921   4.838 -0.2321 -0.0069 -0.0320
22873W        W38947  17.700  13.588   3.297 -0.3915  0.1023 -0.2684
22874W        W38948  13.513  11.751   1.981 -0.1115  0.0858 -0.1786
22875W        W38949  10.436   7.919  10.798 -0.0268 -0.2952  0.0513
22876W        W38950   6.092  18.016  14.389  0.2198 -0.1651 -0.1077
22877W        W38951   2.397   3.955   5.457 -0.3431 -0.1186  0.1587
22878W        W38952   2.741  13.414  11.156 -0.1158  0.0769  0.0543
22879W        W38953   3.522  15.092  15.097  0.1087 -0.3028  0.1751
22880W        W38954  15.646  10.975   1.519 -0.1056 -0.3820 -0.0027
22881W        W38955  13.845  12.072  11.981 -0.2616  0.1104 -0.1707
22882W        W38956  12.138  17.299   2.222  0.1675 -0.1177  0.0753
22883W        W38957  11.289  11.973   2.437  0.0798  0.1685  0.0196
22884W        W38958  17.270  15.264  15.768 -0.0122 -0.0605 -0.2072
22885W        W38959  14.814  17.755   0.492  0.2202  0.0766 -0.0947
22886W        W38960  10.909   0.652   0.624  0.1409 -0.1318  0.1495
22887W        W38961  17.953   7.039  13.600  0.1358  0.2919 -0.0335
22888W        W38962   8.116   8.498  11.325  0.0704  0.0851  0.0458
22889W        W38963   3.788  17.807   5.522  0.2512  0.2892 -0.0270
22890W        W38964  17.876   6.489  12.341 -0.0145 -0.2624  0.3068
22891W        W38965  15.394   7.759   0.470 -0.2984  0.1008 -0.1749
22892W        W38966   0.184   5.667   5.454  0.2252  0.2598 -0.1991
22893W        W38967   0.755  13.898   4.317  0.2643 -0.0987 -0.0453
22894W        W38968   8.707   7.379   2.853  0.1702  0.0495 -0.5895
22895W        W38969  10.530  16.357  13.369 -0.0356 -0.0747  0.1287
22896W        W38970  14.357   4.618  14.878  0.1399 -0.2475 -0.1414
22897W        W38971   2.775  12.648   0.938 -0.1052  0.1607  0.2584
22898W        W38972  12.420   3.276   0.668  0.2520 -0.0172 -0.0756
22899W        W38973  17.507  11.800  11.820  0.0809  0.0734  0.3506
22900W        W38974  16.819  14.606   5.241  0.1171 -0.0072 -0.0193
22901W        W38975  16.954  13.512   5.139 -0.3175  0.1391  0.0101
22902W        W38976   0.204   7.319   2.492 -0.1162 -0.1156  0.2259
22903W        W38977  10.784   5.339  13.243  0.1099  0.1497  0.0733
22904W        W38978  13.078   4.019  15.139  0.0366  0.1309 -0.0556
22905W        W38979   1.962   5.210  15.651  0.0905  0.1245 -0.2182
22906W        W38980   3.664  15.258  11.302  0.0077 -0.0566 -0.0963
22907W        W38981  13.224  18.026  12.468 -0.2611  0.0786 -0.2427
22908W        W38982   7.236   8.121   0.965 -0.1509 -0.1981  0.0896
22909W        W38983  14.068   4.059   1.953  0.0552 -0.1439 -0.1401
22910W        W38984   8.948   6.247  11.111 -0.1107  0.1734 -0.2186
22911W        W38985  16.417   7.343  11.738 -0.1003 -0.0008  0.2637
22912W        W38986  17.304  16.924   4.594 -0.1929 -0.0944 -0.2286
22913W        W38987   4.384  10.395  14.655  0.0711  0.1512 -0.0221
22914W        W38988  11.806   8.718  14.099 -0.0252  0.2276  0.0066
22915W        W38989  14.224  17.673  15.777 -0.1102  0.1052  0.0859
22916W        W38990  11.118   5.025   6.025  0.1132 -0.1230 -0.3368
22917W        W38991  15.757   5.757  12.419 -0.1312  0.0649  0.5063
22918W        W38992  12.396  17.590   1.224  0.1999 -0.0518  0.0149
22919W        W38993  16.321   3.587  14.946 -0.0911 -0.0318  0.2137
22920W        W38994   3.078   3.132  12.913 -0.3198  0.4086 -0.0435
22921W        W38995   3.025  12.233   0.985 -0.3827 -0.0716 -0.0132
22922W        W38996  10.201  12.065  15.794 -0.0434 -0.0966  0.1864
22923W        W38997   9.579   0.699   2.359  0.5570  0.0490  0.3098
22924W        W38998  17.265  15.624   3.075 -0.0532  0.0875 -0.1527
22925W        W38999  14.458   5.453   2.422 -0.1603  0.1175 -0.0015
22926W        W39000   6.158   8.112  14.749  0.1765 -0.2454  0.2650
22927W        W39001   7.858   8.768   0.827 -0.0362 -0.1376  0.1906
22928W        W39002   6.419   6.023   1.828  0.0692 -0.2048 -0.1355
22929W        W39003   1.786   5.450   2.021  0.0802  0.0096  0.1523
22930W        W39004   0.575   9.186  13.661  0.1510  0.0687  0.0370
22931W        W39005  11.471  16.110  12.781 -0.0695  0.1502 -0.2174
22932W        W39006  11.816  11.945  16.074 -0.1732 -0.2204  0.0201
22933W        W39007   6.998   4.781  11.616 -0.1725 -0.1091 -0.4733
22934W        W39008   4.599   6.619  14.159  0.2856 -0.1919 -0.3237
22935W        W39009  16.601   4.937  14.252  0.1826 -0.1719  0.0720
22936W        W39010   3.912   3.723   3.649 -0.0047 -0.0493  0.0625
22937W        W39011  11.182   4.891   4.984 -0.0776  0.0340  0.1144
22938W        W39012   2.420   7.842   0.281  0.1839  0.2765 -0.0253
22939W        W39013  15.809   0.162   3.882 -0.0113 -0.2094  0.2489
22940W        W39014  13.180   4.956   0.454  0.3102  0.1183  0.1151
22941W        W39015  17.828  16.754   1.697 -0.2373 -0.0926  0.0118
22942W        W39016  12.559   4.235   4.758 -0.1614  0.0527  0.2275
22943W        W39017  13.556  14.317  11.565 -0.2982  0.4945  0.2259
22944W        W39018   8.345  14.135  12.545 -0.0762  0.0362  0.2379
22945W        W39019   5.031   5.389   3.150  0.0644 -0.2850  0.3265
22946W        W39020   2.408   9.778   2.193 -0.0272 -0.0961 -0.0053
22947W        W39021   4.165  15.511   5.061 -0.0470 -0.0236 -0.1028
22948W        W39022  13.834   6.238   3.600 -0.1710 -0.3830  0.1126
22949W        W39023  12.461   8.192  13.940  0.0932  0.0196  0.0975
22950W        W39024   7.944   4.787   2.522  0.0700 -0.3251  0.0521
22951W        W39025   9.963  12.389   3.294 -0.1890  0.1119  0.0321
22952W        W39026  12.907  13.413  16.015  0.2298  0.0040 -0.4247
22953W        W39027   8.854   8.590  15.830  0.6324 -0.3073  0.3157
22954W        W39028  12.583  15.372   2.903  0.2656  0.0249  0.3317
22955W        W39029  14.540  15.153  12.950 -0.0962 -0.0281  0.0840
22956W        W39030   4.712  13.354  16.352  0.1465  0.2904  0.0419
22957W        W39031   5.005  14.647  11.331 -0.3430 -0.1604 -0.2907
22958W        W39032   3.483   9.227   1.047 -0.1441 -0.0494 -0.0165
22959W        W39033  17.632   0.950  13.212  0.0521 -0.0844 -0.0598
22960W        W39034   5.857  17.861   4.444  0.1428  0.4319  0.0722
22961W        W39035   0.146   3.324  15.848 -0.0269  0.2006  0.1322
22962W        W39036   5.287  16.408   2.666  0.0543 -0.0174 -0.1636
22963W        W39037  12.509  13.821  16.145  0.2406 -0.2464 -0.0241
22964W        W39038   7.594   9.884  16.233  0.1278  0.2623  0.0779
22965W        W39039   0.592   0.041   3.630 -0.1275  0.0622  0.1807
22966W        W39040  17.013   8.265   1.964  0.2659 -0.1110 -0.0797
22967W        W39041   5.029  17.982  14.486 -0.1629 -0.0596 -0.1147
22968W        W39042   5.065  13.795  14.829 -0.3489  0.3617 -0.2102
22969W        W39043  13.707  10.263   4.385  0.3962  0.0042  0.0407
22970W        W39044   5.988   1.930  14.866 -0.1169  0.2376  0.0487
22971W        W39045  10.665  11.585  13.656 -0.4474 -0.0235 -0.3144
22972W        W39046  10.950   7.719   5.168 -0.1699 -0.3729 -0.2505
22973W        W39047   6.292   1.944  15.576  0.1499 -0.0657  0.1382
22974W        W39048  17.988  11.268   0.343  0.2716  0.1248  0.1612
22975W        W39049   7.129  12.349  11.975 -0.0805  0.0146  0.2209
22976W        W39050   0.802  14.966   2.497 -0.1664  0.3425 -0.3558
22977W        W39051  10.106  11.562  14.278  0.1396  0.4251  0.0110
22978W        W39052  18.090   1.740  14.420 -0.0274  0.0588 -0.2995
22979W        W39053  12.245   1.867  14.270  0.2086  0.1362 -0.1621
22980W        W39054  10.631  18.045   0.541  0.1909 -0.1187 -0.0125
22981W        W39055   0.782   6.064  12.166 -0.4210 -0.2955  0.0387
22982W        W39056  17.727  15.640  16.158 -0.5443 -0.2671 -0.0064
22983W        W39057   4.780  13.389  15.526 -0.1894  0.0056 -0.2995
22984W        W39058  17.483   5.357   1.433 -0.0133  0.0380  0.1492
22985W        W39059   6.223   4.501  12.049  0.4459 -0.3774  0.1932
22986W        W39060   2.106   3.208  13.985 -0.0704 -0.1523 -0.0481
22987W        W39061  15.761  17.528   1.734  0.0890 -0.1969 -0.0769
22988W        W39062  10.767   3.196  15.029  0.1614 -0.0909  0.0832
22989W        W39063  10.293   0.444   2.149 -0.1513 -0.1802  0.0449
22990W        W39064   2.346  13.902   3.440  0.1561 -0.2109 -0.0146
22991W        W39065  12.092   3.563  12.253 -0.1263  0.0293 -0.0692
22992W        W39066   4.126   1.301  11.166 -0.1939 -0.2510 -0.2293
22993W        W39067   3.225  13.070  12.414 -0.4938 -0.0157 -0.0565
22994W        W39068  13.866   3.238  15.777  0.3017  0.2408 -0.2411
22995W        W39069  16.337  17.625  12.209 -0.1300  0.2644  0.0113
22996W        W39070   5.566   1.812  12.092 -0.0177  0.0508 -0.2494
22997W        W39071   7.000   0.540  13.563  0.1131  0.2462 -0.0177
22998W        W39072   4.290   7.471   2.426  0.1261  0.0390 -0.2370
22999W        W39073   7.484   8.134   3.663  0.1461 -0.1241  0.0071
23000W        W39074   2.455  13.589  12.452 -0.0251 -0.3768 -0.0211
23001W        W39075   9.592  14.519  14.722  0.0174  0.2650  0.1169
23002W        W39076   8.856   3.692  14.077 -0.2584 -0.0029 -0.1973
23003W        W39077   0.812   2.885  12.429  0.1514  0.0101 -0.2233
23004W        W39078   1.787   2.571  15.111 -0.0369  0.0251  0.1855
23005W        W39079  14.450  12.806  13.036 -0.0099 -0.0457 -0.0511
23006W        W39080  11.117   4.657   4.517 -0.0966 -0.0139  0.1462
23007W        W39081  10.630   8.384  14.294  0.1571 -0.1218 -0.1040
23008W        W39082  10.337   6.777  15.880 -0.1381  0.2069  0.2003
23009W        W39083  13.537   1.385  15.946 -0.0657  0.1187 -0.1622
23010W        W39084   0.484  11.640   5.507  0.0121  0.1930 -0.2546
23011W        W39085  18.125   3.899   3.638  0.1493  0.1214  0.0498
23012W        W39086   1.676  11.920  14.769  0.1405 -0.1332 -0.1038
23013W        W39087   0.095   6.617  12.416 -0.3798 -0.1375  0.2244
23014W        W39088  17.559   4.971  11.719  0.1969  0.1130 -0.0790
23015W        W39089   7.041  17.038   1.660 -0.0088 -0.2435  0.1077
23016W        W39090  12.533   8.015  13.008 -0.3166 -0.1055 -0.1555
23017W        W39091  10.924  12.174   0.105 -0.0341  0.3320  0.2934
23018W        W39092  12.443   8.748  11.514  0.2185 -0.0195 -0.0391
23019W        W39093   8.742   2.086   0.136 -0.0918 -0.1645 -0.2280
23020W        W39094   6.026  16.485   6.056  0.1352 -0.3546  0.3454
23021W        W39095   9.332  17.869   5.517  0.0403  0.1619 -0.3735
23022W        W39096   8.538  13.010   5.214  0.0498 -0.3008  0.1237
23023W        W39097  15.720   4.620   4.804  0.2107  0.3000 -0.0700
23024W        W39098  15.817  16.801   4.697  0.2500 -0.1787 -0.0494
23025W        W39099   1.208   9.769  11.854 -0.0476  0.2354 -0.3636
23026W        W39100  11.955   5.325   0.514  0.0978  0.1171  0.1286
23027W        W39101  18.224  11.304   1.982 -0.2376 -0.0884 -0.1638
23028W        W39102   4.597  10.907   5.216 -0.1120 -0.0441 -0.3056
23029W        W39103   9.768   9.982   0.828  0.0319  0.1827 -0.1171
23030W        W39104  10.205   6.211   1.629  0.0554 -0.1836  0.1626
23031W        W39105   1.188   7.018  12.523  0.2456 -0.0993  0.1693
23032W        W39106  18.086  11.725   5.233 -0.3068 -0.2087 -0.0296
23033W        W39107   4.137   4.229   0.925  0.1678 -0.0738 -0.2584
23034W        W39108  18.028  10.251   4.774 -0.3458  0.3500 -0.1078
23035W        W39109  13.079  12.941   5.411 -0.1815 -0.1235 -0.4444
23036W        W39110   1.359  12.611  14.168 -0.0499  0.0356  0.2297
23037W        W39111   9.310   7.098   2.227 -0.1965 -0.1678 -0.0025
23038W        W39112  17.837   5.465   0.733  0.1467  0.2020 -0.0558
23039W        W39113  13.285  16.962   3.998 -0.2294 -0.2395  0.0602
23040W        W39114  12.550   7.319   3.779 -0.3228 -0.1898 -0.1024
23041W        W39115   9.156   0.865   3.193  0.0846  0.0638 -0.5111
23042W        W39116  16.161  17.850  13.573  0.0135 -0.0506 -0.1266
23043W        W39117   1.086  14.089  14.438 -0.0075 -0.0332 -0.2032
23044W        W39118  18.147  14.277  13.983 -0.2171 -0.1461  0.3393
23045W        W39119  10.400  14.342   5.394 -0.0747  0.1184  0.1930
23046W        W39120   8.311  18.005  15.635 -0.0018  0.0420  0.0484
23047W        W39121   3.605  14.410   5.568 -0.0133 -0.1242 -0.1276
23048W        W39122   6.024   4.703   2.080  0.1800 -0.0168 -0.5001
23049W        W39123   0.596  11.915   0.141 -0.2359  0.1235  0.1091
23050W        W39124   5.131   5.006  11.699 -0.0015 -0.1555  0.1179
23051W        W39125   3.479   4.014   1.571  0.0601 -0.3966  0.1371
23052W        W39126   6.407   8.627  12.255 -0.2865 -0.1432 -0.2847
23053W        W39127  17.770   5.038   3.535  0.1751 -0.0176 -0.1186
23054W        W39128   2.484  14.203   0.618  0.1195  0.0907  0.3410
23055W        W39129   4.644   8.029  16.376 -0.0958  0.2761 -0.0461
23056W        W39130  14.399   2.438   4.685 -0.2148  0.0708  0.2734
23057W        W39131   2.196   5.437   3.764 -0.0209 -0.4722  0.4274
23058W        W39132   4.505   0.546  14.912  0.3073 -0.0453 -0.0617
23059W        W39133   3.412   9.526   2.075 -0.0334  0.0005 -0.3134
23060W        W39134  15.195   9.102  14.472 -0.1175  0.0819 -0.0790
23061W        W39135   8.640   0.162  16.343 -0.1071  0.0551 -0.0266
23062W        W39136   6.737  14.892   5.811 -0.0748  0.0978 -0.0881
23063W        W39137  14.714  14.006   2.560 -0.0672 -0.0899  0.2602
23064W        W39138   5.259  10.855   2.669  0.1737 -0.1976  0.0253
23065W        W39139  12.623  10.440  15.135  0.0012 -0.0355  0.2846
23066W        W39140   6.400  14.516   0.543 -0.1162 -0.3611 -0.1920
23067W        W39141  13.307   0.827   1.788  0.1317 -0.1511 -0.1966
23068W        W39142   7.779   7.265  13.544  0.2863  0.1112 -0.2040
23069W        W39143  17.551   4.274  13.547 -0.1474  0.0030  0.2063
23070W        W39144   7.231   5.731  11.552 -0.3289 -0.0219  0.0241
23071W        W39145   9.013  15.955  14.636 -0.2383 -0.2218  0.1622
23072W        W39146   2.592   8.129  12.226 -0.0645 -0.1177 -0.1538
23073W        W39147   4.398  13.929  11.512  0.3216  0.1220 -0.0051
23074W        W39148  10.608   0.801  16.118 -0.0810 -0.1384  0.2209
23075W        W39149  14.421  15.899   2.609 -0.4327 -0.2193 -0.0786
23076W        W39150  12.349   0.873  12.290  0.3477 -0.1395 -0.0756
23077W        W39151  13.913   5.809  16.051  0.0524  0.2040 -0.0844
23078W        W39152  12.038   4.017   3.429  0.1888  0.0321  0.1382
23079W        W39153   2.299  12.020  11.587 -0.4718  0.4009 -0.4945
23080W        W39154   5.400  17.531   1.001  0.5105  0.3759 -0.0583
23081W        W39155  14.495  15.014  12.477 -0.0624 -0.1245 -0.1487
23082W        W39156   2.510   6.657   0.863  0.5328  0.2340  0.0366
23083W        W39157  13.784  10.152   2.171  0.1653  0.0226  0.2260
23084W        W39158   1.435  17.916   1.988  0.1550  0.1243 -0.0047
23085W        W39159   7.529  13.695  14.949 -0.2313 -0.0477 -0.0264
23086W        W39160   2.119  16.961  12.769 -0.0001 -0.1325 -0.2289
23087W        W39161   7.810  16.114   0.321  0.0214 -0.1446  0.0627
23088W        W39162   0.433  15.902   4.383  0.0462  0.2852  0.0888
23089W        W39163   9.794   2.553   1.792  0.1537 -0.1733  0.1674
23090W        W39164   0.898  13.424  15.721  0.0178 -0.1844 -0.0077
23091W        W39165  11.717   4.448  14.077  0.0166  0.2833  0.0472
23092W        W39166   3.753  18.174  13.187 -0.1585 -0.0753  0.2257
23093W        W39167  16.999  10.461   2.254 -0.3125 -0.1783  0.2636
23094W        W39168   7.685  15.289  15.296  0.2981 -0.0893  0.0219
23095W        W39169  10.233   6.758   0.857  0.0414 -0.3794 -0.4603
23096W        W39170   0.129   1.947  14.104  0.1857  0.0774 -0.2813
23097W        W39171  10.026  12.336  15.309  0.0565  0.3818  0.2381
23098W        W39172  11.543   8.645   1.758  0.1416  0.0834 -0.0794
23099W        W39173   7.561   7.616  13.291  0.2004 -0.3666  0.2748
23100W        W39174   2.842   9.694   2.019  0.0320  0.1265  0.1905
23101W        W39175   0.163  17.161   0.370  0.1597  0.1024 -0.3039
23102W        W39176   2.914   6.163   2.756  0.1116 -0.0124  0.0767
23103W        W39177   3.005  14.900   5.786  0.1801 -0.1541  0.2055
23104W        W39178  14.790  14.615   3.981  0.1896 -0.1735  0.1071
23105W        W39179  10.803  10.394   0.477 -0.3786 -0.1843  0.1597
23106W        W39180   0.202   9.330  14.803  0.1566  0.0701 -0.1759
23107W        W39181   5.885   4.215  15.757 -0.3578 -0.0246  0.3167
23108W        W39182  13.301  18.165   1.314 -0.0617  0.3824  0.2224
23109W        W39183   3.420   3.441   0.617  0.2196  0.1036 -0.1020
23110W        W39184   9.230  16.680   2.444  0.0964  0.1356  0.0151
23111W        W39185   9.984   4.045  15.844 -0.0306  0.1616 -0.0967
23112W        W39186   8.038  12.217  14.081  0.3225  0.0850 -0.0143
23113W        W39187  16.459   9.208  15.272  0.1427  0.3309 -0.0244
23114W        W39188  18.156  10.611  14.118  0.1341 -0.1035 -0.1106
23115W        W39189  15.976  13.708   3.559 -0.1215 -0.4508  0.0668
23116W        W39190   4.541  15.184   2.123  0.0725 -0.2108  0.0586
23117W        W39191   6.191   7.806   2.094 -0.4025  0.2985 -0.3495
23118W        W39192   7.512   0.942   0.121 -0.0119 -0.3165 -0.1229
23119W        W39193   4.466   9.190   0.581  0.0846 -0.0637 -0.3380
23120W        W39194   0.598   0.296  11.591  0.0257 -0.4887  0.1360
23121W        W39195  14.672   6.615   2.740  0.1000  0.0704  0.1649
23122W        W39196  14.331   9.548   3.738  0.1189  0.0488  0.0941
23123W        W39197  13.106  15.819  14.570 -0.0355 -0.0691 -0.1242
23124W        W39198   4.294   4.009  15.759  0.1712 -0.2418  0.0677
23125W        W39199   8.983   6.353  13.748 -0.1692  0.0329 -0.1934
23126W        W39200  16.198  15.147  13.392  0.0156 -0.3056 -0.0978
23127W        W39201   7.004  11.458   4.398 -0.0918  0.0198 -0.0425
23128W        W39202  10.215  11.855   1.217  0.0294  0.1360  0.0014
23129W        W39203  14.055  13.353  12.587  0.2869 -0.2849  0.1261
23130W        W39204  15.618  12.769  13.807 -0.0743 -0.0296  0.1101
23131W        W39205  11.043  11.455  16.142 -0.1358 -0.1325 -0.0109
23132W        W39206   3.299   4.609  12.305  0.2871  0.0590  0.4817
23133W        W39207  18.038   1.084   0.861  0.2121 -0.2306 -0.3375
23134W        W39208  12.889  15.674   0.019  0.1556  0.1257  0.1077
23135W        W39209  14.938  14.261   4.369 -0.1289 -0.1000 -0.2070
23136W        W39210   8.628   3.655   3.341 -0.1561  0.4101  0.0447
23137W        W39211   5.483   5.993   0.328  0.4538 -0.0352 -0.3783
23138W        W39212   2.822   1.103  12.976  0.1436 -0.3335 -0.1765
23139W        W39213  18.260  14.265  14.716 -0.0120  0.2865 -0.0787
23140W        W39214  13.125  12.958   2.026 -0.2651 -0.0011  0.0483
23141W        W39215   3.650   8.175  12.118 -0.3015 -0.0268 -0.0243
23142W        W39216  12.622  12.987  13.194  0.0569 -0.0056 -0.1856
23143W        W39217  13.307  12.998   6.330 -0.0387  0.0244 -0.0905
23144W        W39218   9.106  10.628  13.092  0.2438  0.2845  0.0680
23145W        W39219   9.576   9.285   3.802 -0.2092  0.3325 -0.0482
23146W        W39220  10.037  14.655   5.425 -0.0524  0.1285 -0.0349
23147W        W39221  13.460  11.982   5.209 -0.1975 -0.1579  0.3198
23148W        W39222  16.616  12.629   4.104  0.3143  0.3848  0.0929
23149W        W39223  12.976   6.225  12.240 -0.2934  0.0666  0.1046
23150W        W39224  13.735  17.977  14.935  0.0815 -0.1927  0.3188
23151W        W39225  13.205  13.089  14.640 -0.1002  0.4159  0.0079
23152W        W39226  18.153   0.564   3.103 -0.0099 -0.6069 -0.2364
23153W        W39227  11.664   2.294  13.639  0.0143 -0.1215 -0.0715
23154W        W39228   1.979   0.705   5.043  0.0283 -0.0974 -0.1245
23155W        W39229  14.108   5.241  13.261 -0.0913 -0.0288  0.0971
23156W        W39230   1.746   0.074   1.586 -0.1086 -0.2922 -0.1955
23157W        W39231  15.952   1.235  12.374  0.1636 -0.0481  0.0341
23158W        W39232   1.423  13.375   0.087 -0.1288  0.0832 -0.0707
23159W        W39233  17.721  13.931   0.932 -0.1973 -0.3012 -0.1558
23160W        W39234   8.850   7.777   1.220 -0.1929 -0.0087 -0.1814
23161W        W39235   7.839  14.915  15.752  0.0026 -0.0441  0.2021
23162W        W39236  10.856  12.997  13.741 -0.0590  0.0489 -0.1451
23163W        W39237   0.190   3.501   2.895  0.0082 -0.2519 -0.0722
23164W        W39238  11.659  13.931  15.703  0.0853 -0.2750 -0.1553
23165W        W39239   3.141   0.565  14.940 -0.1647 -0.0558 -0.1691
23166W        W39240   1.847  11.986  11.396 -0.1727 -0.1983  0.0553
23167W        W39241  10.762  16.116  11.409 -0.4701 -0.1627 -0.0724
23168W        W39242   5.558   2.086  16.295  0.0600 -0.2487 -0.2914
23169W        W39243   6.004   7.900  12.242 -0.0552  0.1086 -0.3549
23170W        W39244  17.565   8.241  15.868  0.1731  0.0144  0.4478
23171W        W39245  12.796   5.097  16.323  0.0724  0.1283  0.2892
23172W        W39246  11.000   1.473  12.165 -0.2581 -0.0084  0.0859
23173W        W39247  13.978  11.939  15.544 -0.1160  0.2538  0.2548
23174W        W39248  15.170  15.286   5.844 -0.2725  0.2721 -0.2360
23175W        W39249  15.521  15.969  16.255  0.0380 -0.1254 -0.4240
23176W        W39250   4.234   5.240  12.917 -0.0618 -0.1012  0.4273
23177W        W39251   0.994   1.220  16.130 -0.0543  0.0855  0.4010
23178W        W39252   2.823   7.733  11.859  0.0666 -0.0908 -0.2035
23179W        W39253   0.961  18.019  12.114  0.2208  0.2365  0.2318
23180W        W39254   5.824  12.249   0.332 -0.0060 -0.0504 -0.1655
23181W        W39255   1.360   8.529   2.593 -0.2034 -0.0646  0.2565
23182W        W39256  12.620   8.481   2.397 -0.1372  0.1053  0.2402
23183W        W39257  17.100   1.826   1.600 -0.1351 -0.2526 -0.3194
23184W        W39258   8.695   1.727  16.111  0.0664 -0.0638  0.0493
23185W        W39259   1.115  11.002  11.329 -0.0988  0.0557 -0.1881
23186W        W39260  15.293  10.810  14.409  0.0888  0.4183 -0.1443
23187W        W39261  13.165  10.476   2.835  0.0840  0.0880  0.1425
23188W        W39262   4.340   3.335   3.277 -0.1243 -0.1541 -0.1604
23189W        W39263   1.997   4.895   3.743 -0.2480 -0.1426 -0.1602
23190W        W39264   2.230  15.462   2.336 -0.2684  0.0177  0.1165
23191W        W39265   8.112  10.900  12.006 -0.1392 -0.3481  0.0210
23192W        W39266  14.089   1.064   0.147 -0.0494 -0.2244  0.0839
23193W        W39267  13.528  11.037  15.474  0.4520  0.2895  0.0949
23194W        W39268   5.339  13.990  15.895 -0.0660  0.2050 -0.2157
23195W        W39269  11.013   6.188   2.668  0.3159 -0.0389  0.0277
23196W        W39270   6.087  15.910   0.703  0.2516 -0.1572  0.3084
23197W        W39271  13.198   1.709   0.002  0.0808 -0.0256  0.1876
23198W        W39272  12.507   0.569   3.287 -0.3229  0.1504  0.1057
23199W        W39273  15.778  15.712   1.646 -0.1526 -0.3480  0.0867
23200W        W39274   3.967  10.873  13.021 -0.1524  0.1289 -0.0146
23201W        W39275  16.660   2.324  13.404 -0.2248 -0.3043  0.1543
23202W        W39276   5.929  11.741   3.653 -0.0773  0.0227  0.2128
23203W        W39277  15.890  12.084   3.889 -0.2585 -0.3668  0.3126
23204W        W39278   6.850   4.407  10.390  0.1319 -0.1439 -0.0226
23205W        W39279   9.578   8.251   1.914  0.1615  0.2338  0.3869
23206W        W39280   2.602  10.221   1.991 -0.0866  0.1468  0.2317
23207W        W39281  14.079   1.600   5.155  0.0848  0.0017  0.1728
23208W        W39282   5.068   1.772   0.623 -0.2386 -0.2998 -0.0517
23209W        W39283  13.819  12.020   3.313  0.4162  0.1816  0.0187
23210W        W39284  18.013  13.045   5.705  0.1794  0.2504 -0.2321
23211W        W39285   1.063  14.029  13.112  0.1774  0.2097  0.2210
23212W        W39286   6.150  17.759  15.389  0.4174 -0.0406  0.0175
23213W        W39287   3.490  12.845  13.690 -0.2946 -0.1050  0.0062
23214W        W39288  13.626   1.614  13.117 -0.0913  0.1881  0.2137
23215W        W39289  11.671  17.165  15.382  0.0611  0.0594  0.1355
23216W        W39290  17.544   7.357   2.886  0.1788 -0.2562 -0.1890
23217W        W39291   5.377   6.024   3.030 -0.2512  0.1610 -0.2783
23218W        W39292   5.416  17.805  15.971 -0.4572  0.1514 -0.2766
23219W        W39293   9.298   9.170  12.479  0.2015  0.0677 -0.0389
23220W        W39294  17.262   0.689   4.739 -0.2373 -0.0325 -0.1354
23221W        W39295   7.432   6.746  10.708  0.0602 -0.3719 -0.3065
23222W        W39296   8.032  14.651   2.076 -0.0981  0.3342 -0.2642
23223W        W39297  18.267   4.276   5.332  0.0429  0.0708 -0.0993
23224W        W39298  17.272   0.038  11.853 -0.1391 -0.0236 -0.0551
23225W        W39299  13.021  13.377  13.852 -0.1133 -0.4213 -0.2238
23226W        W39300   0.171   8.717   5.332  0.3175  0.1358  0.1547
23227W        W39301   7.173  17.726   5.848  0.1487 -0.0929 -0.1758
23228W        W39302   0.082   1.566  12.930 -0.5514 -0.4487  0.0944
23229W        W39303   6.352  18.108  12.132 -0.4043  0.1005 -0.2931
23230W        W39304   4.004   4.782   0.856 -0.1878 -0.1254 -0.0659
23231W        W39305  15.010   7.521   0.699 -0.0646 -0.1984 -0.1516
23232W        W39306   8.053   2.919  13.352 -0.1615  0.0690  0.3554
23233W        W39307   5.882   6.745   1.843  0.0237  0.1588 -0.1363
23234W        W39308  17.206  16.891  15.583 -0.2883 -0.2396  0.0376
23235W        W39309   4.734  13.494   0.836 -0.0952  0.1578 -0.0116
23236W        W39310   6.952   0.815   1.561 -0.3069 -0.2591  0.2928
23237W        W39311  15.103  17.778   2.442  0.0056 -0.0903  0.1306
23238W        W39312  14.515   5.083  13.652 -0.3730  0.2932 -0.2967
23239W        W39313   6.020  11.328  11.639 -0.1337 -0.0735 -0.2092
23240W        W39314  15.533  17.622  12.520 -0.1948  0.3007 -0.3957
23241W        W39315   9.130   1.413  11.764  0.0910 -0.2418 -0.0692
23242W        W39316   7.307   6.630  11.159  0.1047  0.1913  0.3043
23243W        W39317  15.779  15.178  12.534 -0.2084  0.3046  0.3162
23244W        W39318   6.399   7.439   5.053 -0.0948  0.2100  0.0140
23245W        W39319  16.716  15.240   5.285  0.1850 -0.0912  0.1100
23246W        W39320   9.732  15.989   4.083  0.2620 -0.1353 -0.2525
23247W        W39321   8.391   8.638  15.626  0.2484 -0.0338  0.0492
23248W        W39322   0.466   3.999   1.422  0.0719  0.1821  0.1819
23249W        W39323  11.723   1.719  15.649  0.3457  0.0239  0.2987
23250W        W39324   6.654   8.439   5.255  0.1304 -0.1635  0.1979
23251W        W39325   2.282  15.817  12.281  0.2678 -0.1521  0.2328
23252W        W39326   1.469   9.210  13.509  0.1687 -0.0257  0.0640
23253W        W39327   8.374  17.639  15.087 -0.6241 -0.2548 -0.0501
23254W        W39328  14.337   2.561  13.729  0.1815  0.1344  0.2513
23255W        W39329   0.383  12.867   1.233 -0.0191 -0.0377 -0.0477
23256W        W39330  12.071   4.033   0.618 -0.0395 -0.2558  0.2405
23257W        W39331  16.103  18.073   1.700  0.4551 -0.2110  0.2121
23258W        W39332   0.286  16.184  15.232  0.3202  0.1077 -0.3129
23259W        W39333   7.515   9.236  14.855 -0.1952  0.2886  0.1519
23260W        W39334  11.394  14.934   5.294  0.1505  0.2855 -0.0513
23261W        W39335   0.379  12.944  16.334 -0.0605 -0.1749 -0.1891
23262W        W39336  12.027  16.972   2.898 -0.3283 -0.0257  0.0055
23263W        W39337   2.751   8.365   0.467  0.3816  0.0523  0.3865
23264W        W39338   0.529   0.755   1.377  0.1221  0.0857 -0.0484
23265W        W39339  14.464   1.469  14.353 -0.0621 -0.1286 -0.0254
23266W        W39340  14.544   5.666  14.019 -0.2725 -0.1205 -0.0390
23267W        W39341   1.399   6.173  11.868 -0.3895 -0.0898  0.0473
23268W        W39342   5.639   6.684   0.429 -0.0527 -0.1201  0.0503
23269W        W39343  12.151  10.568  15.300  0.0325 -0.0909 -0.2331
23270W        W39344  14.127  11.862   0.504 -0.0623 -0.7837  0.0875
23271W        W39345  10.942   9.164  13.508  0.0684  0.1608  0.1402
23272W        W39346  10.395  10.164  10.663 -0.0197 -0.0405  0.1406
23273W        W39347   1.150  16.611   5.303 -0.0092 -0.0378 -0.1269
23274W        W39348   3.876  14.832  15.927 -0.1958 -0.0251 -0.3028
23275W        W39349  13.364   2.047  15.615 -0.2389 -0.1205  0.0585
23276W        W39350   5.022   4.299   1.144  0.1233 -0.2736  0.3340
23277W        W39351   9.195  15.142   5.470  0.2528 -0.2695 -0.5743
23278W        W39352  16.503  13.796   3.426 -0.1051 -0.2302  0.2092
23279W        W39353   6.616  17.696  12.544  0.0034 -0.3038 -0.2264
23280W        W39354  17.957   7.131  12.785  0.2837  0.0314  0.1156
23281W        W39355   3.403   6.894  13.025  0.1228 -0.0096  0.3543
23282W        W39356   2.077   3.863   4.657  0.1747  0.0901 -0.2959
23283W        W39357  13.102  10.186  16.259 -0.1032 -0.0798 -0.3065
23284W        W39358   6.135   7.165  14.691 -0.0720 -0.3226 -0.0118
23285W        W39359  11.185   4.415  15.845 -0.2931  0.0043  0.0609
23286W        W39360  13.362  10.644  12.649  0.2503  0.2106 -0.1374
23287W        W39361   8.701  16.827  14.465  0.1591  0.1981 -0.0946
23288W        W39362   6.965   2.754  15.608  0.0075 -0.1664  0.1266
23289W        W39363   4.512  10.616   3.122 -0.0251 -0.0379  0.0670
23290W        W39364   5.958   7.999  16.149  0.0619 -0.0118 -0.1981
23291W        W39365  17.501   8.476  14.668 -0.2586  0.0878  0.1280
23292W        W39366  15.860   0.191   4.763  0.0519  0.1431  0.1508
23293W        W39367   7.156  12.835   2.696  0.0355 -0.2053 -0.3233
23294W        W39368   5.510   0.784  13.949 -0.0379  0.1097 -0.0682
23295W        W39369   4.635   0.909  11.496 -0.1944 -0.1531 -0.0463
23296W        W39370   1.477  13.684   1.794  0.2068  0.0232  0.1930
23297W        W39371  15.921   8.649   3.487 -0.1177  0.3288 -0.1440
23298W        W39372   5.639   5.134  12.430 -0.2562 -0.0041  0.2094
23299W        W39373  12.108   7.912   4.330  0.0518  0.1424 -0.0563
23300W        W39374   4.587  10.907   2.275 -0.2244  0.0044  0.2005
23301W        W39375  11.260  17.369  12.358 -0.0992  0.3727 -0.3414
23302W        W39376  12.203  14.083   4.207 -0.0272 -0.0120  0.1058
23303W        W39377   0.378   5.773   4.964 -0.1235 -0.0271  0.0676
23304W        W39378   9.986   0.817   3.678  0.0150  0.2431 -0.2017
23305W        W39379   1.749  13.022  14.147 -0.0688 -0.2020  0.0472
23306W        W39380  14.751  13.591   1.125 -0.0778 -0.1618 -0.2793
23307W        W39381   3.710  18.194   2.057  0.0991  0.1013  0.1909
23308W        W39382   7.051   1.863  13.228  0.0130 -0.1949  0.2139
23309W        W39383   7.008  18.117  11.165 -0.0122  0.3643  0.1708
23310W        W39384  16.020   4.913   3.982 -0.2824  0.0488 -0.3643
23311W        W39385  11.178   8.286  13.473  0.3259  0.2253 -0.1834
23312W        W39386   5.243  17.294  15.337  0.0576 -0.2257  0.0649
23313W        W39387  13.462   8.318  12.289  0.4453 -0.1000 -0.0973
23314W        W39388  12.151  17.980   5.082  0.1316 -0.0339  0.1176
23315W        W39389   0.365   8.698  12.792  0.1956  0.4135 -0.0799
23316W        W39390   8.797   6.057   1.395 -0.0334 -0.2095  0.1657
23317W        W39391   0.728   3.978  13.521 -0.0005  0.0611  0.0306
23318W        W39392  17.264   2.560   1.379  0.2206  0.0324  0.0923
23319W        W39393   3.517  14.545  13.247  0.0332 -0.0245  0.0374
23320W        W39394  11.188  11.292  15.429 -0.0283  0.0902 -0.1870
23321W        W39395   4.446  17.877   3.561 -0.0737  0.0382 -0.0112
23322W        W39396   6.475  10.724   3.285 -0.2872 -0.2234  0.0954
23323W        W39397  18.314   8.933  13.018 -0.1639  0.1548  0.0403
23324W        W39398  16.636  13.213   1.927 -0.0032  0.3038  0.1485
23325W        W39399   7.476   5.225   3.545  0.0562  0.3595 -0.1928
23326W        W39400   6.978  13.989  13.825 -0.2795  0.2398  0.2433
23327W        W39401   3.584   2.284  16.297  0.2580 -0.0165  0.0026
23328W        W39402   6.523   4.801  13.605 -0.1658 -0.3641  0.0325
23329W        W39403   0.137   7.271   0.275 -0.2700 -0.2893  0.0865
23330W        W39404   7.342   1.512   1.152  0.0668 -0.0281 -0.1569
23331W        W39405   4.386  14.590   5.094  0.1178  0.0877 -0.2043
23332W        W39406   5.232  10.474  15.365 -0.0985 -0.1241  0.2014
23333W        W39407   3.784  12.986  15.409  0.3432 -0.0399 -0.0579
23334W        W39408   4.032   2.636   1.181  0.1651  0.0397  0.0603
23335W        W39409   0.787   2.094   3.844 -0.3560 -0.0135 -0.0321
23336W        W39410   1.057  13.109   2.067  0.3050  0.0007  0.3449
23337W        W39411   5.394  11.525  15.556  0.2095  0.2045  0.0797
23338W        W39412   8.498  13.596   4.235 -0.2323 -0.4596  0.0918
23339W        W39413   6.734   2.087  12.888  0.2244 -0.2311 -0.2065
23340W        W39414  13.909   2.916  13.504  0.4876  0.0445 -0.1545
23341W        W39415   0.521  10.132   0.673  0.4751  0.2433 -0.3414
23342W        W39416   3.316  15.020  13.299 -0.3843 -0.2301  0.0525
23343W        W39417   2.029  13.683   1.083 -0.2177 -0.4851 -0.3204
23344W        W39418   4.341   3.806  14.366  0.1150  0.2202 -0.1310
23345W        W39419   3.361  18.012  11.365  0.0877  0.0440 -0.0918
23346W        W39420   5.180   3.500  13.844  0.1023 -0.0580 -0.0395
23347W        W39421  17.376   1.739   2.362 -0.2402  0.1000  0.0921
23348W        W39422   6.536   3.589  14.428  0.1845 -0.0232 -0.0690
23349W        W39423   1.066  12.400   2.607 -0.4007  0.0949 -0.0333
23350W        W39424  16.312   6.037  14.043  0.0436  0.1232 -0.2321
23351W        W39425   7.345   7.989  11.506 -0.1968  0.0316 -0.0220
23352W        W39426   6.969   6.345  16.004 -0.5717 -0.1986 -0.1736
23353W        W39427   1.911   7.726  11.472 -0.1565 -0.2012 -0.4171
23354W        W39428   9.992  17.937   3.168  0.1517 -0.3077 -0.0442
23355W        W39429  14.662  14.863  13.299  0.0549  0.1593  0.0686
23356W        W39430  12.189   1.203   2.366  0.1985  0.0102  0.1956
23357W        W39431   0.121   5.493   4.665  0.1518  0.1169  0.0037
23358W        W39432   2.902  11.099  15.874 -0.1026 -0.1019 -0.1412
23359W        W39433   1.541   1.822  12.401 -0.1033  0.0414  0.2307
23360W        W39434  10.463   1.591   2.724 -0.0240 -0.3536 -0.1567
23361W        W39435  14.736   1.945   1.320  0.0820 -0.0793  0.2393
23362W        W39436   6.996  12.873  12.164  0.0693  0.1921  0.2401
23363W        W39437   3.357   6.003  13.928 -0.0790 -0.1699  0.3524
23364W        W39438   0.056  12.366  13.695 -0.2074 -0.1060 -0.0700
23365W        W39439   4.403  11.023   1.336  0.1376 -0.1378 -0.0711
23366W        W39440  10.150  17.398   3.139 -0.2090 -0.3521 -0.2728
23367W        W39441   7.847   6.100  15.165 -0.4189  0.0641  0.0270
23368W        W39442  10.277  13.696  14.132  0.1265 -0.1494  0.3923
23369W        W39443   2.244  14.273  16.148  0.0425  0.1746  0.1881
23370W        W39444  14.697  17.427   4.436  0.0152  0.0884  0.0128
23371W        W39445   0.852  13.181  11.898 -0.2234 -0.0079  0.1593
23372W        W39446   5.410  10.502  15.819  0.0614 -0.0333  0.3634
23373W        W39447  16.562   8.980   1.052 -0.0576  0.0144 -0.1209
23374W        W39448  11.780  11.920   1.288  0.0715 -0.0066 -0.0679
23375W        W39449   3.130  14.137   1.400 -0.1425 -0.0584 -0.1067
23376W        W39450   5.166  14.848   0.091  0.0920  0.3720 -0.2231
23377W        W39451   3.402   2.595   3.136 -0.1136 -0.0249 -0.2758
23378W        W39452   8.471   2.628  13.288  0.0800 -0.0424 -0.3078
23379W        W39453   4.617  13.465   5.144 -0.0516  0.2617  0.1572
23380W        W39454   8.715  12.927   4.708 -0.1678 -0.1473  0.3569
23381W        W39455   7.262  17.729   2.017 -0.3227  0.0726  0.2236
23382W        W39456   4.229  10.101   2.010  0.0829 -0.1297 -0.0186
23383W        W39457   9.709   2.747  10.772 -0.3074  0.0537  0.0012
23384W        W39458  16.291   6.782   4.088 -0.0416 -0.1999 -0.4853
23385W        W39459   1.225   6.120   3.625 -0.1721  0.1014 -0.1839
23386W        W39460   0.127  15.528   4.563  0.3558 -0.3927  0.1733
23387W        W39461  14.299   0.290   1.360 -0.0373  0.0438  0.1373
23388W        W39462   8.919  10.482   0.781 -0.0794 -0.1246  0.0622
23389W        W39463  15.628   8.789   5.272  0.2912 -0.0071  0.1973
23390W        W39464   8.410   6.554  12.748 -0.0824 -0.0382 -0.2595
23391W        W39465  13.023  13.392   0.395 -0.3058 -0.0277 -0.1462
23392W        W39466  18.326   8.105   2.033 -0.3980  0.0378 -0.0488
23393W        W39467  17.186  10.842  15.516  0.2006  0.0298 -0.2280
23394W        W39468  11.297   5.913   9.744 -0.1760 -0.0720 -0.0698
23395W        W39469  12.603   2.405   3.594 -0.0162  0.5511 -0.2767
23396W        W39470  15.829   4.641  13.999 -0.0070  0.1623  0.0818
23397W        W39471  14.844   4.929   5.804  0.3946  0.0173  0.1166
23398W        W39472  12.942  16.593  15.851  0.2313 -0.1361 -0.2762
23399W        W39473   1.459   1.839  15.210 -0.1079  0.1011  0.1658
23400W        W39474  15.536   7.338   0.651  0.0014  0.2615  0.1437
23401W        W39475  13.371   3.173   4.494 -0.3239 -0.1037 -0.1121
23402W        W39476  14.165  14.892  12.042 -0.0836 -0.0432  0.1188
23403W        W39477   2.638  10.348   5.071  0.2804  0.1979 -0.1573
23404W        W39478   5.498  16.350  11.463  0.3005  0.2588  0.2154
23405W        W39479  16.360   0.940  13.048  0.1438  0.0411 -0.2509
23406W        W39480  16.197  10.044  15.658  0.0653  0.0036 -0.0141
23407W        W39481   8.684  14.215  11.699  0.0091 -0.1296 -0.0515
23408W        W39482  14.293   4.234   1.017  0.0869 -0.0150  0.2544
23409W        W39483   3.012  10.224   1.222  0.1271 -0.1660  0.2918
23410W        W39484  16.162  12.460  13.083  0.0689  0.0304 -0.0586
23411W        W39485  17.772  13.199   2.260 -0.0583 -0.1390  0.1464
23412W        W39486   8.604   1.486   1.831 -0.0286  0.0214 -0.5188
23413W        W39487   4.354   3.149  16.070 -0.1604  0.2035 -0.2180
23414W        W39488   4.355   3.954  13.387  0.1086 -0.0763  0.3202
23415W        W39489  14.229   1.250   3.559  0.0756  0.0203 -0.1051
23416W        W39490  11.433   4.166  13.730 -0.0893 -0.1602 -0.1323
23417W        W39491  15.188  11.275  14.691  0.1602 -0.1749  0.0954
23418W        W39492  11.406   1.937  12.696 -0.0101 -0.1066  0.1612
23419W        W39493   5.142  11.682  11.877  0.2233 -0.2311  0.0159
23420W        W39494   2.602  14.255  14.059  0.3008  0.1563  0.2921
23421W        W39495   6.469   4.730   1.824 -0.3307  0.2107  0.0993
23422W        W39496   9.493   8.624  14.229  0.1088 -0.0706  0.0368
23423W        W39497  15.780   8.795   1.204 -0.2368  0.0625 -0.2266
23424W        W39498   6.740  14.898   2.023 -0.3169 -0.3025  0.1206
23425W        W39499   2.909   1.982   1.902  0.0711 -0.1102  0.0786
23426W        W39500   1.245   4.900  13.775 -0.1422 -0.0310 -0.2180
23427W        W39501   6.704   6.486  13.672 -0.2598 -0.3125  0.0081
23428W        W39502   3.983  16.215   1.151 -0.0181  0.0008  0.2150
23429W        W39503  16.717   3.192   4.096  0.0391 -0.3586  0.0744
23430W        W39504  16.764  10.652  15.148  0.1501 -0.0600 -0.2157
23431W        W39505   1.647  15.101   2.941  0.0412 -0.4035 -0.0930
23432W        W39506   1.022  13.655   1.982  0.0247 -0.0214  0.3490
23433W        W39507   6.792  17.091  11.376 -0.0277  0.1735  0.0922
23434W        W39508   5.252   3.781   2.846  0.0309 -0.2260 -0.0990
23435W        W39509   4.058  16.780  13.393 -0.0655 -0.2200 -0.1189
23436W        W39510   6.108   9.404  13.025 -0.2076  0.0827  0.2230
23437W        W39511   6.238  11.342   3.629  0.1875  0.1750 -0.1242
23438W        W39512   2.650   0.991   0.084  0.2111  0.0506 -0.0429
23439W        W39513  17.660  12.555   5.720 -0.0024  0.1517  0.0514
23440W        W39514   6.521  14.411  14.053  0.0347 -0.1390 -0.1370
23441W        W39515   7.438   3.548   2.496  0.2110  0.2101 -0.2517
23442W        W39516   2.182  15.972   1.681  0.2927 -0.2487  0.1310
23443W        W39517   7.312  15.337   4.416 -0.0678  0.1211 -0.3286
23444W        W39518  15.816  12.125   5.493 -0.2342  0.3556 -0.2496
23445W        W39519   2.912  11.014  13.122 -0.4025 -0.2625 -0.1026
23446W        W39520   3.153  12.042  12.983  0.2542 -0.3427  0.2752
23447W        W39521  14.391  11.046  15.333  0.3670 -0.4733  0.3029
23448W        W39522  15.325   6.593  16.356  0.0148 -0.0667 -0.1619
23449W        W39523  11.283  15.199   3.753  0.1605  0.0220 -0.3205
23450W        W39524   3.193  16.768  15.155 -0.3917 -0.1631 -0.1439
23451W        W39525  11.820  14.474   2.693  0.0968 -0.3524  0.2874
23452W        W39526   6.345  11.436   2.735  0.3129  0.0527  0.4543
23453W        W39527  18.181  10.947   2.915 -0.1852 -0.2614  0.0733
23454W        W39528   4.637   5.967  12.916  0.0701 -0.3110  0.0894
23455W        W39529   7.187  12.720  10.737 -0.1997 -0.3022  0.1317
23456W        W39530   3.715  11.071   0.455  0.0250  0.1065  0.1663
23457W        W39531  16.445  16.017   3.713 -0.0677  0.2108  0.0439
23458W        W39532  14.651  12.112   2.576 -0.0873 -0.1490  0.0910
23459W        W39533   2.467   6.430  14.840  0.1726 -0.1318 -0.0273
23460W        W39534  13.406  12.356   4.788  0.2755 -0.0930  0.2199
23461W        W39535  10.223  13.320  12.174  0.0429 -0.2304  0.0392
23462W        W39536   3.140  18.091   1.040  0.0679  0.0435 -0.1947
23463W        W39537  13.277   7.149   1.551 -0.0666 -0.3640  0.1659
23464W        W39538  17.027   8.182   2.686  0.2321  0.0783 -0.1355
23465W        W39539   2.041   3.534  12.086  0.0988  0.1452  0.1685
23466W        W39540  13.137   8.044   1.119 -0.0074 -0.0288 -0.2701
23467W        W39541  16.345   4.820   2.404  0.3485  0.0880 -0.1546
23468W        W39542  14.981   8.306   0.144 -0.1668 -0.1866 -0.0862
23469W        W39543   6.513  11.778   2.022 -0.0938 -0.0139 -0.0698
23470W        W39544   4.874  16.917  12.389  0.3889  0.0443  0.2284
23471W        W39545  13.298   6.833   4.642  0.0191 -0.0088  0.0838
23472W        W39546  15.405  18.213   3.873  0.0139  0.1498 -0.2736
23473W        W39547  12.798  12.891  15.866  0.0605 -0.0191 -0.2040
23474W        W39548  13.756  10.184  13.901  0.4319  0.1668 -0.1157
23475W        W39549   2.379   5.027  12.038 -0.0819  0.0609 -0.0575
23476W        W39550   4.673   2.616  14.895 -0.1822  0.4574  0.0392
23477W        W39551  18.088  13.539  12.242 -0.2354 -0.0396 -0.0081
23478W        W39552  15.326  13.046   3.020  0.3115  0.3523 -0.1139
23479W        W39553   1.957   4.736   2.800 -0.1678  0.0199  0.0282
23480W        W39554  17.661   7.701   0.954  0.0857  0.5380 -0.1637
23481W        W39555   7.017   2.448   5.300 -0.1578  0.0676 -0.0934
23482W        W39556   1.872   5.274   3.389 -0.0707  0.1130 -0.0513
23483W        W39557  13.332   4.488   5.408 -0.0009  0.2136  0.0757
23484W        W39558  16.832   9.306  15.004  0.0246  0.0604 -0.0972
23485W        W39559   7.288   9.960   5.653 -0.3401 -0.2226  0.0017
23486W        W39560  10.288  14.947  11.075 -0.0307  0.0904 -0.2892
23487W        W39561  16.821  10.162   1.473  0.0384 -0.0485 -0.1361
23488W        W39562   7.976   0.645  12.088 -0.1971  0.0219  0.1058
23489W        W39563  12.310  12.023  16.184  0.2000  0.1063 -0.0296
23490W        W39564   4.094  15.907  12.611  0.1014  0.2238 -0.2070
23491W        W39565  16.239   9.893   4.118  0.0496 -0.0336 -0.1938
23492W        W39566   9.985  17.559  16.362  0.4083 -0.0397  0.0128
23493W        W39567  10.154   8.892   5.903 -0.2337 -0.0520  0.0835
23494W        W39568   0.149  11.253  14.763  0.1685  0.1147  0.4164
23495W        W39569   5.607   3.916  12.765 -0.2448 -0.2295 -0.1685
23496W        W39570  14.483   6.695   5.803 -0.0517  0.1805  0.0420
23497W        W39571   9.684  15.505   3.986 -0.0950  0.1752 -0.2395
23498W        W39572   9.100   5.718   0.631 -0.2373  0.4928 -0.0417
23499W        W39573   0.001  14.274   2.705  0.1133  0.3291 -0.4087
23500W        W39574   7.730  13.445   6.255  0.1176 -0.1546 -0.1537
23501W        W39575   2.373   3.863   6.139 -0.2443  0.2787  0.1286
23502W        W39576  10.414  14.207   3.390 -0.0675 -0.2949  0.1784
23503W        W39577   5.041  14.511  14.590 -0.0184 -0.0038  0.0015
23504W        W39578   2.876   0.842  12.510 -0.1297  0.0201 -0.0898
23505W        W39579   2.406   0.003   4.579  0.0215 -0.0175  0.1032
23506W        W39580   8.374   6.065  12.885  0.2491  0.3778  0.3699
23507W        W39581  14.113   4.360  14.077 -0.0990 -0.0894 -0.1948
23508W        W39582   5.284  13.896   3.912 -0.1826  0.4171  0.0476
23509W        W39583  17.985   3.564   5.792  0.1364  0.1894 -0.0609
23510W        W39584   9.793   3.005  12.326  0.3297  0.4211  0.2338
23511W        W39585   1.980  15.012  11.346 -0.2591  0.0331  0.2195
23512W        W39586  11.379  10.026  15.683  0.1813 -0.3607 -0.0168
23513W        W39587  10.394   9.113  12.556 -0.1731 -0.2150  0.1367
23514W        W39588   0.373   7.714  15.901  0.1031  0.2354 -0.0270
23515W        W39589  11.124  15.749  13.627 -0.0754  0.2239 -0.3606
23516W        W39590   7.553   1.303   2.256 -0.1495 -0.2963  0.0216
23517W        W39591   9.460  10.333   1.476  0.1055 -0.0163  0.2097
23518W        W39592   9.843   1.258  13.227  0.2436 -0.2501  0.2138
23519W        W39593  17.849   8.291  15.437 -0.0565 -0.1942 -0.1412
23520W        W39594  10.264  16.167  15.497 -0.0129 -0.4630 -0.3521
23521W        W39595   8.942  13.843  13.465  0.1702 -0.2736 -0.0375
23522W        W39596   4.441  17.788   0.824 -0.1499 -0.0583 -0.1246
23523W        W39597  11.497  10.963   3.303  0.1975  0.1453  0.2986
23524W        W39598  14.562   7.525   0.391 -0.0344 -0.3829 -0.1639
23525W        W39599  18.177  12.885  13.663  0.1571 -0.1281 -0.2543
23526W        W39600  10.636   4.897   1.711 -0.1019  0.3908  0.0565
23527W        W39601  15.445   6.128  15.383  0.1291  0.1927  0.0248
23528W        W39602  17.458  10.121  15.169 -0.0362  0.1059  0.3470
23529W        W39603  10.871  14.674   2.398 -0.0831  0.0332  0.1707
23530W        W39604  16.479   6.577  13.910 -0.3709 -0.1057 -0.3002
23531W        W39605  15.667   8.242   0.146  0.1125 -0.1292 -0.0766
23532W        W39606  14.716   7.399  16.331 -0.0293  0.2575 -0.0252
23533W        W39607  13.109   5.800  13.995  0.0144  0.2146  0.1717
23534W        W39608   7.699  15.900  16.201 -0.1323 -0.0155 -0.0809
23535W        W39609   3.456   5.824   1.320 -0.1169  0.2745 -0.0614
23536W        W39610  14.875  12.076  11.546  0.1801 -0.0908  0.2610
23537W        W39611  15.916  14.220  14.073 -0.1395  0.0117  0.0337
23538W        W39612   0.571   1.137   0.921 -0.2839 -0.1281  0.1530
23539W        W39613  16.493  12.685   1.176  0.0267  0.2926 -0.0950
23540W        W39614   4.925   0.685   0.975 -0.0267  0.3065 -0.1956
23541W        W39615   7.277   2.177   3.863 -0.1507 -0.4933 -0.0892
23542W        W39616   1.544   7.961   3.991 -0.1357 -0.1645  0.0348
23543W        W39617   5.842   0.966   2.834  0.3674  0.2264 -0.2651
23544W        W39618   7.830   2.979  16.041 -0.1909 -0.1509 -0.2376
23545W        W39619  15.218  14.896   0.971 -0.0346  0.1521  0.1152
23546W        W39620   8.329  16.734  16.278 -0.1387  0.0657 -0.0017
23547W        W39621  14.650   7.771  15.709 -0.3172 -0.0323  0.2049
23548W        W39622  18.324  17.093   3.179 -0.2614  0.1421  0.0347
23549W        W39623   7.778   9.588   3.148 -0.1447 -0.2156  0.0443
23550W        W39624  12.755   5.869  11.669  0.3545  0.0481 -0.0350
23551W        W39625  17.566   6.631   4.665 -0.1358 -0.1235  0.0324
23552W        W39626   8.774   6.883  11.628  0.3756 -0.2373 -0.0613
23553W        W39627   0.462   6.416   2.972 -0.0728  0.2401  0.0715
23554W        W39628  16.861   4.062   1.886 -0.4256 -0.0654  0.1342
23555W        W39629   6.537   7.191  11.098 -0.0400 -0.1296 -0.1672
23556W        W39630   7.168   9.868  11.852  0.2068 -0.1188  0.2838
23557W        W39631   4.553   0.954   2.731  0.0760  0.1646 -0.0425
23558W        W39632  12.725  16.574   4.007 -0.4236 -0.2113  0.2364
23559W        W39633  12.977   0.984  15.053  0.1025 -0.2792 -0.2069
23560W        W39634  14.682   7.789   0.965  0.0433 -0.0752  0.1058
23561W        W39635  10.769   9.245  14.795  0.1406  0.3190  0.0542
23562W        W39636  15.839   5.007   5.250  0.1780  0.1113  0.1105
23563W        W39637   1.016   9.902   2.847 -0.0089  0.3816  0.2651
23564W        W39638   8.918  13.112   2.211 -0.2349  0.1345 -0.0124
23565W        W39639  13.697  11.632   0.462  0.0334  0.1058 -0.0208
23566W        W39640   5.284   2.610   5.751 -0.0370  0.0501  0.2639
23567W        W39641   1.637  17.127  12.644 -0.2251 -0.2094 -0.1382
23568W        W39642  14.151  13.737  12.250 -0.1113  0.2053 -0.3404
23569W        W39643  11.655  15.052  11.810  0.0893 -0.1867 -0.1060
23570W        W39644   9.734  15.890   2.179  0.0044 -0.2243  0.1318
23571W        W39645  16.244  17.536  14.254 -0.0630 -0.1490 -0.0052
23572W        W39646  10.534  11.075  14.740 -0.0711 -0.1198 -0.1275
23573W        W39647   4.266  10.123   4.446  0.1289  0.0486 -0.0639
23574W        W39648   8.185  11.255   3.964 -0.0604 -0.0248  0.0976
23575W        W39649  11.358   0.857  15.116  0.1681  0.1960  0.0410
23576W        W39650  17.457   6.308  11.427  0.0891 -0.1438 -0.1331
23577W        W39651  17.119   7.011  12.083  0.0094 -0.0673 -0.3305
23578W        W39652  17.711  10.958   4.607 -0.1653 -0.0731  0.0601
23579W        W39653   8.712   8.569  11.981  0.0353  0.1178  0.1247
23580W        W39654  15.001   9.795  15.166 -0.0978  0.0977 -0.1273
23581W        W39655  16.197   4.564  11.868 -0.1490 -0.1359  0.3097
23582W        W39656  14.644  12.300   2.118 -0.2204 -0.2164 -0.1127
23583W        W39657  16.861   9.080   4.999  0.0375 -0.1069 -0.2256
23584W        W39658   7.521   9.861  15.259 -0.3424  0.3218 -0.1966
23585W        W39659  14.479   5.235   0.739 -0.0236 -0.0986 -0.0550
23586W        W39660   5.249  12.864   1.095 -0.0609  0.0763 -0.1267
23587W        W39661  15.414   5.777  13.823 -0.1767 -0.2139 -0.0266
23588W        W39662  12.273  17.279   1.685 -0.1334 -0.0148 -0.1511
23589W        W39663  13.021  17.335   3.790  0.3163 -0.1452 -0.3778
23590W        W39664  11.460   1.678   1.239  0.1293 -0.0538 -0.2947
23591W        W39665  17.694   7.288   1.896  0.1120  0.2132  0.0446
23592W        W39666   0.438   1.662   1.993  0.1417  0.6099 -0.0252
23593W        W39667   1.989  17.200  13.575 -0.1821 -0.3283  0.0507
23594W        W39668  16.802   1.854   4.156  0.1234 -0.0161 -0.1967
23595W        W39669   1.907  15.183  13.707  0.0575  0.2477  0.2700
23596W        W39670  17.666  12.132   0.009 -0.1026 -0.1656  0.2842
23597W        W39671   0.652  16.646   6.669  0.2021  0.1733  0.1190
23598W        W39672   2.329  13.429  12.010  0.3390  0.1149 -0.4604
23599W        W39673   8.537   5.665   1.587 -0.2469 -0.0839  0.1521
23600W        W39674  12.175   3.321   2.609 -0.0426 -0.2157  0.1208
23601W        W39675   8.673   8.799   5.063  0.1428  0.0786  0.0173
23602W        W39676   7.666   2.566   1.960  0.0745 -0.0260  0.1141
23603W        W39677   3.981  14.781  14.955  0.0763  0.0107  0.0018
23604W        W39678  15.575  12.132   2.490 -0.0023 -0.0342  0.1188
23605W        W39679  10.272   1.848  11.136 -0.1184  0.2998  0.0597
23606W        W39680   4.838  16.868   5.486  0.1955  0.0677 -0.0410
23607W        W39681  11.707  12.866   5.875 -0.1802 -0.1173 -0.2056
23608W        W39682   7.127  18.028   0.347 -0.0209 -0.0589  0.1530
23609W        W39683   9.974  16.136   2.672  0.1168 -0.0643 -0.1334
23610W        W39684  12.835   8.533   2.857  0.1176 -0.0386  0.0921
23611W        W39685  18.246   8.658  12.567  0.0489  0.1551 -0.0073
23612W        W39686  13.747   1.786  14.476  0.0768 -0.4099 -0.0196
23613W        W39687   2.695  12.281   2.549  0.1306 -0.0695 -0.2464
23614W        W39688  17.560  17.860  11.772 -0.1076  0.0784  0.0576
23615W        W39689   0.695   7.176  14.829  0.0654  0.1717  0.2439
23616W        W39690  14.302   4.637   1.346  0.0042 -0.0675 -0.0688
23617W        W39691  17.648   4.141  16.229 -0.4266 -0.0123 -0.2338
23618W        W39692   8.695  13.046   1.372 -0.0718  0.0790 -0.0461
23619W        W39693  16.638   2.550   6.036  0.1374  0.2098  0.0969
23620W        W39694  10.786  10.108   3.420 -0.0489  0.0671 -0.0208
23621W        W39695   7.079   0.717  12.342 -0.0247  0.0641  0.0820
23622W        W39696  14.749  15.099  14.193 -0.2488 -0.0723 -0.1271
23623W        W39697   1.759   7.386  12.501 -0.0296  0.0567 -0.0063
23624W        W39698  12.981   5.744   4.603 -0.4951 -0.1602  0.0634
23625W        W39699  16.034   8.510   5.483 -0.1004 -0.5016 -0.1061
23626W        W39700   5.743   3.183  14.851 -0.1927  0.1789  0.1051
23627W        W39701   7.994   4.522  12.254  0.1527 -0.2989 -0.1110
23628W        W39702   8.452   3.170   4.658 -0.2300  0.1308 -0.1520
23629W        W39703   7.269  16.310  15.976 -0.1479  0.1660 -0.3773
23630W        W39704  13.943   1.556   2.577  0.1600 -0.0328 -0.3030
23631W        W39705  17.822  15.797   2.115  0.2600  0.2375 -0.0439
23632W        W39706  14.732  11.565  13.957 -0.0364 -0.0906 -0.0144
23633W        W39707  13.708  17.555   0.051 -0.1243  0.1817 -0.1405
23634W        W39708   4.165  17.436   2.486  0.0849 -0.0712  0.1898
23635W        W39709  13.636  10.429  14.538 -0.2705 -0.2704 -0.4791
23636W        W39710   9.106  17.559  16.042 -0.0564  0.4552 -0.2646
23637W        W39711   6.491  13.326  11.495  0.0570  0.0319  0.3597
23638W        W39712  15.408   9.138  13.266  0.2305 -0.3204  0.0114
23639W        W39713   8.913   2.591  10.949 -0.0171 -0.1305  0.2572
23640W        W39714  10.495   9.532   2.429  0.3736 -0.5247 -0.0442
23641W        W39715   2.766   7.973  11.374  0.4495  0.1072 -0.0256
23642W        W39716   7.001   2.609   3.270 -0.0743 -0.0588 -0.1695
23643W        W39717   9.966  14.948   2.288  0.1660 -0.1032 -0.1582
23644W        W39718  15.115  17.308  15.837 -0.0181 -0.1323 -0.1906
23645W        W39719  18.179   4.087   0.616 -0.0882 -0.0378  0.0275
23646W        W39720  15.974  15.823   5.113  0.1467 -0.0047 -0.1776
23647W        W39721  16.999  16.129   2.884 -0.0299  0.2064  0.0487
23648W        W39722   4.256  17.587   5.355 -0.4522  0.0115 -0.0146
23649W        W39723  10.854  14.869   4.060  0.4344  0.2287 -0.1887
23650W        W39724  13.206  13.211   2.631  0.0742  0.0088 -0.0832
23651W        W39725  15.160   9.574  13.015 -0.0095 -0.0579  0.2380
23652W        W39726  12.080   9.179  14.583 -0.1222  0.3367 -0.1263
23653W        W39727   6.793   6.013  10.879 -0.0314  0.0936  0.1342
23654W        W39728  17.375  18.003  14.641  0.1923  0.0998  0.2539
23655W        W39729  10.948   4.788  14.054 -0.0429  0.1526 -0.0341
23656W        W39730  17.412  11.564   0.819  0.2249 -0.0447 -0.1728
23657W        W39731  16.750   4.415  15.455  0.1187 -0.2083  0.3910
23658W        W39732  10.402   1.445  12.821  0.1133  0.3349 -0.1263
23659W        W39733  15.487   7.233  15.831 -0.2506  0.1596 -0.0395
23660W        W39734  16.485   4.946   1.856 -0.2264  0.2692 -0.3771
23661W        W39735   7.314  12.377   2.159  0.0459 -0.0625 -0.1836
23662W        W39736  10.855  12.551   3.332  0.0215  0.0140  0.2554
23663W        W39737   0.069   0.627  15.707  0.2484  0.1065  0.0692
23664W        W39738   9.464   2.405   4.458  0.0893 -0.1181  0.2707
23665W        W39739   8.419   9.556  11.913  0.2554  0.0049 -0.0889
23666W        W39740  15.539   5.938   1.032 -0.2428  0.1245 -0.0999
23667W        W39741   9.051   1.284  13.797 -0.0763 -0.0389 -0.4027
23668W        W39742   2.447   4.973   3.990  0.2831  0.1858 -0.4593
23669W        W39743   0.592   6.978   3.149  0.2322  0.0903  0.1849
23670W        W39744   6.042  10.131  15.523  0.2191  0.4261 -0.2406
23671W        W39745   6.504  13.383  15.777 -0.0233 -0.1185 -0.2093
23672W        W39746  16.939   1.915  15.019 -0.0965  0.1612 -0.0732
23673W        W39747   9.430   3.107   1.729  0.1833  0.2864 -0.1620
23674W        W39748   6.564   9.865  16.013  0.1654 -0.0917 -0.0037
23675W        W39749   2.801   7.032  12.395  0.1069 -0.1181 -0.1364
23676W        W39750  14.838  17.099   2.780 -0.2140 -0.1790  0.3888
23677W        W39751   7.349  15.990   0.117 -0.0196 -0.1779 -0.1653
23678W        W39752  14.111   6.853   0.109 -0.2082 -0.1502  0.1957
23679W        W39753  16.778  17.460   1.658  0.1233 -0.1972 -0.2517
23680W        W39754   0.531   9.905   4.664 -0.1486  0.0399 -0.0166
23681W        W39755   3.886  14.325   4.241  0.1415  0.1526 -0.0303
23682W        W39756   4.240   1.558  11.937 -0.3143  0.0164  0.0506
23683W        W39757   2.476   1.181  13.349  0.1760  0.1514 -0.2309
23684W        W39758  18.152   1.289  12.032  0.1795  0.4855 -0.0981
23685W        W39759  11.547  14.915   4.258  0.1122  0.1836 -0.1984
23686W        W39760  14.734  10.298  12.195 -0.1930  0.0429 -0.0248
23687W        W39761  14.476   7.755  13.466  0.0596  0.1647 -0.2142
23688W        W39762   6.676   2.662   0.184  0.3743  0.1345 -0.1111
23689W        W39763   8.304   5.913   0.058  0.0635  0.0318  0.3625
23690W        W39764  10.549   9.015   4.686 -0.2846 -0.0019  0.2557
23691W        W39765   8.295   8.311   2.189 -0.2457 -0.1178  0.3156
23692W        W39766   5.165  12.420   4.356  0.2241 -0.1330 -0.3567
23693W        W39767  15.810   5.296  15.325  0.2537 -0.0026 -0.0949
23694W        W39768   0.790   0.892  14.237 -0.0437 -0.0545 -0.0309
23695W        W39769  15.190   0.603   1.577 -0.3165 -0.2751  0.1816
23696W        W39770   6.294  11.289   5.561 -0.1363  0.0330 -0.0358
23697W        W39771  13.843  13.995   5.163  0.5382  0.1134 -0.1894
23698W        W39772  13.436   1.735   2.427  0.0700 -0.2416 -0.0913
23699W        W39773   6.603  10.069  11.699 -0.1894 -0.2265  0.0877
23700W        W39774   7.155   2.256   2.289 -0.0590 -0.0736  0.1515
23701W        W39775   0.529   1.759   4.322 -0.3359 -0.1238  0.3085
23702W        W39776   2.189   5.337  13.816  0.0662 -0.1066 -0.0004
23703W        W39777   7.276   9.344   3.926  0.2871 -0.1952  0.1480
23704W        W39778   1.308  12.994   0.816  0.1786  0.0479 -0.1433
23705W        W39779   9.196  15.482  14.718  0.0583 -0.0161  0.0029
23706W        W39780   2.951   6.990   0.202  0.2384  0.0926  0.4402
23707W        W39781  14.275   2.424  12.130  0.0289 -0.0273 -0.4820
23708W        W39782   7.737  14.610  13.419 -0.0792  0.1488 -0.0014
23709W        W39783   8.659   9.517   1.115 -0.1008 -0.2954 -0.1482
23710W        W39784   4.044  10.578   4.549 -0.0686 -0.1662  0.0597
23711W        W39785   1.121   9.295   1.044 -0.0037 -0.2601  0.0711
23712W        W39786   7.267   8.201   0.424  0.0394  0.2564  0.1394
23713W        W39787   0.666   6.956  15.780 -0.2934  0.2926 -0.1883
23714W        W39788  13.784   0.628  14.992  0.4352  0.2695 -0.0429
23715W        W39789   6.084   7.553  15.969  0.0905 -0.0271 -0.0078
23716W        W39790  14.610  11.986   6.036  0.0782 -0.0570 -0.3065
23717W        W39791  13.443  13.431   3.895  0.0113 -0.1157  0.2425
23718W        W39792   9.314   6.383   3.151  0.2126  0.2603 -0.1970
23719W        W39793   6.524   3.707  13.008  0.0972  0.1298  0.4072
23720W        W39794   3.603   0.511  15.137 -0.0917 -0.3121 -0.0850
23721W        W39795  15.078  18.123   1.526 -0.2864  0.3566  0.2392
23722W        W39796   1.277  18.291   0.259 -0.1246  0.1124  0.1853
23723W        W39797   6.430  15.709  16.210 -0.4155  0.1192 -0.0066
23724W        W39798  14.324   4.565  15.743 -0.1726 -0.2043  0.0158
23725W        W39799  11.293  12.831   5.127 -0.0761 -0.0014  0.2079
23726W        W39800  11.451  16.479   1.341 -0.0496  0.2044  0.3981
23727W        W39801  10.730  12.955  12.103 -0.0801 -0.0012 -0.0075
23728W        W39802   7.311  18.203  15.728  0.1009 -0.0253 -0.1111
23729W        W39803  15.899  17.896   2.094 -0.1197  0.0278  0.1947
23730W        W39804  18.007  12.669  15.965 -0.1585  0.3266  0.0823
23731W        W39805   5.334  17.106  14.891 -0.2432 -0.2115  0.1437
23732W        W39806   6.946  15.591  13.893 -0.2072 -0.0576 -0.1109
23733W        W39807   1.228  17.272  14.622  0.1517  0.0434  0.0708
23734W        W39808   9.863  16.565  11.499 -0.0384 -0.0759 -0.1658
23735W        W39809   0.781  15.606   0.241 -0.2535 -0.1713  0.2014
23736W        W39810   1.716  16.660  14.818 -0.2250  0.1649  0.1517
23737W        W39811  13.023  12.057   4.039 -0.0757 -0.0055  0.0786
23738W        W39812   9.150  11.391  13.352 -0.2605 -0.1578 -0.1026
23739W        W39813  17.004   1.405   4.132  0.4480 -0.0115 -0.2759
23740W        W39814   9.502  17.304  14.998 -0.0329  0.0487  0.0469
23741W        W39815  14.878  12.065   4.799 -0.0662 -0.2367 -0.1709
23742W        W39816   9.295  16.091  14.197 -0.2937 -0.1478 -0.0778
23743W        W39817   9.380   1.324  14.197 -0.0902  0.0934 -0.0251
23744W        W39818  13.353   7.264  13.526  0.3531  0.3566  0.0364
23745W        W39819  14.120   1.761  10.756  0.0038 -0.3787 -0.0838
23746W        W39820   2.539  13.002   1.439  0.1342 -0.2295 -0.2154
23747W        W39821   6.959  16.054  15.631 -0.2145  0.1442 -0.4459
23748W        W39822  17.044  16.769   2.977 -0.0599  0.0363  0.2487
23749W        W39823   7.918  16.487   0.664  0.0061  0.0687  0.0623
23750W        W39824  12.794  10.505   1.851 -0.0874  0.0733  0.1409
23751W        W39825   8.489   7.126   4.229 -0.2996  0.0415  0.0307
23752W        W39826   6.962   6.095  11.759 -0.1348 -0.2832  0.0379
23753W        W39827   9.574  11.971   3.522 -0.1268  0.0160 -0.2343
23754W        W39828  13.668   4.740   1.926 -0.0269 -0.2480 -0.1181
23755W        W39829   5.463   2.591  12.615  0.1599 -0.0520 -0.1345
23756W        W39830  16.605   7.614   2.079  0.0428  0.2146  0.2702
23757W        W39831  16.325  14.065  15.913 -0.0788  0.2786  0.1690
23758W        W39832  15.233   0.617  15.416  0.0753 -0.3062 -0.0696
23759W        W39833   4.489   1.448  11.525 -0.0505  0.4144 -0.2230
23760W        W39834  17.392  11.465  13.482  0.0215  0.0744 -0.0522
23761W        W39835  12.758   7.867   0.831  0.0955  0.0570 -0.1110
23762W        W39836   3.539  14.179  11.558  0.1689 -0.0335  0.2703
23763W        W39837  15.709  14.671  13.999  0.3002 -0.0936 -0.0359
23764W        W39838  14.426  11.878  12.948  0.0606 -0.1158  0.4929
23765W        W39839   9.401  10.870   4.610 -0.0342  0.4529 -0.3802
23766W        W39840   7.396   7.073   0.072  0.0320 -0.1903  0.0378
23767W        W39841   9.461  15.369   3.543 -0.3967  0.2222  0.0575
23768W        W39842   7.029  13.679  14.661  0.3267 -0.4693 -0.1861
23769W        W39843   9.980   0.662   2.828 -0.1825 -0.0975  0.2636
23770W        W39844   1.007  14.400   0.970  0.1148  0.1403 -0.1170
23771W        W39845   6.930  16.270   5.558  0.2248 -0.0212 -0.1641
23772W        W39846   4.116   0.543  16.371 -0.1050  0.1396 -0.1911
23773W        W39847  10.361   6.914  14.044 -0.0683  0.0296 -0.1524
23774W        W39848   8.103  10.069   6.079  0.2654 -0.1166  0.0498
23775W        W39849   1.336  14.151   4.289 -0.1156  0.2569  0.0734
23776W        W39850   4.177   5.949  13.463 -0.1010  0.2412 -0.1337
23777W        W39851   8.150   4.254  15.400 -0.1902 -0.1512  0.0524
23778W        W39852  16.593   0.240  12.443 -0.2073  0.2021 -0.1462
23779W        W39853   5.265   1.123  12.697  0.0025  0.0650 -0.4340
23780W        W39854  12.955  13.393   5.163 -0.0887 -0.0548 -0.1496
23781W        W39855  10.623  14.247   5.998 -0.0602  0.1379 -0.1464
23782W        W39856   9.015  16.573   2.005 -0.3262  0.1300 -0.3328
23783W        W39857  12.628   7.125   0.221  0.1877 -0.1267  0.2848
23784W        W39858   7.362  14.178  11.225 -0.1363  0.4820 -0.0195
23785W        W39859   7.593  18.276  12.641 -0.1243  0.1341 -0.1406
23786W        W39860   0.534   9.880   5.952 -0.0244  0.0947  0.0979
23787W        W39861  11.785   8.431  14.546 -0.1656  0.2295 -0.0677
23788W        W39862  12.924  17.311  11.573 -0.0778  0.0450 -0.0941
23789W        W39863   1.522  15.876  11.821 -0.0448  0.2584  0.0341
23790W        W39864  12.743   2.687   4.213 -0.0884 -0.0470  0.4961
23791W        W39865   8.531  14.421   3.606 -0.2449 -0.1430 -0.0845
23792W        W39866   6.442  10.935  14.199  0.1032  0.0832  0.2026
23793W        W39867   4.347   4.573  14.776 -0.0332 -0.1479  0.1727
23794W        W39868   3.962  17.633   0.936 -0.3499  0.0323  0.0105
23795W        W39869   0.077   6.602   4.694 -0.0119 -0.1218  0.4159
23796W        W39870  12.597   4.326  13.836 -0.0210 -0.5095  0.1405
23797W        W39871  10.579   4.512   5.539  0.2557  0.0233  0.4254
23798W        W39872   4.989  10.387   3.986 -0.0387  0.1170  0.1342
23799W        W39873  18.099   1.596  11.607  0.0094  0.2769 -0.2623
23800W        W39874  15.375   6.021   6.321 -0.0433 -0.3068  0.0500
23801W        W39875   5.452   9.726   0.416 -0.1535 -0.2357  0.0983
23802W        W39876  16.494   1.598   4.994  0.3270  0.0029  0.1973
23803W        W39877   5.388  13.274   2.335 -0.0467  0.1030 -0.1519
23804W        W39878   6.114   7.799   3.150  0.2830 -0.4362 -0.3572
23805W        W39879  14.776   9.662   3.035 -0.2274  0.0987  0.1595
23806W        W39880  12.607   4.049  15.679 -0.0216 -0.1741 -0.0881
23807W        W39881   9.822  14.085   3.735 -0.3306 -0.0790 -0.0498
23808W        W39882   0.339  12.229  15.569 -0.2255 -0.3238 -0.0418
23809W        W39883   8.950   2.986  14.630 -0.1033 -0.1342 -0.0328
23810W        W39884   5.254   6.432  13.668 -0.1546  0.3245  0.0755
23811W        W39885  15.795  11.344  15.286 -0.1596  0.0736 -0.4143
23812W        W39886   8.678  11.689  14.344 -0.1237  0.1519 -0.1346
23813W        W39887  14.787  13.195   5.115 -0.2654  0.0132  0.0669
23814W        W39888   2.804  12.552   1.478  0.2467 -0.2578 -0.1028
23815W        W39889   9.638   6.215  11.382  0.3554  0.1155 -0.4304
23816W        W39890   1.046  11.363  12.865 -0.1750 -0.1529  0.3854
23817W        W39891   3.955   8.892   1.412 -0.0526  0.0661 -0.4342
23818W        W39892  15.673   7.465   0.189 -0.3321 -0.2323 -0.1468
23819W        W39893  12.940  12.099  14.760  0.0209  0.1326  0.1210
23820W        W39894  15.754   6.401   4.596  0.0180 -0.1498  0.0004
23821W        W39895  13.235   8.948  13.034  0.0009  0.0284  0.0500
23822W        W39896   1.479   0.932   3.106 -0.2157  0.2681 -0.0122
23823W        W39897   8.513   7.438   1.080  0.0980  0.0494  0.0594
23824W        W39898  11.731   4.163   2.213  0.1597  0.1992  0.2920
23825W        W39899   5.633   1.944  13.916 -0.1154  0.0946 -0.0462
23826W        W39900   9.229  13.657  15.537 -0.1807  0.2748 -0.2587
23827W        W39901   2.016   9.814  12.303 -0.2145  0.3050  0.0442
23828W        W39902   3.730  11.613   1.128  0.0549  0.3851  0.0049
23829W        W39903  10.833  10.851  15.598 -0.0551 -0.0311  0.0926
23830W        W39904   0.200   7.764   2.261  0.0440  0.1753 -0.2348
23831W        W39905   1.782   7.161   4.369  0.1629 -0.0058  0.0665
23832W        W39906  16.333   4.898  13.826 -0.0648 -0.1165  0.1422
23833W        W39907  14.298  12.146  16.398 -0.0057 -0.0585 -0.3677
23834W        W39908   1.259   3.952  13.396 -0.1419  0.3693  0.2286
23835W        W39909   1.232  10.682   1.347  0.0741  0.0721  0.0620
23836W        W39910  16.882   4.871   2.156  0.0227  0.0792 -0.1205
23837W        W39911  11.204   8.300   0.151  0.3439  0.0871  0.0728
23838W        W39912   4.644  11.776  12.961  0.1053 -0.3271 -0.1062
23839W        W39913  11.823  10.142  11.541 -0.0470  0.0584  0.0790
23840W        W39914  11.078  17.721   3.125 -0.2045 -0.0564  0.0684
23841W        W39915  16.124   5.874  13.441  0.1402  0.0403  0.1504
23842W        W39916   7.329   7.795   3.950  0.0378 -0.2060  0.3070
23843W        W39917   8.589   0.120   3.440  0.1040 -0.1685 -0.0156
23844W        W39918  15.211   6.250  13.834  0.0786 -0.1516  0.0125
23845W        W39919  11.378   0.707   1.546  0.0769  0.3195 -0.0642
23846W        W39920   3.851   7.309  11.672  0.2156  0.2161 -0.1039
23847W        W39921   2.593  12.528  16.075 -0.1118 -0.0957 -0.0952
23848W        W39922  17.561   2.395   5.486 -0.1833  0.1216  0.0998
23849W        W39923   3.481   2.080   4.901 -0.3023 -0.1562 -0.0946
23850W        W39924  12.601  11.341  14.768 -0.2079 -0.0205 -0.2372
23851W        W39925   0.440  14.261  16.301 -0.0057 -0.2865  0.0355
23852W        W39926  18.272   9.431   1.388 -0.1958  0.1234  0.1211
23853W        W39927   3.101  11.100  14.093 -0.0361 -0.4671 -0.0420
23854W        W39928  18.119   6.974  14.663  0.0985 -0.0592  0.2852
23855W        W39929  12.585   2.468   4.940  0.1208 -0.0561 -0.1336
23856W        W39930  11.128   3.798   4.571 -0.2933  0.2483 -0.1323
23857W        W39931   0.859  12.979  13.836 -0.1421  0.1009 -0.0802
23858W        W39932  13.092   5.250   3.183  0.1460 -0.0171  0.0381
23859W        W39933   5.546  13.879  12.067 -0.2412  0.1959 -0.1682
23860W        W39934   7.951   7.395   1.906 -0.0480 -0.2138 -0.1949
23861W        W39935   7.105  11.995  15.708  0.0931 -0.0245  0.3078
23862W        W39936   8.982   8.996  14.878  0.0053 -0.0649 -0.1255
23863W        W39937  18.299  12.715   2.000 -0.0507  0.2513 -0.0141
23864W        W39938  14.674   7.252   3.682  0.0632 -0.0516  0.1186
23865W        W39939  15.295   5.512  12.412  0.1507  0.3408  0.2088
23866W        W39940  12.589   6.217  11.212 -0.2099  0.0098  0.3080
23867W        W39941   9.729  13.996  13.694 -0.1810  0.3355  0.1095
23868W        W39942   8.071   9.339  15.368  0.1123 -0.2758  0.0924
23869W        W39943  10.553  15.479  11.926  0.0584 -0.0058 -0.4325
23870W        W39944  15.602   7.401   2.767  0.3122  0.0192  0.1641
23871W        W39945  10.553   0.047   1.998 -0.1307  0.3974  0.0259
23872W        W39946   7.656  13.666  13.752  0.0972 -0.1327 -0.1827
23873W        W39947  11.043   8.439  13.933  0.1094  0.0649 -0.0129
23874W        W39948   3.746   1.440   4.782  0.0912  0.0521 -0.0434
23875W        W39949  15.634   3.223   5.928  0.0442 -0.2068 -0.0274
23876W        W39950  12.436  14.294   2.254  0.1971 -0.0937 -0.0254
23877W        W39951  13.295  10.058   4.030 -0.4926  0.1412  0.1184
23878W        W39952   5.649   6.764   4.965 -0.1599 -0.1685 -0.1986
23879W        W39953   5.955   5.464  13.047 -0.2508  0.0975 -0.0110
23880W        W39954   4.467   5.539   0.961  0.1042 -0.1067 -0.4536
23881W        W39955   2.713   0.220   3.254 -0.4698 -0.0678  0.0212
23882W        W39956   3.426  14.608   4.320  0.2296 -0.0883  0.0368
23883W        W39957   2.998  14.827  11.463  0.2301 -0.0195  0.1826
23884W        W39958  18.164   7.002   2.564  0.1139  0.0950  0.1536
23885W        W39959   1.281  10.427   3.827 -0.0439 -0.2886 -0.1265
23886W        W39960   4.489   0.443  15.390 -0.0971 -0.2132 -0.1769
23887W        W39961  11.821   3.655  10.824 -0.2525 -0.3900  0.2306
23888W        W39962  17.096   2.059   0.187 -0.1589 -0.1191  0.2126
23889W        W39963   2.779  15.425   2.181 -0.0136  0.3081  0.1740
23890W        W39964  13.589  17.525  14.152 -0.1706  0.2173 -0.0037
23891W        W39965  16.837   3.623  11.486 -0.1573 -0.0243  0.0808
23892W        W39966   6.792   1.360   0.958  0.0362 -0.0033  0.2715
23893W        W39967  14.023   0.302   5.117  0.2162 -0.3357  0.0802
23894W        W39968  12.550   8.835   4.067 -0.0779 -0.3746 -0.2364
23895W        W39969  14.297   4.554   1.894  0.4309  0.1129 -0.1328
23896W        W39970   2.015  11.413   2.225  0.0806 -0.0191  0.2068
23897W        W39971   0.793   5.756   2.930  0.0050  0.0686 -0.1540
23898W        W39972   0.978  10.676   4.973  0.0594  0.2582 -0.2099
23899W        W39973  12.145   2.011   6.245  0.1633  0.2603 -0.0560
23900W        W39974  13.155   2.394   4.465  0.0573  0.1248  0.0089
23901W        W39975  13.889  14.253  14.384  0.1220  0.1170  0.1231
23902W        W39976  14.543   0.322   3.761 -0.0479  0.0207 -0.1180
23903W        W39977  11.630   4.908   0.691 -0.2937  0.0634 -0.1960
23904W        W39978  17.312   2.161  16.118  0.3429  0.0150 -0.2753
23905W        W39979   3.132  13.850  12.847 -0.0370 -0.1997 -0.1146
23906W        W39980   5.389  16.051   0.843 -0.4925  0.0215  0.3050
23907W        W39981   8.899  10.003  15.930  0.0264 -0.0194  0.2650
23908W        W39982  11.543  10.676   1.761 -0.1249 -0.1435 -0.1012
23909W        W39983   8.032   3.059   4.225  0.0063 -0.0764  0.0651
23910W        W39984   5.716   1.345  12.926 -0.1909  0.2112 -0.1279
23911W        W39985   8.732  18.159  15.947  0.0612 -0.2330 -0.0806
23912W        W39986   3.003  12.516   5.335  0.1914 -0.0511  0.1947
23913W        W39987  13.958   5.933  11.012 -0.2478  0.0746 -0.0631
23914W        W39988  18.033   0.274   0.971 -0.0108  0.0091  0.0631
23915W        W39989   2.268  16.647  11.975  0.1661 -0.2887 -0.0932
23916W        W39990   5.297   3.517  15.655  0.0777 -0.0056  0.3093
23917W        W39991   4.790   7.787   2.234  0.0686  0.1315  0.3553
23918W        W39992   8.997   5.372   0.332 -0.0394 -0.1507 -0.1714
23919W        W39993   2.109  11.363   4.723 -0.1009  0.1083 -0.0543
23920W        W39994  12.028   9.631   3.620 -0.0417 -0.0295 -0.0505
23921W        W39995   2.042  15.594  14.025  0.3360 -0.0640  0.1110
23922W        W39996   7.950  15.364  12.958 -0.2974 -0.2610  0.0566
23923W        W39997  13.950  14.159  12.236 -0.0698 -0.2851  0.0792
23924W        W39998   9.985   2.194  11.744 -0.4145 -0.0703  0.1537
23925W        W39999  12.582  16.678  14.644  0.1221 -0.0874 -0.0084
23926W        W40000  13.438   2.921   3.520  0.0737 -0.3687  0.1194
23927W        W40001  16.156   2.819   4.645 -0.0751  0.1678 -0.0426
23928W        W40002   6.949   8.271   5.666 -0.2343 -0.0129 -0.3766
23929W        W40003   6.838   8.164  15.574  0.1777  0.0226  0.0339
23930W        W40004  11.907   6.403  14.670 -0.1010 -0.2481 -0.2716
23931W        W40005   1.538  14.018   0.820  0.1916 -0.2962 -0.1154
23932W        W40006   5.187   5.833  15.195 -0.1100  0.0347  0.1754
23933W        W40007  14.315   8.131   5.198  0.1449 -0.1044  0.1578
23934W        W40008  15.662   6.845  15.014  0.4533 -0.3569  0.0971
23935W        W40009   5.981  16.015   0.096  0.0270 -0.1960 -0.1361
23936W        W40010  13.763   9.350   4.252 -0.1843 -0.0835  0.0748
23937W        W40011   9.707   9.738  15.913 -0.4532  0.1297 -0.7422
23938W        W40012   7.332  11.779   3.358  0.0998 -0.0568  0.2547
23939W        W40013  15.555  10.099  12.091 -0.3509 -0.1914 -0.1050
23940W        W40014  15.288   7.653  14.692 -0.2090  0.1054  0.2672
23941W        W40015  17.686   2.028   2.680 -0.1630  0.0356  0.4940
23942W        W40016   8.696  11.510   1.849  0.1205 -0.2448  0.0178
23943W        W40017  15.188  12.252  14.860 -0.2311 -0.1404 -0.1542
23944W        W40018  12.979   9.896   0.413 -0.1738 -0.0819  0.2166
23945W        W40019  12.371   2.339  11.153  0.0502 -0.2330 -0.0643
23946W        W40020   8.057   9.386   4.822 -0.1176  0.0649 -0.2685
23947W        W40021  13.442   1.996   4.808  0.1650 -0.2448  0.0917
23948W        W40022  12.268   3.340  13.013 -0.0589  0.1817 -0.0108
23949W        W40023  13.970  18.001   5.111 -0.0838  0.1898 -0.0788
23950W        W40024   3.930  11.293  13.372  0.0932 -0.0369  0.2615
23951W        W40025  17.854  11.173   2.348 -0.1041 -0.1469  0.3971
23952W        W40026   3.721   0.754  16.231 -0.0320  0.2227  0.6767
23953W        W40027  14.902   5.144   5.342 -0.2477 -0.0393  0.2282
23954W        W40028   6.531  15.602  14.797  0.1060 -0.0666  0.0726
23955W        W40029   9.361   6.771  14.464 -0.0071  0.1573  0.1957
23956W        W40030  10.502   6.761  16.353  0.3393  0.1889 -0.0877
23957W        W40031  16.586  14.614  12.724 -0.0327  0.4808 -0.0365
23958W        W40032  10.118   5.708  13.108 -0.2735  0.0623  0.0092
23959W        W40033  13.858   6.822  11.614  0.2305 -0.1865  0.0709
23960W        W40034   0.023   8.612  16.213 -0.3223 -0.0657 -0.3462
23961W        W40035   3.256  12.305   1.591 -0.0613  0.0399  0.1263
23962W        W40036   8.066   3.170   5.559 -0.1209 -0.1924 -0.1652
23963W        W40037   1.493  16.231  15.583  0.2446  0.2570 -0.1321
23964W        W40038   5.433   7.052   3.984 -0.1324 -0.2962  0.3362
23965W        W40039  12.807  11.256   0.362  0.1427 -0.0537  0.2177
23966W        W40040  18.107  12.283   1.669  0.3429  0.2231 -0.1993
23967W        W40041   3.117  15.514  13.412  0.0177 -0.0495  0.0612
23968W        W40042  11.174   2.951   4.666  0.0760  0.0455  0.1156
23969W        W40043   9.500   8.562   3.611 -0.2920 -0.2848  0.2539
23970W        W40044   5.093   5.319  15.919  0.0398  0.2392  0.2446
23971W        W40045   6.071   5.778   1.037 -0.2445 -0.1701  0.0004
23972W        W40046  12.621  11.195   4.068 -0.2552  0.1050  0.1548
23973W        W40047   1.993   6.782  11.569  0.1406  0.1123 -0.1445
23974W        W40048  16.121   0.034  12.464  0.1364  0.0040  0.4523
23975W        W40049  17.627  10.149   0.924  0.0421  0.0162 -0.1981
23976W        W40050   9.935  14.344   3.314  0.1393  0.0556  0.0021
23977W        W40051  13.776   7.569  11.714 -0.2350  0.1564  0.0514
23978W        W40052   3.270   7.664  15.561 -0.0897 -0.0563  0.1292
23979W        W40053   3.732   8.474  16.266  0.0936  0.1508  0.0727
23980W        W40054  10.028  14.726  15.716  0.1464 -0.1400 -0.3727
23981W        W40055  12.657   6.716  13.076 -0.1507  0.0422 -0.0328
23982W        W40056  16.025  17.690   2.907 -0.3166  0.0210 -0.2229
23983W        W40057  17.360  18.129  15.146 -0.1877 -0.3122  0.0860
23984W        W40058  17.277  13.063   0.075 -0.1897 -0.5016 -0.1427
23985W        W40059  11.156   6.006  11.553 -0.3180  0.0490  0.4600
23986W        W40060  15.317  12.031   1.622  0.0069 -0.1601 -0.2639
23987W        W40061   6.264  11.716  15.952 -0.0511 -0.0692  0.3760
23988W        W40062  12.621   8.699   5.270  0.2110 -0.0756 -0.2471
23989W        W40063  12.941  16.376   2.451  0.2146 -0.1097  0.2066
23990W        W40064  13.600  11.124   0.652  0.3880  0.3619 -0.0347
23991W        W40065   2.879  11.683   1.044  0.0654  0.1124  0.2161
23992W        W40066   9.671   3.091   0.084 -0.0982  0.1835 -0.0410
23993W        W40067   3.072   0.727   0.001  0.0568  0.0848  0.0449
23994W        W40068  12.917  15.828   1.556  0.3386  0.0920 -0.1885
23995W        W40069   7.500   7.664  15.109  0.1725 -0.2690  0.1566
23996W        W40070  14.622   8.774  15.322  0.1197  0.0481 -0.1880
23997W        W40071  15.238   3.584  13.193 -0.1148  0.2853  0.0374
23998W        W40072  11.652   9.399  11.696 -0.1383  0.0330 -0.1357
23999W        W40073   0.230  18.013   1.332  0.2733 -0.1195 -0.4206
24000W        W40074   2.449   4.045   4.955  0.1385 -0.1979 -0.2932
24001W        W40075   2.693   6.494   5.580  0.2484  0.0722  0.3249
24002W        W40076  12.017   2.630   3.192  0.1048  0.2446  0.0339
24003W        W40077   1.677  15.295  12.493  0.1638 -0.1600  0.0607
24004W        W40078   2.988   7.172   2.869 -0.2979  0.0874 -0.3575
24005W        W40079  15.595  11.998   0.365  0.0472 -0.2135 -0.0258
24006W        W40080  10.771  12.944   6.280 -0.0689  0.2927 -0.2076
24007W        W40081  16.896  10.202  14.367 -0.1094  0.4165  0.2523
24008W        W40082  13.550   6.591  13.377  0.0123 -0.1182 -0.1469
24009W        W40083   3.142   0.468   3.265 -0.1850  0.0541  0.0565
24010W        W40084   9.186   2.634  12.835 -0.5462  0.0838  0.1517
24011W        W40085  18.092   1.080  15.728 -0.1295 -0.0895 -0.0757
24012W        W40086   7.367   2.666   3.625  0.1748 -0.1707 -0.1505
24013W        W40087   0.898  11.612  15.158 -0.0923  0.1257  0.0380
24014W        W40088   8.936   5.491  11.319  0.0866 -0.3002  0.1948
24015W        W40089  15.164  13.545   0.305  0.0070 -0.2124 -0.1520
24016W        W40090   9.266   8.319  15.955  0.2150  0.2574 -0.2395
24017W        W40091  17.469   8.860  16.105  0.0197 -0.3019  0.1142
24018W        W40092   2.582   3.519  13.623 -0.4395 -0.3313  0.0524
24019W        W40093  11.605   6.985   0.282 -0.1227 -0.0338 -0.4469
24020W        W40094  18.245  14.770  15.158  0.0266 -0.1376  0.0628
24021W        W40095   7.071   2.714   1.164  0.0070  0.0358  0.0199
24022W        W40096   1.522   3.573   3.454 -0.0153 -0.0317  0.0670
24023W        W40097   7.563  14.029   5.553 -0.2267 -0.3212  0.0579
24024W        W40098   0.641  10.095  15.528  0.4548  0.2115 -0.0924
24025W        W40099   8.229   7.530  12.843 -0.2358  0.0288  0.2589
24026W        W40100  12.073  12.744  14.011  0.1533 -0.1497  0.0062
24027W        W40101   6.415   1.427  15.758 -0.0346  0.1322  0.1128
24028W        W40102   7.619   7.289  14.099 -0.0244  0.0601  0.0782
24029W        W40103   9.362   5.984   0.957  0.2550 -0.0507 -0.0229
24030W        W40104   1.867   0.615   1.160 -0.1635 -0.1116  0.2131
24031W        W40105   0.814   5.814   2.077  0.2659  0.3148 -0.0177
24032W        W40106   5.746  12.012   2.468 -0.1214 -0.2771  0.1566
24033W        W40107   5.045  17.630  13.624  0.0231 -0.2207 -0.1291
24034W        W40108   1.948  10.225  12.605 -0.1670 -0.2185  0.0862
24035W        W40109  16.695  15.282  11.543 -0.0751 -0.1988  0.0180
24036W        W40110   5.544   9.129  10.889  0.2089  0.1318 -0.5291
24037W        W40111  12.452  16.749  12.223 -0.1319  0.3489  0.0016
24038W        W40112   3.231   6.539   3.439 -0.2002 -0.2055 -0.2424
24039W        W40113  16.303  18.124   4.104  0.0571  0.0197 -0.2628
24040W        W40114   9.657  11.622   5.160  0.3247  0.0342  0.3011
24041W        W40115   4.948   9.492   4.609  0.0947  0.0167  0.0244
24042W        W40116   3.877   8.143  14.441 -0.0494  0.0656  0.1382
24043W        W40117   0.742   6.260   0.948  0.4095 -0.2161  0.0779
24044W        W40118   1.905  15.774   2.587 -0.0478 -0.1495 -0.1982
24045W        W40119  10.895  16.795   3.298 -0.1011  0.0641 -0.1528
24046W        W40120   8.340  11.688   3.199 -0.0981  0.3664  0.3090
24047W        W40121  17.246   8.662  15.720 -0.2663  0.0758 -0.1496
24048W        W40122  15.076  14.203   1.804 -0.1286  0.1154  0.5389
24049W        W40123   5.520   4.698  13.215  0.2187  0.1765  0.0434
24050W        W40124   1.297   8.099  14.873  0.1103 -0.4499 -0.2710
24051W        W40125   4.952   1.800   5.000  0.2181  0.2710 -0.0239
24052W        W40126  16.168  13.269  15.046  0.0422 -0.2820 -0.0288
24053W        W40127   8.147   4.451   3.562  0.0038  0.1938  0.3850
24054W        W40128  14.817  16.483  12.897  0.0189 -0.1058 -0.2231
24055W        W40129   0.878  15.061  12.964 -0.0268  0.0521  0.1659
24056W        W40130  18.113  15.121   2.777 -0.1002 -0.1071 -0.2428
24057W        W40131   5.305   6.615   5.349 -0.1144  0.1422 -0.1561
24058W        W40132   1.216   9.533   5.392  0.1181 -0.1655 -0.0466
24059W        W40133  17.061   8.542   3.020  0.2025  0.2689  0.1890
24060W        W40134  17.797  10.196   5.277 -0.2343 -0.1058  0.0145
24061W        W40135  12.061  11.388  12.062  0.0175 -0.1491 -0.0508
24062W        W40136   9.788  13.204   2.708  0.0722  0.0984 -0.3387
24063W        W40137   2.345  13.083   5.859  0.1302  0.1930  0.2755
24064W        W40138   8.583  10.523  11.792  0.1359  0.0504 -0.1592
24065W        W40139   3.165  14.676   2.312  0.0967  0.0529 -0.1633
24066W        W40140  11.081  16.238   4.084  0.0631  0.2375  0.1199
24067W        W40141  10.405  15.879   2.740  0.1533  0.3559  0.0220
24068W        W40142  17.276   5.565  12.542  0.4898  0.3961  0.3812
24069W        W40143  15.581  14.547  11.933 -0.0791  0.2333 -0.0460
24070W        W40144  14.459  14.511  12.132  0.1011 -0.5401  0.2883
24071W        W40145  15.225   9.170  15.905  0.2335 -0.0173  0.0515
24072W        W40146  15.834  17.688  16.201 -0.1416  0.0059  0.1365
24073W        W40147   1.117  10.830  14.044  0.2162  0.1022 -0.1195
24074W        W40148  13.788   2.576   3.693 -0.3564  0.0774 -0.1355
24075W        W40149  12.739   1.231   4.711  0.0084  0.1325 -0.1841
24076W        W40150   7.326   3.388   0.421 -0.0451 -0.1395  0.0053
24077W        W40151   5.115  16.054  12.506  0.3437 -0.1512  0.2689
24078W        W40152  13.989  16.274   4.765 -0.0531 -0.2264 -0.0705
24079W        W40153   6.722  18.220  12.557 -0.0308 -0.0531  0.4007
24080W        W40154   2.821   0.371   4.606  0.0457  0.1607 -0.0621
24081W        W40155   3.205  18.121   1.583  0.1997  0.1467  0.0389
24082W        W40156   1.324   4.316   4.891  0.2815 -0.0439  0.1294
24083W        W40157   8.323   0.401  12.453 -0.2776  0.0757  0.4349
24084W        W40158  13.270   9.330   1.208  0.0767 -0.1222 -0.0336
24085W        W40159  10.125   2.853   2.544  0.0203 -0.0647  0.1452
24086W        W40160   0.781  14.500   2.230  0.3240 -0.1140  0.3940
24087W        W40161  10.031   7.005  14.584  0.3036 -0.0821 -0.0086
24088W        W40162  11.202   2.416  13.159  0.2276  0.2493 -0.0068
24089W        W40163  14.341   9.493   5.736 -0.2001 -0.2138 -0.1829
24090W        W40164   1.328   6.448   4.891 -0.2072 -0.5173  0.2981
24091W        W40165   6.873   9.757   1.113  0.0060  0.1394 -0.2800
24092W        W40166   2.296   0.821   6.413  0.0386  0.0433  0.1582
24093W        W40167   0.323   3.810   4.711 -0.3382  0.3488  0.3469
24094W        W40168  16.394   5.380  14.042  0.0147 -0.0939 -0.2292
24095W        W40169  15.028  10.071   3.338  0.3622 -0.1106  0.2135
24096W        W40170  10.822  10.918   4.646  0.1716 -0.0902 -0.3038
24097W        W40171  15.983  15.463  14.421  0.0074 -0.1224 -0.1361
24098W        W40172  13.489  16.415   2.303  0.0231  0.1773 -0.4489
24099W        W40173   7.724  14.321  14.465  0.0408 -0.2849  0.2337
24100W        W40174   0.134   7.373  14.613  0.4196  0.0562 -0.0593
24101W        W40175  14.218   3.596  12.912  0.1899 -0.1042  0.0733
24102W        W40176  13.991   9.134  12.575 -0.2859  0.2317  0.0077
24103W        W40177  12.442   2.257   0.667  0.1545 -0.0475 -0.2085
24104W        W40178  15.635  18.291  14.840  0.0785 -0.0353  0.1976
24105W        W40179  11.893  10.876   5.666 -0.3335 -0.1911 -0.0292
24106W        W40180   1.960  10.889  13.881  0.1634 -0.2407  0.1243
24107W        W40181   0.180  10.161   0.157 -0.2153  0.1262 -0.1473
24108W        W40182   1.724   0.214  12.394 -0.1109  0.2021 -0.0742
24109W        W40183   4.100  11.095   2.279 -0.3817  0.1369 -0.1747
24110W        W40184   2.543  15.549  14.314 -0.3698  0.2810  0.3865
24111W        W40185   7.679   3.755   0.355 -0.0194  0.3971 -0.1399
24112W        W40186  13.494   5.880  15.578 -0.2893  0.0783  0.0646
24113W        W40187   7.431   9.956  13.174 -0.0910 -0.0770  0.1729
24114W        W40188  15.161  16.298  12.541  0.1660  0.2560  0.1183
24115W        W40189  15.773  10.281   2.679  0.0028  0.1636 -0.0370
24116W        W40190   8.206   0.262   0.255  0.0792  0.0564 -0.1912
24117W        W40191   9.206  16.614   3.723 -0.5012 -0.0193  0.0581
24118W        W40192  15.664   8.433   2.499  0.1403  0.3065  0.0408
24119W        W40193   7.618  13.469   1.332 -0.0202  0.0094  0.0406
24120W        W40194  15.167   4.076  13.794  0.0260 -0.0854  0.0309
24121W        W40195  13.013   4.163   9.875  0.1096  0.0770 -0.0880
24122W        W40196   2.099  11.716  14.564 -0.1774 -0.1216  0.1298
24123W        W40197  14.205  16.134  12.815  0.0845  0.0502  0.1639
24124W        W40198  16.348   2.004   4.692  0.3225  0.1021 -0.0065
24125W        W40199  11.886   9.978   4.487  0.0208  0.0652 -0.0079
24126W        W40200  11.042  12.994   3.318 -0.0186 -0.0269  0.1702
24127W        W40201   8.837  13.783   6.336  0.0193  0.0973 -0.1171
24128W        W40202   5.840   5.757   5.394 -0.1350 -0.2081 -0.1699
24129W        W40203   5.078  17.256  13.968  0.2586 -0.2564  0.2967
24130W        W40204   7.591   8.780   2.671 -0.4945  0.0264  0.0160
24131W        W40205   3.423   3.683  15.726  0.1201 -0.0942  0.1462
24132W        W40206  12.818  13.433   2.360 -0.2813 -0.1420  0.1946
24133W        W40207  16.919   6.206   1.072  0.2328  0.1473  0.3210
24134W        W40208  18.187   5.111   0.465  0.0387 -0.1687 -0.3802
24135W        W40209  12.486   9.959  15.256 -0.2123  0.0343  0.2716
24136W        W40210   0.660  11.635   4.761 -0.3344 -0.2416  0.0656
24137W        W40211  13.956   0.832   2.575 -0.0294 -0.0404 -0.2058
24138W        W40212  11.780  15.420   1.655 -0.1238  0.0944  0.0443
24139W        W40213   2.114  15.361  15.142  0.0731  0.2087  0.2216
24140W        W40214  16.098   9.050   5.504  0.0928  0.1479  0.4266
24141W        W40215   1.642   6.858  15.980  0.0949  0.0136  0.0724
24142W        W40216  16.555   3.119   2.743  0.0756  0.1156 -0.1927
24143W        W40217  11.360  17.221   4.895 -0.1608 -0.0646 -0.0542
24144W        W40218  14.412  15.963  14.141  0.0083  0.2482 -0.0406
24145W        W40219  12.390   4.453  13.392 -0.0390  0.1766  0.2364
24146W        W40220  15.928  16.287   4.903  0.0435  0.1861 -0.0046
24147W        W40221   8.325  11.041   3.025 -0.0505 -0.3309  0.0807
24148W        W40222   6.297   7.079  15.679  0.0290 -0.3191 -0.1349
24149W        W40223   8.734  15.784  13.575 -0.1226  0.2708 -0.3768
24150W        W40224   9.088   6.358  14.836  0.2059  0.1224  0.0635
24151W        W40225   9.542   3.708   1.762 -0.0589 -0.1004  0.4123
24152W        W40226  12.729  14.015  14.916 -0.1570 -0.0255  0.1897
24153W        W40227  15.391   7.713  12.337 -0.0941 -0.0683 -0.1156
24154W        W40228   8.859  17.013  10.592  0.3983 -0.0243 -0.0134
24155W        W40229   6.970   3.618   4.183 -0.0966 -0.0204 -0.1155
24156W        W40230   9.164  14.595  14.370  0.0586 -0.0448 -0.1113
24157W        W40231   6.301  16.530   4.627  0.2863 -0.1277 -0.1229
24158W        W40232  11.459   7.830   0.010 -0.0264  0.2425 -0.2362
24159W        W40233  16.726  14.245   3.739  0.0619  0.5262  0.3120
24160W        W40234   1.045   1.490  13.359  0.0737 -0.1151  0.0750
24161W        W40235  15.221  16.274  15.913  0.0633  0.1236  0.2987
24162W        W40236   2.562  14.581  16.363  0.0540 -0.2289  0.0669
24163W        W40237   4.342   5.245   2.423 -0.2555  0.1867 -0.0541
24164W        W40238   4.299   2.209  14.137 -0.2954  0.1390 -0.2011
24165W        W40239  16.297  14.272  11.444  0.0174  0.1189  0.1074
24166W        W40240  17.710  15.290   5.167  0.1091 -0.0597  0.1270
24167W        W40241  12.111  13.724   1.450  0.0754  0.3091  0.1308
24168W        W40242   3.345   9.597  14.687  0.0394  0.2269 -0.4149
24169W        W40243   5.589  12.066  13.718 -0.2491  0.0314  0.2869
24170W        W40244   4.617   4.842  14.067  0.0833  0.1737  0.4593
24171W        W40245  18.226  18.286   1.691 -0.0781  0.0708  0.0564
24172W        W40246   5.181  11.183   4.540  0.2045 -0.0563  0.3571
24173W        W40247   5.602  14.494   2.234  0.1509 -0.3796  0.1841
24174W        W40248  10.270   2.846  12.209 -0.2080 -0.2671  0.2014
24175W        W40249   8.686   5.216   5.303 -0.2650  0.0432 -0.2565
24176W        W40250   9.619   9.556   4.810  0.0873  0.2096  0.0016
24177W        W40251   1.146  17.657  14.160  0.2975  0.0325 -0.1358
24178W        W40252  15.813  11.994  15.760  0.0829  0.0010 -0.1827
24179W        W40253   6.866  17.821   3.980 -0.2799 -0.0802  0.0413
24180W        W40254   4.972   4.234   3.256 -0.1374  0.0910  0.0206
24181W        W40255  15.780  10.601  12.711  0.0497  0.1406 -0.0486
24182W        W40256   2.004  14.042   2.940  0.1286 -0.2058  0.1086
24183W        W40257   2.234  11.838   2.254 -0.0338 -0.2619 -0.1326
24184W        W40258  13.090  10.968   1.884  0.0080 -0.3071 -0.1437
24185W        W40259  11.964  18.265  14.450  0.1933 -0.0327  0.2114
24186W        W40260   1.860  16.724  15.445  0.1346 -0.0704  0.0803
24187W        W40261   0.135   4.946  14.523  0.2637  0.1450 -0.1032
24188W        W40262   1.415  11.863  16.178 -0.0009 -0.2257  0.2743
24189W        W40263   6.406  10.516   1.809  0.0247 -0.0451 -0.1866
24190W        W40264   4.947  16.332  13.882  0.0600  0.0866  0.1185
24191W        W40265  10.401  17.533   5.069  0.0118 -0.1176  0.0384
24192W        W40266   3.456   0.007  13.648  0.3578  0.2726  0.0113
24193W        W40267  16.936  10.712  14.558 -0.0172 -0.0075  0.2586
24194W        W40268   0.248   7.343   1.613  0.0229 -0.1116 -0.3738
24195W        W40269  11.069  18.167   1.467 -0.1821  0.3488 -0.1283
24196W        W40270   2.323   4.880   0.455 -0.2086 -0.0100  0.0744
24197W        W40271  11.078   0.138   1.998  0.0465 -0.2613 -0.0719
24198W        W40272   0.589  13.869   5.382 -0.1145  0.0999  0.0393
24199W        W40273   5.193   1.503   2.040  0.1945 -0.3151 -0.1785
24200W        W40274   3.321  17.866  13.821  0.1628  0.1190  0.0855
24201W        W40275  16.201  17.404  13.706  0.2498  0.2147 -0.0411
24202W        W40276   5.210   8.938   2.602 -0.2625 -0.3428 -0.0131
24203W        W40277  15.873   3.722   5.072  0.0885 -0.0485  0.0900
24204W        W40278  17.587   3.397   1.421  0.1297  0.0940  0.1164
24205W        W40279   1.999   1.361  13.172  0.0659  0.4607  0.1533
24206W        W40280  13.498   9.740   1.843 -0.2696  0.2423 -0.0840
24207W        W40281   2.515   4.354  14.104  0.0938  0.3663  0.1878
24208W        W40282  14.401   2.320   1.348 -0.0343  0.3310 -0.0468
24209W        W40283  12.611  13.329   1.851  0.1653  0.0607 -0.0466
24210W        W40284   1.666   9.053   4.514 -0.0305 -0.1882  0.0159
24211W        W40285   6.909  10.206   4.654  0.4073 -0.2090  0.0391
24212W        W40286  11.204   7.615   1.472  0.0088  0.2205  0.0271
24213W        W40287   4.598   4.424  13.676 -0.0976 -0.4480 -0.1621
24214W        W40288   1.248  16.855  12.903  0.3254  0.1503 -0.1843
24215W        W40289   8.674  15.798   4.210 -0.2264  0.0502  0.0977
24216W        W40290  18.241  12.430   5.778  0.2313 -0.0353  0.0162
24217W        W40291   3.366   6.768  14.530  0.2279  0.0609 -0.0214
24218W        W40292   4.933   5.088   0.357 -0.1974 -0.0637  0.3235
24219W        W40293   7.587  18.086  14.512 -0.0990  0.1870 -0.0971
24220W        W40294  17.531   1.149   1.035 -0.1512 -0.1151 -0.1297
24221W        W40295   1.142  12.053  11.145  0.0456  0.1838  0.1137
24222W        W40296   3.831   3.274   1.709 -0.3407  0.0635 -0.3221
24223W        W40297   8.897   2.939   0.789 -0.0616  0.4264 -0.0763
24224W        W40298  12.928  17.884   2.423 -0.0145  0.2664  0.1114
24225W        W40299  11.831  18.145  15.967 -0.0340  0.0330  0.0942
24226W        W40300   8.582   2.243  13.751 -0.0884 -0.2957  0.1087
24227W        W40301   1.876  18.085  12.057  0.2536 -0.1258 -0.0650
24228W        W40302  13.738   6.202   2.208  0.0381 -0.0750  0.0477
24229W        W40303   6.324   1.208   4.716  0.0394  0.1521 -0.0770
24230W        W40304   0.683   1.454   3.266  0.1602 -0.1960  0.1584
24231W        W40305  13.106   8.689  14.843 -0.2009  0.0722  0.2365
24232W        W40306   9.360  17.140  15.869  0.2033  0.0055 -0.0723
24233W        W40307  11.912  16.339  15.571 -0.2519  0.2195 -0.1402
24234W        W40308  15.873  12.732   4.466  0.1589  0.2353  0.2192
24235W        W40309   5.683   1.650   6.237 -0.3311  0.3146 -0.1150
24236W        W40310   5.035   2.860  14.637 -0.1929  0.0063 -0.1690
24237W        W40311   9.469  15.870  11.809 -0.3160 -0.0334 -0.2409
24238W        W40312   1.332   1.496   2.683 -0.0193  0.0408  0.5241
24239W        W40313  17.087   1.070  15.249  0.0247  0.1878 -0.1240
24240W        W40314   4.862  16.074  15.565  0.1649  0.0567  0.3109
24241W        W40315  11.374   2.017  14.360  0.0068  0.1229  0.3269
24242W        W40316  14.814  13.325   1.605 -0.1068  0.0767 -0.0425
24243W        W40317   0.837   3.601   2.307 -0.2389 -0.3398 -0.1258
24244W        W40318   2.702  13.117   4.633  0.0803  0.2582  0.0116
24245W        W40319   1.932   5.493   6.412  0.0727 -0.1074 -0.3567
24246W        W40320   0.486   1.685   3.772 -0.1262 -0.1897  0.0356
24247W        W40321  15.341   5.796  14.841 -0.0959 -0.1058 -0.0960
24248W        W40322  12.521   6.505   2.620  0.3962 -0.3789 -0.0831
24249W        W40323  14.995  16.145  14.941  0.1390  0.0707  0.0809
24250W        W40324   2.403  17.601   5.140  0.1659 -0.0291 -0.1748
24251W        W40325  14.564   2.967   0.088  0.4232 -0.2270 -0.4257
24252W        W40326  11.424   0.666   2.525 -0.0397 -0.0854 -0.0813
24253W        W40327   6.734   6.189  14.092 -0.0300 -0.1681 -0.0813
24254W        W40328  10.274  10.378   2.112  0.1766 -0.1614 -0.1993
24255W        W40329  12.496   5.500   2.322  0.1001 -0.1059  0.1959
24256W        W40330  13.992  10.474  13.199  0.3181  0.0461  0.2889
24257W        W40331  16.853   2.990   2.361 -0.3051  0.1721 -0.0014
24258W        W40332  10.323   7.068   0.377 -0.3413 -0.0413  0.4726
24259W        W40333   3.455  12.684   5.147 -0.1407 -0.0075 -0.0836
24260W        W40334  16.786  11.254  13.962  0.0947 -0.2433  0.2598
24261W        W40335   2.637   1.231   2.881 -0.1042  0.1920  0.1495
24262W        W40336   0.344   0.174   2.625 -0.1640  0.1070  0.0521
24263W        W40337   7.513   2.596   2.469 -0.0636 -0.0925 -0.0880
24264W        W40338   5.837  15.771  14.122  0.1973 -0.1257 -0.1002
24265W        W40339   1.959  14.945   4.918 -0.0366 -0.0805  0.0903
24266W        W40340   9.930   4.486  10.836 -0.2339  0.0446 -0.0921
24267W        W40341   3.971  11.414   6.048 -0.2777  0.0328  0.3702
24268W        W40342  11.809  11.795   4.792 -0.0510  0.2388 -0.0178
24269W        W40343  10.276   7.518   0.624 -0.1412 -0.3052 -0.0443
24270W        W40344  15.832  12.411  14.100 -0.1087  0.4310  0.0639
24271W        W40345   3.654   8.144  15.322 -0.1242  0.2262  0.0289
24272W        W40346  12.060  16.387   4.057  0.2934  0.1670  0.2209
24273W        W40347   8.977  14.737   5.303 -0.2098 -0.3601  0.2474
24274W        W40348  13.986  11.677  11.658  0.3873 -0.4280 -0.3749
24275W        W40349   5.781  15.121   1.510 -0.0628 -0.0019 -0.2333
24276W        W40350  13.056  10.221  15.059  0.1847  0.0036  0.0807
24277W        W40351  12.341   5.805  12.978 -0.2563 -0.0393  0.1928
24278W        W40352  14.849   7.401  13.230  0.0537 -0.2621 -0.1477
24279W        W40353  11.152   8.865  14.857  0.4333 -0.1522  0.1374
24280W        W40354   1.673   0.459   0.157 -0.1681  0.1093 -0.1552
24281W        W40355   0.058  14.453   3.979 -0.1566 -0.4929 -0.3083
24282W        W40356  12.228   9.608   1.931 -0.1373 -0.4238  0.0429
24283W        W40357  11.632   9.381   1.011  0.3627  0.0173 -0.0100
24284W        W40358  10.859  17.289   4.938  0.0821  0.1879  0.0039
24285W        W40359  10.118  13.484   4.919 -0.0726  0.2294 -0.0187
24286W        W40360  16.995  11.562  15.203  0.1543  0.6729 -0.0318
24287W        W40361   8.919  11.361  15.730 -0.4227 -0.1265  0.1710
24288W        W40362   3.000  11.608   4.654 -0.3161 -0.0111 -0.0710
24289W        W40363  13.683   7.351  10.693  0.2245  0.0011 -0.0014
24290W        W40364   2.170  14.569   2.376  0.3057  0.0840 -0.2751
24291W        W40365   4.077  12.057   2.004  0.0201 -0.0398 -0.1437
24292W        W40366   8.581   7.530  14.168 -0.0858  0.3279 -0.0444
24293W        W40367  16.742   0.710  13.173 -0.4236 -0.1708  0.3383
24294W        W40368   8.915   9.530  11.784  0.2097  0.2020 -0.2011
24295W        W40369   1.506   3.002   3.449 -0.5079 -0.2882 -0.2318
24296W        W40370   7.845   9.410  10.554  0.2042  0.2483  0.0191
24297W        W40371   0.760   6.108   5.828  0.0055 -0.3082  0.3922
24298W        W40372  13.990   9.546  13.786 -0.0195  0.2032  0.2571
24299W        W40373   2.114  12.703   1.730  0.2124  0.0480 -0.1204
24300W        W40374   8.787   1.788  13.766 -0.0659 -0.0596  0.2640
24301W        W40375  17.224   6.861  15.969  0.1773 -0.2191 -0.2287
24302W        W40376   3.598  15.836  13.571 -0.1868 -0.2433 -0.1514
24303W        W40377   6.384   3.002   0.528  0.0841 -0.1054 -0.2223
24304W        W40378   4.882  13.906  15.655 -0.3109  0.1539  0.2877
24305W        W40379   9.770   2.949  13.384  0.0669 -0.0376 -0.0755
24306W        W40380   4.554  11.662  15.289  0.0911  0.0040 -0.0753
24307W        W40381   9.293   6.588  11.301  0.1127 -0.2028  0.1962
24308W        W40382   9.203  11.645  15.210  0.0646 -0.1399 -0.1483
24309W        W40383  12.867  13.625   4.672  0.0158  0.1424  0.2601
24310W        W40384  16.966   1.553   4.596 -0.1927 -0.0007  0.1303
24311W        W40385   9.538   6.447  15.572 -0.0236  0.1612  0.2147
24312W        W40386   9.332   9.972  15.223  0.1875 -0.0203  0.1433
24313W        W40387   3.707   5.593   3.269 -0.0354  0.3735 -0.0670
24314W        W40388  14.785  13.803  14.634  0.3709 -0.0022 -0.2569
24315W        W40389  16.185  17.677   2.412 -0.0556  0.0729  0.3158
24316W        W40390   3.331   3.933  14.042  0.3867  0.4120  0.0105
24317W        W40391  12.710   4.635   2.443  0.1741 -0.0836 -0.2987
24318W        W40392   0.929  16.554   4.288  0.2942  0.1670 -0.3115
24319W        W40393   4.080   5.179  12.344 -0.4034  0.0238 -0.1874
24320W        W40394  18.089  13.486  15.679  0.2260  0.0987  0.1396
24321W        W40395  15.681  16.195  15.764 -0.3124 -0.4253  0.0867
24322W        W40396  15.133   6.681  15.102  0.0525  0.2603 -0.0935
24323W        W40397   0.264  11.040  14.318 -0.1000 -0.0293  0.3561
24324W        W40398   1.207   2.990   1.550  0.1447 -0.0330 -0.0282
24325W        W40399  13.409  13.167   3.116  0.1081 -0.0075 -0.2583
24326W        W40400  10.400   5.989  11.957 -0.1649 -0.2714 -0.2633
24327W        W40401  11.103   3.797   4.074  0.1099  0.0232  0.1945
24328W        W40402  17.893   1.638   2.372  0.0915  0.0233  0.1107
24329W        W40403   0.260   5.551  15.389  0.1856  0.1634  0.1336
24330W        W40404   1.229   2.487  15.934 -0.0247  0.1981  0.0573
24331W        W40405   5.917   2.767  15.264  0.5649 -0.0229  0.1923
24332W        W40406  12.192   5.636   5.222 -0.1626  0.0681 -0.2953
24333W        W40407   4.856  10.019   2.664  0.0629 -0.1629 -0.1017
24334W        W40408  17.832   9.682  14.645  0.1169  0.0478 -0.2416
24335W        W40409   2.174   7.464  14.462  0.0391  0.0851  0.0783
24336W        W40410   1.345  11.317   4.099  0.1442  0.1173 -0.1288
24337W        W40411  11.400  14.442  13.048 -0.0338 -0.0464  0.1553
24338W        W40412   3.800  16.794   3.718 -0.0340  0.1288 -0.0656
24339W        W40413   3.129   4.787   3.013  0.2712 -0.2131  0.3037
24340W        W40414   8.931   0.884  10.911  0.0513 -0.5183 -0.3612
24341W        W40415   0.189   8.929  15.775 -0.3335  0.0973  0.1928
24342W        W40416   3.430   7.099   2.590 -0.0096 -0.2410 -0.1648
24343W        W40417   0.222   3.910   3.202  0.1948  0.0064  0.1773
24344W        W40418   2.060   3.469  13.449  0.0090 -0.1453  0.0171
24345W        W40419   7.705   5.214   2.085 -0.2498  0.0018  0.0461
24346W        W40420   0.503   4.786   0.148  0.3224  0.0225 -0.3379
24347W        W40421  13.482  16.617  11.007  0.1054  0.1609 -0.0356
24348W        W40422  14.669   4.307  11.386  0.0496  0.0287 -0.2793
24349W        W40423   2.337  13.109   2.956  0.0854 -0.2190 -0.0875
24350W        W40424   3.409  10.548   3.297  0.0967  0.2090 -0.2267
24351W        W40425  10.080   5.908  13.796 -0.0825  0.0808 -0.0973
24352W        W40426   4.774   6.463   2.927 -0.0577 -0.1823 -0.0169
24353W        W40427  16.417  16.754  14.679  0.0038 -0.0532 -0.0879
24354W        W40428  15.116   9.945  12.292  0.0025  0.0560 -0.0252
24355W        W40429  13.769  15.711  16.277  0.1875 -0.1247  0.1252
24356W        W40430  15.656   2.189  16.351 -0.2011 -0.2787  0.1508
24357W        W40431  10.582   5.763  10.922  0.1392 -0.0362 -0.1415
24358W        W40432   6.171   8.404   5.090 -0.0457  0.2373  0.0572
24359W        W40433   6.278   9.265   3.377  0.0746 -0.2948  0.0743
24360W        W40434  17.349   9.671  15.623 -0.3267 -0.0754 -0.1413
24361W        W40435  17.771  14.276   6.262 -0.0627  0.2157  0.0128
24362W        W40436   3.002  17.301  15.639  0.0609  0.1209 -0.0761
24363W        W40437   6.873  13.899  16.115 -0.0213 -0.1554 -0.2461
24364W        W40438   2.378   2.785  13.930 -0.0529 -0.2375 -0.0150
24365W        W40439  10.179  14.738  13.042  0.0228  0.2577 -0.0490
24366W        W40440  15.523   5.773  11.989  0.3372  0.0884  0.0165
24367W        W40441  18.202   0.199   2.755 -0.0024  0.1325  0.2213
24368W        W40442  10.025   8.763   2.690  0.0575  0.1821 -0.1912
24369W        W40443  11.014   3.087   0.254 -0.0308  0.1753 -0.0625
24370W        W40444  13.979  16.612   6.328  0.0487  0.1586 -0.2536
24371W        W40445   7.038  11.015  15.408  0.0728  0.2067  0.1065
24372W        W40446   2.952  14.799   4.353 -0.2946  0.1929  0.0122
24373W        W40447   7.268   5.395   2.235  0.0186  0.0764 -0.1096
24374W        W40448   7.431   6.080  11.989 -0.0719 -0.0335 -0.4668
24375W        W40449   2.016  11.908  11.968  0.1803 -0.2566 -0.0241
24376W        W40450  10.858   0.907  13.935  0.1589 -0.0415  0.1406
24377W        W40451   9.089   7.533  15.939  0.3774  0.0864  0.1665
24378W        W40452   5.793  15.610  15.162  0.1292 -0.1063  0.1797
24379W        W40453   7.970  14.449  15.557  0.0242 -0.1729  0.1179
24380W        W40454   2.561   4.969   1.222  0.0245  0.0063  0.0765
24381W        W40455   9.352  11.386   5.578  0.0118  0.2662 -0.0225
24382W        W40456  16.608   5.668  15.730  0.0874  0.0198  0.0229
24383W        W40457   1.560  16.131   2.779  0.0420 -0.2883  0.0274
24384W        W40458  13.948  16.258   5.769  0.2031  0.0296 -0.0025
24385W        W40459  14.073  15.211  12.598 -0.1011 -0.0505 -0.1461
24386W        W40460   2.475  12.758  14.500 -0.3070 -0.1900  0.0277
24387W        W40461  13.976  10.245  12.605 -0.0084  0.1449 -0.1094
24388W        W40462   9.172  13.772  12.977 -0.1141 -0.2522  0.1249
24389W        W40463  12.927   0.525   1.572  0.0801  0.0615  0.1737
24390W        W40464  17.697   4.081   1.471 -0.5688  0.1340  0.1736
24391W        W40465  15.267   6.495   0.744  0.1589 -0.0502  0.0268
24392W        W40466   4.941   8.469  16.352  0.1460  0.1131  0.0218
24393W        W40467  14.173   5.172   2.813  0.3157 -0.2468 -0.2400
24394W        W40468   9.810  14.971  14.739 -0.2655  0.0064 -0.3140
24395W        W40469   4.090   2.916  14.985 -0.4206  0.0770 -0.3029
24396W        W40470  12.947   0.051  12.129 -0.0387  0.1289  0.0502
24397W        W40471  11.449  10.222   1.543  0.1983  0.1118  0.1166
24398W        W40472  15.007  17.939   2.934  0.1030  0.0366  0.3842
24399W        W40473  13.790   6.583  12.111  0.2116 -0.1665 -0.1876
24400W        W40474   5.001   7.433   3.552 -0.0485  0.2938  0.0954
24401W        W40475  15.672   3.769   4.406 -0.2590  0.2237  0.0475
24402W        W40476   8.806   3.772  15.611  0.2127 -0.3063  0.0092
24403W        W40477   4.378   4.642  15.991 -0.3743 -0.0846 -0.0763
24404W        W40478   4.063   0.130   0.582  0.0248 -0.2071 -0.1363
24405W        W40479  17.160  11.957   5.032  0.0169 -0.0566  0.0768
24406W        W40480  17.741   8.000  13.574  0.3775 -0.1238 -0.1752
24407W        W40481   7.474  17.735  15.982 -0.0263 -0.1365  0.2135
24408W        W40482   9.200   2.615   1.501 -0.0376  0.0498  0.0455
24409W        W40483  16.856   3.437   0.989 -0.1320  0.4083  0.2294
24410W        W40484   8.111   4.458  14.518 -0.2551 -0.0507 -0.0290
24411W        W40485  15.760  14.993  13.621 -0.1631 -0.3707 -0.2185
24412W        W40486  14.159   7.110   2.092 -0.3012 -0.0110 -0.3043
24413W        W40487  13.138   7.565   2.979  0.1191 -0.4610  0.0211
24414W        W40488   6.657   8.473   1.616  0.0414  0.3651  0.3567
24415W        W40489   8.352  15.576   2.329  0.2276 -0.2999  0.2412
24416W        W40490  10.982   0.321   2.468  0.2102 -0.3948  0.0658
24417W        W40491   9.307  12.346   0.752  0.1093 -0.0315 -0.3042
24418W        W40492   4.887   1.981  12.560 -0.2271 -0.1808  0.1319
24419W        W40493   5.659   7.536   2.968  0.1014 -0.1010 -0.1007
24420W        W40494   0.744  14.144  12.660  0.1795  0.1389 -0.0661
24421W        W40495   3.328  15.171  11.825  0.1425  0.0483 -0.1063
24422W        W40496  14.438   4.861   4.277 -0.1380 -0.1766 -0.0159
24423W        W40497  15.592   4.356  10.536  0.3980  0.1255  0.1638
24424W        W40498   7.877  13.857  12.550 -0.4479  0.0974 -0.1828
24425W        W40499   0.707  15.962  15.473 -0.0127  0.0360 -0.2430
24426W        W40500   7.699   0.770  14.132  0.0498  0.1037  0.1687
24427W        W40501   4.114  14.283  11.893  0.4523 -0.3728 -0.2164
24428W        W40502   8.208   8.298  11.836  0.2227  0.0082  0.0465
24429W        W40503  13.457  12.805   5.028 -0.2121 -0.0417 -0.3010
24430W        W40504   5.702  14.098   3.711 -0.4034  0.1175  0.4841
24431W        W40505   1.375   5.472   3.146  0.0024 -0.2441  0.1792
24432W        W40506   1.995  11.065  10.242  0.1841  0.3329 -0.4340
24433W        W40507   2.544   6.116   6.210  0.1750  0.3133  0.3726
24434W        W40508   5.137  11.984  12.936  0.0454  0.1371  0.0008
24435W        W40509  10.386   1.591  14.555 -0.1386 -0.1397  0.0857
24436W        W40510   6.079  14.300  13.190 -0.1107  0.2526  0.0059
24437W        W40511  16.475  15.625   0.734 -0.0309  0.1929 -0.2943
24438W        W40512  16.180   6.811  11.772 -0.1216  0.2642  0.0293
24439W        W40513   6.546  16.560  14.875 -0.2164  0.0788 -0.4280
24440W        W40514   7.567  13.601   5.807 -0.0336  0.1447 -0.2179
24441W        W40515  15.186  16.146   0.376 -0.1730 -0.1043 -0.0838
24442W        W40516   7.298  12.359   2.935  0.0378 -0.0007 -0.2640
24443W        W40517   0.341  13.727  11.426 -0.0954  0.2392  0.0120
24444W        W40518  17.303   7.790   1.393  0.2592 -0.0438 -0.1001
24445W        W40519  17.192   2.152  15.559  0.0274  0.1972 -0.0960
24446W        W40520   6.947   5.084  14.288 -0.0821 -0.0732 -0.1596
24447W        W40521   2.798   7.559  14.263  0.0723 -0.0357  0.3348
24448W        W40522   1.483  16.022  15.071 -0.1851  0.1239  0.0067
24449W        W40523  16.762  16.583   2.218  0.1219 -0.3973 -0.0620
24450W        W40524   3.303   1.902  15.346  0.2195 -0.1962  0.0994
24451W        W40525   4.602  14.302  15.514 -0.1430  0.1441  0.0838
24452W        W40526   7.906   8.919  12.314  0.0835  0.1495  0.0319
24453W        W40527   7.670  17.013  12.778  0.0380 -0.3001 -0.2310
24454W        W40528  10.739  11.033   1.735 -0.1410  0.2478 -0.3834
24455W        W40529  11.668  10.480  11.872 -0.2622 -0.1619 -0.0063
24456W        W40530   6.251  14.835   1.862  0.0085  0.0773  0.3449
24457W        W40531   2.242  10.149  12.029 -0.0415  0.5728  0.2577
24458W        W40532  13.033   7.590  13.683 -0.0658  0.0353  0.2250
24459W        W40533  13.534   8.172  15.390  0.0585 -0.2006  0.0582
24460W        W40534   0.126   9.909   5.040  0.0068 -0.1657 -0.2820
24461W        W40535   8.640  12.839  12.813  0.1733  0.1635 -0.0497
24462W        W40536   1.287  17.044   6.126  0.3000 -0.0621 -0.0374
24463W        W40537  13.154  15.710   6.292 -0.0256 -0.1883 -0.0991
24464W        W40538   7.730  14.030   1.241 -0.1915  0.4528 -0.0191
24465W        W40539   7.454  13.199  11.769 -0.0195  0.1247 -0.0525
24466W        W40540  10.128   0.703  15.108 -0.2686 -0.0814  0.3578
24467W        W40541  15.266   0.103  11.607  0.1223  0.0816  0.0050
24468W        W40542   7.469  17.152  11.667 -0.0847  0.1758 -0.2824
24469W        W40543   0.654  12.588  12.824  0.0767 -0.0180 -0.0210
24470W        W40544   4.364   1.377  14.083 -0.1236 -0.1887  0.0401
24471W        W40545   7.586   6.204   4.700 -0.0463  0.1004  0.0735
24472W        W40546   5.149  16.267  11.129  0.2514  0.3630 -0.0012
24473W        W40547  16.759  15.000  14.908  0.1204 -0.1701  0.2579
24474W        W40548  16.088  13.127   5.204 -0.0670 -0.2796 -0.3229
24475W        W40549  14.607   2.343  12.499  0.0941 -0.0120 -0.0940
24476W        W40550  12.108   7.803  13.090  0.2587 -0.1995  0.1047
24477W        W40551   0.575   1.196   2.225  0.1373  0.3336  0.2868
24478W        W40552  11.255   2.699   0.513 -0.0108 -0.1757 -0.1080
24479W        W40553  15.719   8.487   6.317  0.0969 -0.1874  0.1757
24480W        W40554   9.556  14.312  14.158  0.0557 -0.2686 -0.0009
24481W        W40555   4.247  11.775   1.607 -0.0086 -0.1193 -0.1648
24482W        W40556   5.837  15.915   5.491  0.3591 -0.4160 -0.2857
24483W        W40557  16.318   8.500   4.219  0.5891 -0.2338  0.2582
24484W        W40558   4.505  17.095  12.820  0.2281 -0.0561  0.0180
24485W        W40559   9.964  16.953   0.685  0.1586 -0.3095 -0.0200
24486W        W40560  10.519  13.690  12.940 -0.0608 -0.0177  0.0994
24487W        W40561  12.260   0.686   3.714 -0.2368 -0.0285  0.1146
24488W        W40562  12.796  11.338  11.625  0.1216 -0.0672 -0.0142
24489W        W40563  14.290   9.147   2.377 -0.0910 -0.0508  0.4329
24490W        W40564   3.390   9.677  12.661 -0.1831  0.2753  0.0480
24491W        W40565   1.303   5.841   4.133 -0.2908 -0.3486 -0.1769
24492W        W40566   3.568  16.624  11.569 -0.1471  0.0483 -0.2656
24493W        W40567  12.165  12.836   3.297 -0.1150  0.2594  0.2074
24494W        W40568  16.922  11.548  13.515 -0.2313  0.0201 -0.3979
24495W        W40569  10.954   0.779   2.833  0.1539 -0.1437  0.0551
24496W        W40570   5.505   9.099   5.024  0.2308  0.2503  0.0420
24497W        W40571  18.251   5.394   0.982 -0.0511  0.1756  0.1714
24498W        W40572  16.330  12.420  16.368 -0.0717 -0.1965  0.0454
24499W        W40573  13.796   7.005  13.551  0.2096  0.1557  0.0779
24500W        W40574   5.367  16.815  14.082 -0.0242 -0.0983  0.0801
24501W        W40575   4.008  18.025   2.527  0.1403 -0.0861 -0.2110
24502W        W40576  10.620   6.759  13.612 -0.2514  0.1280 -0.1497
24503W        W40577  12.046  16.899   0.557  0.5607 -0.2519  0.0646
24504W        W40578  13.581  10.740  11.717 -0.1662  0.1577 -0.0242
24505W        W40579  14.701   5.884   3.276  0.0483 -0.0422 -0.0865
24506W        W40580   2.750   9.770   4.234  0.1244 -0.1193  0.0249
24507W        W40581  11.428  15.842   2.218 -0.1342 -0.3987  0.0026
24508W        W40582   4.761   8.436  13.002 -0.0451  0.1676 -0.2349
24509W        W40583   4.991   3.769  11.122  0.0475 -0.0838  0.2580
24510W        W40584   7.150   4.260  14.531 -0.4169 -0.3561  0.0399
24511W        W40585  17.554   6.084   5.060 -0.1811  0.1282 -0.1837
24512W        W40586   3.605  17.357   1.128  0.0875 -0.1931  0.3588
24513W        W40587   6.461   0.596   1.466  0.0449  0.0909 -0.0481
24514W        W40588   7.558   0.757  11.312 -0.1281  0.3221  0.1517
24515W        W40589   7.951   9.142   2.824 -0.0447  0.1557 -0.1599
24516W        W40590  11.742  17.694  11.965  0.3001 -0.0519 -0.2445
24517W        W40591  17.552   1.621   1.419 -0.3730  0.2321 -0.0755
24518W        W40592  16.237  15.515   2.527  0.3054  0.0995  0.3163
24519W        W40593   9.184   9.463   3.451  0.0416 -0.1667  0.1535
24520W        W40594  15.885   2.329   4.718 -0.2190 -0.0806 -0.3203
24521W        W40595  17.738  10.476  13.196 -0.2849  0.3703 -0.0563
24522W        W40596   9.909   5.386   4.481 -0.0388  0.2239 -0.0310
24523W        W40597  17.793   5.622   3.784  0.0051  0.0977 -0.1218
24524W        W40598  17.099  10.014   1.947  0.3680 -0.0083  0.0928
24525W        W40599   8.369  14.867   3.719  0.0091  0.0531  0.1188
24526W        W40600   9.893  12.941   5.488 -0.0783 -0.3140 -0.4018
24527W        W40601  13.506   0.866   3.447 -0.0612  0.0415  0.2388
24528W        W40602   4.502   7.336  13.232 -0.0032 -0.1124  0.2043
24529W        W40603   9.129   4.223   1.121 -0.6323 -0.1671 -0.0070
24530W        W40604  15.294   7.804   1.924  0.0589 -0.1154  0.0965
24531W        W40605  10.299  12.925  12.497 -0.1433  0.0867  0.1552
24532W        W40606   4.946  17.878   2.961 -0.1663 -0.2793  0.0471
24533W        W40607   5.752   0.783   5.587 -0.1169  0.1169  0.0428
24534W        W40608   0.041   7.892   0.442 -0.1879 -0.0979  0.3560
24535W        W40609  14.297   4.493   0.191  0.0392  0.1960  0.4349
24536W        W40610   3.808  16.843   2.779 -0.3023 -0.2969 -0.2195
24537W        W40611  13.879  11.766   1.668  0.1358 -0.2811 -0.2284
24538W        W40612  17.411   8.806  11.713  0.1162  0.0193 -0.4793
24539W        W40613   4.834   5.431  15.033  0.0354 -0.0959 -0.0751
24540W        W40614   3.031   0.383  13.500 -0.0367  0.2630  0.2952
24541W        W40615   8.051  13.350  12.456 -0.1998 -0.2610  0.0824
24542W        W40616  13.364  17.328   4.825  0.1693 -0.0462 -0.0198
24543W        W40617   8.260  15.977  14.090 -0.0028  0.2816 -0.0502
24544W        W40618   4.115   6.357  16.053  0.0175 -0.0610  0.1483
24545W        W40619   1.100  13.442  13.924 -0.4257  0.0920 -0.2817
24546W        W40620   5.109   4.740   0.842 -0.2649  0.0398  0.1930
24547W        W40621   5.866   7.546  14.495 -0.0124 -0.2935  0.0034
24548W        W40622   7.534  15.393  10.372  0.2177  0.0692 -0.1082
24549W        W40623   8.762   1.448  15.732 -0.0968  0.1560  0.3403
24550W        W40624  10.972   6.322  12.689 -0.0888 -0.0047  0.0123
24551W        W40625  15.217   1.960  16.190 -0.0844  0.1806  0.2330
24552W        W40626  16.195   1.138   2.876 -0.1668 -0.4395 -0.2527
24553W        W40627   5.805  15.716  12.627  0.0762  0.2011  0.0296
24554W        W40628  13.260   2.307  15.141 -0.0707  0.0669 -0.2392
24555W        W40629   4.972  15.942   2.754 -0.1945 -0.3156 -0.0740
24556W        W40630  15.791   7.941  15.332  0.2513 -0.2262 -0.2546
24557W        W40631  15.096   0.459  15.878  0.0589  0.2207 -0.1617
24558W        W40632   0.635  15.467  13.919  0.2993  0.0726 -0.1970
24559W        W40633  12.292  15.595  15.536  0.1550 -0.4092 -0.0041
24560W        W40634   7.760  16.735   2.799  0.0676 -0.0550  0.1669
24561W        W40635   6.387   6.528  15.366  0.2272  0.1911 -0.2148
24562W        W40636  16.477   3.305   5.672 -0.0449  0.0173  0.0099
24563W        W40637   3.050   5.540   1.964  0.1016  0.1382  0.2204
24564W        W40638  16.131   9.468   2.410  0.1123 -0.2471  0.0391
24565W        W40639   7.908  17.006  15.136  0.0436  0.1468  0.1021
24566W        W40640   1.923   0.704   4.511 -0.2510  0.1126 -0.1639
24567W        W40641  12.629   0.242  14.232 -0.1343  0.1820 -0.2015
24568W        W40642  14.633  14.530   1.081  0.1510  0.2156 -0.0830
24569W        W40643  12.170   4.344  14.883  0.0893 -0.1747 -0.1595
24570W        W40644  17.057   4.311   4.478 -0.2124 -0.3249  0.0512
24571W        W40645   3.346  16.025   2.772 -0.1677 -0.0738 -0.1849
24572W        W40646  13.478  14.988  13.189 -0.0478  0.3408  0.1880
24573W        W40647   0.925   5.290  11.939 -0.1058  0.2090 -0.0417
24574W        W40648  11.149   5.124  11.367  0.5618 -0.0887 -0.1745
24575W        W40649  13.988   2.521   1.690  0.2111 -0.3415 -0.2509
24576W        W40650   3.605   0.409  11.351 -0.1134 -0.1812  0.1237
24577W        W40651  11.498   2.884   4.022  0.1154  0.1634 -0.0200
24578W        W40652   4.021   2.390  12.496  0.1187  0.2255  0.1507
24579W        W40653  17.300  17.008   5.045  0.0458  0.0032 -0.0462
24580W        W40654  13.244  11.955  11.138  0.4220 -0.2143 -0.0270
24581W        W40655   5.155   7.212   6.026  0.1949  0.0137  0.1062
24582W        W40656  16.542  15.587  14.770 -0.1212 -0.0110  0.2791
24583W        W40657   2.117  15.378   2.860 -0.0540  0.0385 -0.1331
24584W        W40658   5.692  17.232  12.260 -0.0901 -0.3457 -0.1706
24585W        W40659  14.146  12.249   5.041 -0.2362  0.3673 -0.0695
24586W        W40660   0.207   1.368   3.091  0.1401  0.5044 -0.0367
24587W        W40661   5.912  13.066  13.496  0.0136 -0.0559 -0.0127
24588W        W40662  13.818   8.551  12.559  0.1110  0.2006 -0.1645
24589W        W40663   5.046   6.941  11.991  0.0108 -0.1242 -0.1008
24590W        W40664  12.889  14.803   0.522  0.0218  0.1221  0.3253
24591W        W40665  14.688  16.935  14.930 -0.0467  0.1104 -0.0826
24592W        W40666   1.400   8.389  15.661  0.1800  0.1269  0.0568
24593W        W40667  13.964   0.489  10.426  0.1185 -0.0538  0.0124
24594W        W40668  17.242   9.731   0.184  0.0376 -0.1567 -0.0401
24595W        W40669  15.027  10.589   3.331  0.1611  0.0073  0.1971
24596W        W40670   1.207   5.238   1.398 -0.1879 -0.0608 -0.5080
24597W        W40671  11.150   4.603   4.027  0.2523 -0.2343  0.0946
24598W        W40672  14.105  16.841  15.365 -0.1145 -0.0826 -0.0177
24599W        W40673   2.280   3.384   4.285  0.1278  0.1728  0.2037
24600W        W40674  14.478  13.151   3.395  0.0990 -0.1509 -0.0656
24601W        W40675  11.976   6.450   0.206  0.0671  0.3368 -0.2427
24602W        W40676  13.592  17.281   0.992  0.0746 -0.4567 -0.2362
24603W        W40677  13.182  12.297  15.788 -0.1789 -0.2071  0.0666
24604W        W40678   7.525  11.794   2.900 -0.2080 -0.0347  0.0085
24605W        W40679   7.163   9.473  15.095  0.1914 -0.0465  0.1012
24606W        W40680  10.646   7.920   0.838 -0.2155 -0.1862  0.0171
24607W        W40681   8.915  13.275   4.415  0.1727  0.0298  0.2844
24608W        W40682  12.179   8.907  11.072  0.2890  0.0873  0.1791
24609W        W40683   9.492   2.228   1.434 -0.0981 -0.0075  0.1329
24610W        W40684  14.436  13.979  13.533  0.0080  0.1802 -0.0197
24611W        W40685  17.495   0.445   5.977  0.0911 -0.0273  0.1142
24612W        W40686   1.805   3.554  11.526 -0.0394 -0.1694  0.1096
24613W        W40687  12.660  13.015  14.684 -0.0085  0.1447 -0.0998
24614W        W40688   3.584   5.793  11.694  0.0318  0.0027 -0.2698
24615W        W40689   8.473   1.947  15.693 -0.1679  0.0434 -0.1216
24616W        W40690   2.249  11.267  13.784  0.0458 -0.0123 -0.1153
24617W        W40691   0.631  13.906  13.246  0.1125 -0.3207 -0.1444
24618W        W40692   8.484   5.218  11.303 -0.0377 -0.0461 -0.2484
24619W        W40693   5.034   0.556  12.341  0.0754 -0.0200  0.1709
24620W        W40694   1.672   9.780  15.963 -0.0973  0.1062 -0.2857
24621W        W40695  10.975  14.072   4.551 -0.0540  0.2205  0.1217
24622W        W40696   6.202   5.666  11.569 -0.2622 -0.5033  0.0615
24623W        W40697  10.344   9.750   5.444  0.2343 -0.1226 -0.0181
24624W        W40698   2.931   8.987   0.438  0.1371  0.1670  0.2473
24625W        W40699   5.944   4.800   1.590 -0.0367  0.4324  0.1305
24626W        W40700   8.494   6.174   5.129  0.2439 -0.1740 -0.2578
24627W        W40701   2.593  11.513   4.385  0.0265  0.1863 -0.1411
24628W        W40702   5.115  16.387   4.683 -0.0346  0.0873  0.0023
24629W        W40703  10.460  11.550   1.463 -0.3128 -0.0622 -0.2482
24630W        W40704  15.758   3.599  13.386 -0.0756 -0.2055 -0.1573
24631W        W40705   8.983  17.905  16.313 -0.0624  0.1110 -0.1220
24632W        W40706   8.395   0.358   1.508  0.2927 -0.1126  0.0071
24633W        W40707   9.337   2.348  10.832  0.0045 -0.2173 -0.3373
24634W        W40708   5.478   9.939   4.083  0.0048  0.1401  0.1663
24635W        W40709   9.847   1.911  12.620 -0.4951  0.1039 -0.0925
24636W        W40710   1.412  16.504  13.412  0.0099 -0.2622  0.3549
24637W        W40711  13.642   3.425  11.840  0.0267 -0.3385  0.0451
24638W        W40712   9.120  11.790   3.615 -0.0904 -0.2097 -0.0366
24639W        W40713  13.046   3.869   1.893 -0.0782 -0.0105  0.0296
24640W        W40714   1.828  16.672   2.408 -0.2459  0.1069 -0.0703
24641W        W40715  13.818  16.269   3.619  0.1882  0.1086 -0.1457
24642W        W40716   2.068  14.859  14.757 -0.2759 -0.2805 -0.2319
24643W        W40717  16.483  17.938   5.121 -0.1597  0.2335  0.0039
24644W        W40718   5.450   7.755  11.163  0.1415 -0.0964 -0.1140
24645W        W40719  10.756   9.315  13.919  0.1317 -0.0260 -0.1169
24646W        W40720  15.349  16.470   2.889 -0.1727 -0.0430  0.3107
24647W        W40721   3.705  17.213   2.458  0.2761 -0.2091 -0.5072
24648W        W40722  14.024   7.986  14.438 -0.1733  0.3644 -0.1413
24649W        W40723  11.443   7.381   4.141  0.2977 -0.3100  0.3484
24650W        W40724   8.585  10.544   1.699 -0.1656  0.2803 -0.1366
24651W        W40725   7.577  16.967  12.211  0.0659  0.2451 -0.0880
24652W        W40726   2.596  13.429   0.262 -0.0681  0.0064 -0.1420
24653W        W40727  11.436   4.994   1.416 -0.3445  0.0743  0.0339
24654W        W40728  17.598   8.362  13.255 -0.1675  0.1634 -0.3591
24655W        W40729   8.047   1.232   1.995 -0.2061 -0.0177 -0.0606
24656W        W40730  15.568   5.877   2.816  0.1604  0.2145  0.0857
24657W        W40731   2.348  17.361   5.977  0.2090  0.1585  0.1414
24658W        W40732   7.606   0.915   1.908  0.0869  0.1118  0.2445
24659W        W40733  10.667   0.552  15.675  0.1654 -0.0175 -0.3224
24660W        W40734   8.448   6.970  15.272 -0.2518 -0.0479  0.2747
24661W        W40735  14.842   5.179   3.987 -0.2622 -0.2843  0.1258
24662W        W40736   3.280  14.038  13.303 -0.1329 -0.0731 -0.0923
24663W        W40737   7.553   4.835  12.391  0.0121  0.1174  0.1038
24664W        W40738   2.581   5.900   2.339  0.2120  0.3710 -0.2058
24665W        W40739   0.418  17.312  14.577  0.1837 -0.3061 -0.1452
24666W        W40740   6.472   2.151   0.506  0.1401 -0.0198  0.1082
24667W        W40741   2.087   3.949   4.102  0.0427 -0.2528 -0.1838
24668W        W40742   3.139   7.470  15.038  0.1143 -0.0782  0.1470
24669W        W40743  11.655   1.830   0.352 -0.0181  0.3490 -0.0303
24670W        W40744   2.240   4.975   2.476  0.0436 -0.0689 -0.1655
24671W        W40745   7.185  12.045   0.530 -0.0149  0.0982  0.4177
24672W        W40746   4.489  13.353   2.225 -0.0123  0.3892 -0.1686
24673W        W40747  16.746  10.506  13.552 -0.1066 -0.0440  0.2595
24674W        W40748   5.792   5.010  15.549 -0.1626 -0.2630  0.2335
24675W        W40749  12.761   5.623   4.068 -0.1539 -0.0341 -0.4625
24676W        W40750   7.492  10.192   0.718  0.0529 -0.3854  0.0528
24677W        W40751   4.666  18.206   4.312 -0.0723 -0.1297  0.0988
24678W        W40752   6.890  11.325   1.883  0.3978 -0.0104 -0.0342
24679W        W40753   3.193  12.173  14.882  0.3620 -0.1648  0.3451
24680W        W40754   9.777   1.720  15.970  0.2851 -0.0113 -0.1735
24681W        W40755   2.778  14.806  13.916 -0.0654  0.1526 -0.0384
24682W        W40756   4.022  11.241  14.320 -0.1150 -0.2610  0.2157
24683W        W40757  14.461   7.166  14.324  0.3495 -0.3534 -0.0938
24684W        W40758   8.934   6.308   4.919  0.0542  0.2094  0.0601
24685W        W40759   6.108   3.635   3.430 -0.0065 -0.0571 -0.0570
24686W        W40760   5.732   6.942  15.765 -0.1611  0.0230 -0.4637
24687W        W40761   7.396   2.907   3.086 -0.2083  0.2371  0.1200
24688W        W40762   0.410   3.964  14.405  0.2637  0.1320 -0.0219
24689W        W40763   4.812  12.579   2.240 -0.0531 -0.2438 -0.2676
24690W        W40764  10.688  13.236   2.481  0.2966 -0.2127 -0.1575
24691W        W40765   0.900   9.657   1.394 -0.0950  0.1062  0.2142
24692W        W40766  15.140  12.438   4.986  0.4872  0.0328 -0.1720
24693W        W40767   9.899  18.050   0.063 -0.2631  0.0573  0.1212
24694W        W40768  16.176  11.649   5.026  0.2038  0.0062 -0.0166
24695W        W40769   7.400   2.312  11.699 -0.1550 -0.2071 -0.0755
24696W        W40770  12.005  17.206   3.702 -0.1520  0.1056  0.0400
24697W        W40771   1.921  10.288  15.653  0.3007  0.0954  0.1530
24698W        W40772  14.632   5.012   2.811  0.0254 -0.1390  0.1402
24699W        W40773   0.002  16.793   4.190  0.0046  0.3660  0.3005
24700W        W40774  12.362  12.752  12.808 -0.0659  0.1077 -0.0839
24701W        W40775  11.258   7.613   2.003  0.2283 -0.1108 -0.0212
24702W        W40776   9.329  17.747   3.652 -0.0034 -0.1121  0.2155
24703W        W40777  12.594   6.102   1.409  0.1685  0.2022  0.0116
24704W        W40778  12.700  18.218   2.724  0.0858 -0.1572  0.0622
24705W        W40779   7.200  16.848  12.575  0.0501 -0.2725  0.0343
24706W        W40780   7.547   3.455   5.718 -0.0735 -0.1841 -0.2438
24707W        W40781   9.855  16.101   1.099 -0.0308 -0.0875  0.0932
24708W        W40782  17.178  13.787  13.778  0.1421 -0.0690 -0.0427
24709W        W40783   8.762  16.624   3.922 -0.0300  0.1764  0.1792
24710W        W40784   2.318   8.752  13.014  0.5630 -0.0013  0.0652
24711W        W40785  14.377   1.323   0.840  0.0950 -0.0670 -0.0950
24712W        W40786   6.699  12.940   3.848 -0.3897  0.2593 -0.0255
24713W        W40787   9.563  16.439  13.072  0.1658  0.0318  0.1410
24714W        W40788  14.140   4.024   5.324  0.0621 -0.0962  0.2168
24715W        W40789   5.974   2.896  14.422 -0.3909 -0.0600 -0.3810
24716W        W40790  14.402  14.751   4.216  0.1301 -0.0223  0.2651
24717W        W40791  13.188  10.166  14.597 -0.1228  0.2523  0.0331
24718W        W40792  15.489   1.867   3.062  0.1586  0.2636  0.1581
24719W        W40793   0.997  11.866   3.501  0.0443 -0.1678  0.3055
24720W        W40794   0.011   0.212  11.161 -0.1591  0.1189 -0.1052
24721W        W40795  13.794  11.262   2.592 -0.1096  0.0790  0.0370
24722W        W40796  12.942   7.365   4.129  0.0123  0.0271  0.0283
24723W        W40797   7.953   4.559  15.045 -0.0239  0.0772 -0.0096
24724W        W40798  15.737   9.278   5.757 -0.1439  0.1146  0.1172
24725W        W40799   9.941   2.973   3.780  0.0009  0.3468 -0.2908
24726W        W40800   9.279  15.928  12.268  0.0012  0.0222 -0.0139
24727W        W40801  12.541   7.151  12.509 -0.1567 -0.0035  0.3805
24728W        W40802  15.566   7.332  11.294 -0.2003  0.0138 -0.0628
24729W        W40803  12.722   8.331  14.581  0.1264  0.1280 -0.0975
24730W        W40804  14.873  15.293   2.915  0.0824  0.0444  0.0445
24731W        W40805   9.288   3.406   0.124 -0.3056  0.0628 -0.0327
24732W        W40806  16.351  10.525  14.298  0.1928  0.1054  0.0621
24733W        W40807  14.505  12.692   3.294 -0.3651 -0.1395  0.2387
24734W        W40808   8.509   3.732  15.211 -0.2889  0.0791 -0.1542
24735W        W40809  15.455  12.131  14.353 -0.0837 -0.2489 -0.2525
24736W        W40810   9.724   7.546   2.653 -0.1586  0.2206  0.1629
24737W        W40811  14.768   1.606   0.676 -0.0106  0.0149  0.1191
24738W        W40812   1.019  13.298  12.415 -0.1424 -0.1172 -0.0449
24739W        W40813  10.309  11.462   0.926 -0.1152  0.2407 -0.1578
24740W        W40814  16.666   6.493   4.834  0.2143 -0.1266  0.0586
24741W        W40815  10.608   2.581  14.011 -0.1902 -0.1895 -0.0510
24742W        W40816   3.513   4.144   0.296 -0.1657  0.1224 -0.0927
24743W        W40817   4.596   9.412  11.281 -0.0599  0.1715  0.0836
24744W        W40818  10.653   8.778  13.933  0.0138  0.0407 -0.1249
24745W        W40819  13.301  15.089   5.387  0.2488  0.3416 -0.0764
24746W        W40820   1.215   2.875   4.798  0.1636  0.2744 -0.3866
24747W        W40821  10.686  11.904  12.246  0.0442 -0.3180  0.0236
24748W        W40822  13.766   3.149  11.226 -0.0958 -0.3318 -0.1690
24749W        W40823   7.623  12.227   1.601 -0.0156  0.2227 -0.0201
24750W        W40824  13.350  11.660   4.036 -0.0736 -0.0231  0.1098
24751W        W40825   6.129  14.159   0.382 -0.0344  0.0022 -0.3113
24752W        W40826   3.326  15.420  16.018 -0.2699  0.1832  0.3226
24753W        W40827  18.033   2.437   2.788 -0.0307  0.3036 -0.0140
24754W        W40828   9.838   7.799  12.392  0.1989 -0.1252  0.2465
24755W        W40829   6.737  12.021  13.736 -0.1414 -0.1757  0.0758
24756W        W40830   6.279  12.889  11.331  0.1846  0.1771 -0.3229
24757W        W40831   7.951   3.384  14.009  0.1711  0.0708  0.1680
24758W        W40832   2.233   5.387   4.921 -0.0675  0.0291  0.0485
24759W        W40833   1.656   5.460   0.566  0.0851 -0.1438 -0.1506
24760W        W40834  13.102   8.802  12.170 -0.2519 -0.2751  0.0902
24761W        W40835   1.405  16.814  14.466  0.2169  0.1569 -0.3157
24762W        W40836   7.071   2.365   9.964 -0.2204 -0.0897  0.2694
24763W        W40837   7.972   5.155  13.817 -0.1358  0.0400  0.1488
24764W        W40838   0.464  13.805   0.151  0.2635 -0.1789 -0.0724
24765W        W40839   8.513  14.027   2.009 -0.0965  0.1086  0.0796
24766W        W40840   2.027   0.778  13.235 -0.1029  0.1123  0.1544
24767W        W40841  14.763   1.787  16.087  0.0183  0.0809 -0.1278
24768W        W40842   9.802   8.563   6.026 -0.3204  0.2558 -0.0453
24769W        W40843   9.931   1.260   1.854  0.2255  0.0150  0.2219
24770W        W40844   9.103   4.845   0.356 -0.2010 -0.0113  0.1179
24771W        W40845  18.045   6.592   1.685 -0.0897  0.2155  0.2287
24772W        W40846   3.310  17.069  11.415 -0.3314  0.0105  0.2883
24773W        W40847   5.302   4.107   2.081 -0.0490  0.0810 -0.4932
24774W        W40848   1.481  14.710   1.314  0.2280 -0.0689 -0.1163
24775W        W40849  17.703   9.561   0.070 -0.3720  0.1909  0.0576
24776W        W40850  17.253  12.136   4.078 -0.4249  0.4226  0.2032
24777W        W40851  11.648  14.406   5.575 -0.1137 -0.0197 -0.4163
24778W        W40852   2.716   8.637  13.958 -0.1396 -0.0919  0.3085
24779W        W40853  10.108   9.085   1.075  0.0876 -0.2486 -0.1796
24780W        W40854  12.111   8.714   6.255  0.0319  0.0638  0.0881
24781W        W40855   0.821   4.216   5.438 -0.1434 -0.0450  0.1569
24782W        W40856  12.829   9.686   4.601  0.0050  0.0907 -0.0791
24783W        W40857  15.322   3.392   4.407  0.0047  0.1444 -0.2894
24784W        W40858  17.566  10.350   2.271  0.1082 -0.0717 -0.0263
24785W        W40859   0.974   6.230   4.023  0.3021 -0.0323 -0.0157
24786W        W40860  17.351  13.864  12.865  0.2859 -0.0778  0.1086
24787W        W40861   5.527  15.348   3.041  0.0853 -0.1110  0.4460
24788W        W40862  12.928  16.772  12.299  0.2734  0.3327 -0.0733
24789W        W40863   3.083  12.643  12.349  0.0640  0.2493 -0.1115
24790W        W40864   5.560   4.526  15.879  0.1553 -0.2791 -0.1354
24791W        W40865   3.832   9.587   1.384 -0.1485 -0.0854  0.2578
24792W        W40866   9.397  17.893  14.717 -0.0567 -0.1254  0.1653
24793W        W40867  14.557  15.648  12.617  0.1322 -0.2736 -0.0775
24794W        W40868  17.445  18.162  12.272  0.0645 -0.1073  0.1838
24795W        W40869   3.062  17.160  11.776 -0.1309  0.0076 -0.0133
24796W        W40870  17.056   1.778  14.147 -0.4401  0.0170  0.2555
24797W        W40871   6.193   8.061   3.732 -0.1154  0.0727  0.1138
24798W        W40872   3.369   3.523   1.592 -0.5493 -0.0804 -0.2378
24799W        W40873  13.071   5.070  15.929 -0.0544  0.1055  0.1091
24800W        W40874   7.400  13.805   2.994 -0.1652 -0.1085 -0.1207
24801W        W40875   5.205  14.380   0.392 -0.0716 -0.0361 -0.2035
24802W        W40876   5.141   5.317  12.595 -0.2507 -0.2062  0.0439
24803W        W40877   9.915  11.095   1.833  0.0146 -0.0977 -0.2809
24804W        W40878   3.672  18.090   2.887  0.0030  0.0795 -0.0191
24805W        W40879  11.576   9.004  14.591  0.1114  0.1531 -0.0468
24806W        W40880  15.533   0.901  13.645  0.2408 -0.1696 -0.2447
24807W        W40881   1.947   1.752  15.446  0.1883  0.2646 -0.2452
24808W        W40882   8.050   4.639  15.838 -0.0626 -0.1363 -0.2248
24809W        W40883  12.770   6.575   0.428  0.0220  0.1804 -0.0488
24810W        W40884   7.545  14.674  11.326 -0.0299 -0.1379 -0.2170
24811W        W40885  16.970  15.725  14.147  0.2559  0.0753  0.0251
24812W        W40886   3.340   2.310  11.613  0.0345 -0.1575 -0.0141
24813W        W40887   0.350   2.530   0.960  0.0106  0.0226  0.1710
24814W        W40888   2.609  11.188  11.830  0.1385  0.2402  0.2601
24815W        W40889   4.312  10.868   3.539 -0.2189  0.1514 -0.1065
24816W        W40890   0.827   1.381  15.694 -0.0402  0.1358  0.1055
24817W        W40891   2.575  16.275   1.928 -0.2869  0.3100 -0.5720
24818W        W40892  14.555  10.689   4.903 -0.2986 -0.1867  0.0555
24819W        W40893  18.323  14.038  12.414  0.0573  0.3234 -0.2207
24820W        W40894  10.040   0.490   1.082  0.1000  0.0439  0.2044
24821W        W40895   4.191   8.098   3.157  0.2090 -0.1948 -0.1745
24822W        W40896   4.633  14.445   1.395 -0.4784 -0.0233  0.2365
24823W        W40897   2.276  13.931  15.635  0.0581 -0.0084 -0.1062
24824W        W40898   3.780  17.632   2.725  0.4203 -0.0709 -0.1747
24825W        W40899   1.919  12.421  10.695  0.0588 -0.0083 -0.1061
24826W        W40900   6.280  17.566  13.563 -0.1046 -0.0205 -0.0488
24827W        W40901  10.563   4.753   9.453 -0.2593  0.2542  0.1776
24828W        W40902  15.797   4.364   1.801 -0.3378 -0.2094  0.2924
24829W        W40903   3.048   6.399   1.493  0.0196 -0.0369 -0.0301
24830W        W40904   4.393  18.024   1.729 -0.0632 -0.0691  0.2025
24831W        W40905   0.304   4.903   1.305  0.1293 -0.4466  0.2592
24832W        W40906   3.852  15.165   2.803 -0.0897  0.0539 -0.0296
24833W        W40907   3.867  13.892  11.391  0.0956  0.0436  0.0815
24834W        W40908   3.941  14.205   0.722  0.1322  0.2182  0.0129
24835W        W40909   4.604   1.241   0.417  0.0839  0.2011 -0.1008
24836W        W40910  10.573   6.992  14.460 -0.2092 -0.2935  0.1900
24837W        W40911   6.956   1.181  15.217  0.2080  0.0276 -0.0769
24838W        W40912   0.662   7.569  15.137 -0.2650  0.0124  0.1036
24839W        W40913   4.386   5.035  11.509  0.2215  0.0425  0.2198
24840W        W40914  16.986  13.123   5.495  0.0419  0.4292  0.3375
24841W        W40915   3.186  18.308   3.318  0.3009 -0.1309  0.1085
24842W        W40916   0.499   1.223   1.632  0.1267  0.1740  0.0073
24843W        W40917   9.483  14.203  15.409  0.1442 -0.1290  0.1503
24844W        W40918   3.200  14.782  15.594 -0.0897  0.1767 -0.2767
24845W        W40919  13.519   5.508  12.684  0.2429 -0.0526  0.0682
24846W        W40920  14.264   5.616   1.730  0.1940 -0.1053 -0.2945
24847W        W40921   4.030   5.658  15.588  0.0246 -0.0386  0.1298
24848W        W40922  14.407  15.351   1.371  0.2914 -0.0711 -0.2254
24849W        W40923  10.912   5.827  15.879 -0.2154 -0.2744 -0.0583
24850W        W40924   2.841   5.214  12.169  0.1509  0.0403 -0.1931
24851W        W40925   4.224   0.062   3.010  0.0078 -0.0089  0.3234
24852W        W40926  13.662  15.441  14.601  0.0480  0.1974  0.2003
24853W        W40927  12.318   0.213   2.266 -0.0025  0.1867 -0.4304
24854W        W40928   1.066  10.392  15.349 -0.5083  0.2511  0.0713
24855W        W40929   6.180   4.968   3.741  0.0726 -0.0704 -0.1966
24856W        W40930   7.257  14.200   5.191 -0.0367 -0.1926  0.0430
24857W        W40931   9.146   0.059   3.045 -0.2989 -0.1337 -0.1665
24858W        W40932   8.505  17.787   2.535 -0.2436 -0.0245  0.0030
24859W        W40933   9.898   3.828   0.845 -0.2881 -0.4316  0.2144
24860W        W40934   6.487  10.772   5.708  0.2144  0.0015 -0.0782
24861W        W40935   7.959   5.195   4.890 -0.3060  0.3541 -0.1669
24862W        W40936   1.819   8.671  15.474 -0.0884  0.1935  0.1759
24863W        W40937   9.935  16.734  13.012 -0.1036 -0.1065 -0.0266
24864W        W40938   2.103   0.448  11.314  0.0360  0.0767 -0.2674
24865W        W40939   8.849   2.006   5.086 -0.1613 -0.0814  0.3365
24866W        W40940  15.611  15.687  15.789 -0.2555  0.0708  0.1659
24867W        W40941  10.167  14.994  14.298 -0.2638  0.1973 -0.0368
24868W        W40942   5.002   0.887  14.122 -0.2192  0.2423 -0.0209
24869W        W40943   0.747   5.731  10.536  0.3032 -0.4015 -0.0071
24870W        W40944  15.091  13.519  14.835  0.1255  0.0226 -0.0622
24871W        W40945   4.971   6.830  13.945  0.0637  0.1715 -0.1237
24872W        W40946  15.996   3.508  12.606  0.0067 -0.1565  0.3143
24873W        W40947   6.788  15.061   3.611  0.0345 -0.1336 -0.1858
24874W        W40948  14.834   2.325  13.063 -0.0635 -0.2278  0.2212
24875W        W40949   9.332   0.190  15.265 -0.0141  0.0349  0.0704
24876W        W40950   6.992  10.889   2.605 -0.1081 -0.2119  0.0364
24877W        W40951  12.923   8.345   1.564 -0.0359 -0.2657  0.0172
24878W        W40952   1.134   6.366   3.152  0.1250 -0.5022  0.1067
24879W        W40953   4.024   0.603  13.181 -0.0877 -0.0245  0.5115
24880W        W40954  12.768  17.824  16.009  0.1553 -0.2521 -0.0096
24881W        W40955  13.171   7.782   2.369 -0.3143 -0.0677  0.1351
24882W        W40956   2.098   6.656  12.397  0.1698  0.2066 -0.1785
24883W        W40957   0.825  11.829  12.719 -0.1476 -0.3668  0.0533
24884W        W40958   2.169   8.844  14.607  0.1063 -0.1189  0.0588
24885W        W40959   6.861   0.269   1.416 -0.0780  0.0636  0.1013
24886W        W40960  17.310  12.038   1.062  0.3908  0.1785  0.0148
24887W        W40961   1.466   3.940  10.964 -0.0282  0.1828  0.2150
24888W        W40962  16.203  14.653   3.209  0.1781 -0.2277  0.2587
24889W        W40963  14.987   7.245   4.739  0.5891  0.1150  0.5899
24890W        W40964   8.260   1.242  11.523  0.1091  0.0697 -0.1682
24891W        W40965  16.885   9.332  14.477  0.0712  0.2908  0.1560
24892W        W40966   3.087   7.864   0.262 -0.0922 -0.0568 -0.3040
24893W        W40967   8.072   1.137  16.351 -0.0706  0.0474 -0.0512
24894W        W40968   3.785   8.148   4.975 -0.0885 -0.0216 -0.1381
24895W        W40969  17.773   2.995  12.194 -0.2190  0.1408  0.3069
24896W        W40970  10.336   9.877  15.285  0.2685 -0.1470 -0.1599
24897W        W40971   9.870   6.745  15.338  0.1498 -0.2405  0.0386
24898W        W40972   5.038  14.182  15.214  0.0013 -0.3017 -0.3082
24899W        W40973  12.627  12.390   4.713  0.0517  0.2494 -0.2683
24900W        W40974  13.496   3.296   2.663  0.2641 -0.0126  0.1760
24901W        W40975   4.824   7.710  15.152 -0.1177 -0.1293 -0.4853
24902W        W40976  11.544  11.578  11.710  0.1325 -0.0126  0.0222
24903W        W40977  16.514   1.173   2.396 -0.1305 -0.0847 -0.0841
24904W        W40978  17.110   2.668   6.281 -0.1012 -0.4761  0.5402
24905W        W40979  17.918  10.710   2.237 -0.2386 -0.0845 -0.0806
24906W        W40980  16.963  10.182   0.973  0.2793 -0.4442  0.0748
24907W        W40981   5.393  16.731  12.080  0.1461  0.2508  0.5640
24908W        W40982  16.067   4.634   4.484  0.1151  0.0502  0.1925
24909W        W40983   0.002  18.297   5.433  0.1729 -0.3499 -0.1482
24910W        W40984  16.940   0.652  15.526  0.0912  0.0027 -0.0147
24911W        W40985  16.975   1.278  15.699 -0.1181 -0.0119  0.2701
24912W        W40986   4.833   3.633   3.282 -0.0118 -0.2208 -0.0221
24913W        W40987   9.683   5.423  15.547 -0.0345  0.2087 -0.1247
24914W        W40988  12.531  14.306  16.272 -0.1964  0.1906 -0.3710
24915W        W40989   7.928   9.981  13.397  0.0591 -0.0409  0.2983
24916W        W40990  10.661   8.390  12.919  0.1086  0.0710 -0.3700
24917W        W40991  18.276  18.160  14.434 -0.2511 -0.0883 -0.1009
24918W        W40992  17.935   4.964  14.542  0.0300 -0.0422 -0.4293
24919W        W40993  11.321   3.694   2.365 -0.1913 -0.0687  0.0874
24920W        W40994   4.364   2.401   4.011 -0.1592  0.4063 -0.1136
24921W        W40995   9.233   3.871  12.928 -0.0770 -0.2291 -0.1926
24922W        W40996   7.188   7.759   1.299  0.0438 -0.3240 -0.0371
24923W        W40997  11.329  16.700  11.545 -0.0067 -0.1675 -0.1353
24924W        W40998  17.207  13.037   4.981  0.0370  0.2072  0.0660
24925W        W40999  13.800   0.980   4.750 -0.3305  0.3579 -0.1820
24926W        W41000  12.309  10.115   5.209  0.1571  0.2701 -0.0091
24927W        W41001   6.291  10.705  14.702 -0.0920  0.2117 -0.3518
24928W        W41002  16.647   3.231  13.023 -0.2050 -0.3396  0.2960
24929W        W41003   8.074   9.803  12.181  0.2039 -0.1854 -0.0257
24930W        W41004  15.762  13.936   1.526 -0.0135 -0.0757  0.3873
24931W        W41005  16.080   0.759   4.461  0.3146 -0.1218  0.1378
24932W        W41006  16.874   2.673   4.275 -0.1322  0.0405 -0.4820
24933W        W41007   2.153   0.245   4.914  0.0993 -0.0404 -0.1772
24934W        W41008  14.818  17.344   3.710 -0.0294  0.1392 -0.0428
24935W        W41009   9.590  18.058  13.337 -0.1397  0.1074 -0.2387
24936W        W41010   3.833   6.351   2.072 -0.0728 -0.5345  0.1089
24937W        W41011   2.397  11.710  15.537 -0.2558 -0.0680  0.1344
24938W        W41012  11.157  10.342   3.713 -0.2680  0.0434  0.2180
24939W        W41013   3.170  10.881   3.665  0.2308  0.0555 -0.3234
24940W        W41014   5.902  16.582   4.250  0.0699 -0.1220 -0.0939
24941W        W41015  15.057  16.928  16.344  0.2052  0.1467  0.1181
24942W        W41016  13.548  10.262  12.913 -0.3402  0.0447 -0.0343
24943W        W41017   4.553  14.752   2.410  0.0966 -0.0558 -0.1021
24944W        W41018   2.464   9.776  15.749  0.2599  0.2872 -0.0487
24945W        W41019   1.148  14.996  11.737  0.3429  0.0387 -0.2595
24946W        W41020  10.059   2.985  16.159 -0.2098  0.2825  0.1835
24947W        W41021  17.373   2.945  14.448  0.0748  0.0675  0.1479
24948W        W41022   5.442   9.196  15.782 -0.0792  0.2462  0.1404
24949W        W41023   3.053  14.319  13.928  0.0721 -0.3303 -0.2264
24950W        W41024  10.115   4.714  15.010  0.1678 -0.0841 -0.2576
24951W        W41025  11.859   2.894   2.653  0.0175  0.2425 -0.2037
24952W        W41026  15.124  13.655   1.895 -0.2160 -0.1905  0.4104
24953W        W41027   6.505  12.868   5.535  0.0511  0.0760  0.1909
24954W        W41028   2.088  14.043   4.252  0.0732 -0.1339  0.2430
24955W        W41029  17.595   7.279   1.366  0.0763  0.1735  0.0117
24956W        W41030   2.617   2.702  11.394 -0.0852 -0.0529  0.1547
24957W        W41031  10.444   4.711   1.268 -0.1424  0.1052 -0.1189
24958W        W41032   1.247   1.037  12.697  0.0327  0.1382  0.1706
24959W        W41033   9.307  15.692   5.951 -0.1017  0.1241 -0.0308
24960W        W41034   9.924  14.068  16.085  0.0419 -0.1222 -0.0222
24961W        W41035  14.498  10.253   1.087 -0.1335  0.1915 -0.1144
24962W        W41036   0.979  16.098  16.395  0.2324 -0.0885  0.1668
24963W        W41037   2.425  14.116  11.790 -0.1251 -0.1150  0.2395
24964W        W41038   0.389  10.527  14.361 -0.1397  0.0886  0.1302
24965W        W41039   3.969   6.628   4.119 -0.2171  0.0286 -0.2764
24966W        W41040  11.173   7.193  15.722 -0.0011  0.2111 -0.1862
24967W        W41041   5.617   4.011  11.593  0.4492 -0.1656 -0.0438
24968W        W41042   4.039  15.033   5.006  0.3011 -0.1370  0.1333
24969W        W41043   7.276   6.806  14.349  0.5858  0.0371  0.4100
24970W        W41044   1.911   0.194   3.270 -0.1245 -0.1108  0.0124
24971W        W41045   4.555  12.345  12.074  0.0400 -0.0553  0.1388
24972W        W41046  15.409  13.352  13.276 -0.0024  0.0209 -0.2772
24973W        W41047   9.481  14.828   2.232  0.1265  0.0598  0.0717
24974W        W41048   1.098   3.710   4.307 -0.2159  0.2819  0.3518
24975W        W41049  10.127   1.594  13.550  0.1288 -0.0130  0.1159
24976W        W41050  14.590   1.114  12.473 -0.0394 -0.3627 -0.0294
24977W        W41051  13.030  14.938  11.236  0.2412  0.1550 -0.1059
24978W        W41052  13.046   5.861  12.995  0.0539 -0.1515  0.0558
24979W        W41053  12.849   9.388   5.770  0.1857 -0.3027  0.0383
24980W        W41054  17.444   9.468   5.576  0.0482 -0.0097 -0.1682
24981W        W41055  17.769   1.311  11.227 -0.0055 -0.0930 -0.1910
24982W        W41056   8.218   0.662  14.060 -0.3593 -0.0055  0.1578
24983W        W41057   5.054  16.682  14.865 -0.1843  0.0409 -0.3386
24984W        W41058   4.717   2.257   1.860 -0.1733  0.0358 -0.2525
24985W        W41059   4.065   7.339  11.148  0.0092  0.1442 -0.2444
24986W        W41060   7.131   7.303  15.127 -0.1043 -0.2503  0.2096
24987W        W41061  17.225  12.461   2.077  0.0983 -0.0912 -0.3028
24988W        W41062  16.386   5.214   0.271 -0.1251  0.2680 -0.0928
24989W        W41063  11.489   2.485  14.626 -0.1123  0.2550 -0.0257
24990W        W41064  14.694  15.036  11.479  0.0482 -0.2361  0.1642
24991W        W41065  15.537   0.230  13.610  0.1994  0.0834  0.1969
24992W        W41066   4.472   8.841  15.050 -0.1613 -0.0861  0.1405
24993W        W41067   7.746   1.110   3.607 -0.0017  0.0467  0.2691
24994W        W41068   4.903  17.128   3.155  0.0367 -0.1653  0.0410
24995W        W41069  18.164  14.541  13.084  0.1578 -0.0144 -0.4443
24996W        W41070  18.136   5.981   5.549 -0.0756  0.0971 -0.0129
24997W        W41071   9.568   3.696   4.677  0.3102  0.2736  0.3635
24998W        W41072   9.523  13.003   4.566  0.1630  0.2349 -0.0774
24999W        W41073  15.334   4.964   5.089  0.0751  0.1861 -0.1206
25000W        W41074   5.978   1.612   4.160 -0.1493  0.1191 -0.3942
25001W        W41075   9.595   5.089   2.341 -0.0373  0.0279 -0.0729
25002W        W41076   4.695   6.272   5.926  0.1506  0.0362 -0.0316
25003W        W41077  11.695  13.531   2.087  0.1139  0.2436  0.1460
25004W        W41078   0.116  16.644   0.156 -0.1429 -0.1467 -0.0858
25005W        W41079  12.998   8.211  15.620  0.0844 -0.0050  0.0386
25006W        W41080   8.758  16.507  13.226  0.2436  0.2191  0.1406
25007W        W41081   1.304   4.711   1.786  0.1736  0.3319  0.1885
25008W        W41082   8.150  15.256   4.665 -0.2350 -0.0704 -0.2523
25009W        W41083  15.871   0.149   1.500 -0.0176 -0.1924  0.0070
25010W        W41084   1.997   0.010  12.837  0.0615  0.1841  0.3207
25011W        W41085  11.827  16.881  14.433 -0.0194  0.0065  0.2194
25012W        W41086  15.106  16.719   2.526 -0.5873  0.3711  0.2069
25013W        W41087  15.059   6.089  16.280  0.0388 -0.0672  0.0270
25014W        W41088  17.775  18.072   4.637 -0.3318 -0.0402 -0.2127
25015W        W41089   3.456  16.010   1.755 -0.1795 -0.5001 -0.0043
25016W        W41090   8.711  17.725  14.656  0.1179  0.1112  0.0148
25017W        W41091   3.376  15.167   3.621 -0.0281  0.0311  0.3354
25018W        W41092  13.347   8.523   2.822 -0.2185 -0.0624  0.1129
25019W        W41093  13.593  13.288  16.118 -0.3391  0.0738  0.1799
25020W        W41094   4.976   9.995   5.444  0.0721 -0.0063  0.0408
25021W        W41095   5.594  18.068   2.255  0.0358  0.0673  0.0254
25022W        W41096  10.933   7.722  15.867  0.0347 -0.0779  0.1285
25023W        W41097  13.205   2.870   6.155  0.1050  0.3083 -0.3307
25024W        W41098   4.380  11.144  12.931  0.1292 -0.2556 -0.2393
25025W        W41099  16.430   1.805   0.465 -0.0254 -0.1816  0.2379
25026W        W41100  10.553  13.243   4.852  0.3364  0.1455  0.4234
25027W        W41101  10.565   9.501  13.183  0.2124  0.0063  0.0838
25028W        W41102   5.964   6.241   1.722 -0.1250 -0.1715  0.0506
25029W        W41103   3.736  17.670   5.006  0.0753  0.2093  0.2263
25030W        W41104   3.853  12.422   3.078  0.2621  0.0902 -0.0332
25031W        W41105  14.775   0.429  15.282 -0.0088  0.1319  0.1767
25032W        W41106   9.509  17.027   0.544  0.1706  0.2497  0.0275
25033W        W41107   0.409  12.540  11.331 -0.0291  0.0996  0.2829
25034W        W41108   0.236  11.177   0.358 -0.2657  0.1751  0.2435
25035W        W41109   8.154  16.556  13.773 -0.1428  0.0748 -0.1372
25036W        W41110  16.203   6.330   5.990 -0.3435  0.0886  0.4781
25037W        W41111  11.404   0.542  12.549  0.0403 -0.2121 -0.2272
25038W        W41112  14.515   4.283   6.075  0.2812  0.1017 -0.1302
25039W        W41113  14.861   2.588   4.678 -0.0425 -0.1713  0.1881
25040W        W41114  13.528   6.062  13.193  0.3701  0.0340 -0.0156
25041W        W41115   6.556   4.460  11.649 -0.0063 -0.1713  0.1727
25042W        W41116  11.549  10.054   3.788  0.0102  0.0500 -0.1348
25043W        W41117  12.872  10.663   0.691 -0.3179  0.1071 -0.0408
25044W        W41118  14.218   1.846   4.567 -0.3646  0.1490  0.2005
25045W        W41119  12.252  11.016   2.170 -0.2182  0.0407  0.1403
25046W        W41120   7.603  18.249   5.005  0.1876  0.1371  0.1729
25047W        W41121   8.641   9.298   4.950 -0.2330 -0.0693 -0.2390
25048W        W41122   1.924   9.752   3.288 -0.0066 -0.1247 -0.1027
25049W        W41123   1.363   1.575   1.041  0.0899  0.0913  0.0496
25050W        W41124   8.388  13.867   4.765 -0.0717  0.1404  0.1021
25051W        W41125   6.883  11.212  13.432  0.1320  0.2411  0.2787
25052W        W41126  14.085   7.789   0.837  0.1104 -0.4717 -0.1343
25053W        W41127   6.576   8.167   4.634 -0.0916  0.2305 -0.3841
25054W        W41128   2.307   7.671   0.731  0.3239  0.2893  0.3909
25055W        W41129  14.147   1.316   4.709 -0.2631 -0.1296 -0.0721
25056W        W41130  14.402  17.453   5.832  0.0140 -0.0069  0.1174
25057W        W41131  10.355  16.738   0.428 -0.0799  0.1025 -0.1084
25058W        W41132   7.416  14.376  13.071 -0.1749  0.0423  0.1164
25059W        W41133  14.854  17.427  14.241 -0.1811 -0.1069 -0.2308
25060W        W41134  17.975  17.830   1.670 -0.3719  0.1319  0.2205
25061W        W41135   4.623   6.137   4.625  0.2241  0.5781  0.1278
25062W        W41136   9.383   8.142  11.501 -0.2692 -0.1865 -0.0167
25063W        W41137   8.370   7.055   3.721 -0.2849 -0.1588 -0.0875
25064W        W41138  14.039  17.276   0.309  0.2961  0.1321 -0.1911
25065W        W41139  15.055   4.777   3.077  0.1471 -0.1109 -0.0566
25066W        W41140   8.918  16.087  15.296 -0.1168  0.0969 -0.2015
25067W        W41141   0.360  10.011  13.458  0.2252 -0.1649 -0.0455
25068W        W41142  13.783   7.467   1.736  0.0281 -0.0765 -0.2207
25069W        W41143   0.891   2.321   2.206  0.2376 -0.0542  0.1972
25070W        W41144  13.110  16.778   2.240  0.2295 -0.0975  0.1938
25071W        W41145   9.861  17.498  14.210 -0.2009  0.0832  0.2341
25072W        W41146   1.399   3.222   0.060 -0.4017 -0.0526 -0.1225
25073W        W41147   6.516   6.481  12.715 -0.1435 -0.0185 -0.4291
25074W        W41148   7.101  17.372   4.009  0.1567 -0.0331 -0.0807
25075W        W41149  16.993   8.927  12.070 -0.2971 -0.3018 -0.0357
25076W        W41150   6.990   5.079   2.808  0.0040  0.2262 -0.4120
25077W        W41151  16.076  17.245   4.484 -0.4630  0.0770 -0.2903
25078W        W41152   7.785   6.814   3.026 -0.0488  0.2430 -0.1541
25079W        W41153  10.761  14.448   4.998 -0.1758  0.1787 -0.1015
25080W        W41154  13.771  16.937  12.551 -0.1153  0.0628 -0.0151
25081W        W41155  15.965   2.478   4.249  0.2691  0.0584  0.0512
25082W        W41156   3.775  10.751   2.054  0.0213 -0.0247  0.1150
25083W        W41157  14.858   1.918   5.534  0.2543 -0.1248  0.2161
25084W        W41158   2.905   9.962  12.500  0.1082  0.0229  0.2567
25085W        W41159   3.711   5.732   1.737 -0.1881  0.2374  0.1169
25086W        W41160   9.316   7.453  15.507 -0.0482  0.1377  0.1004
25087W        W41161   1.681   2.755   0.881  0.1345  0.1071 -0.1808
25088W        W41162  12.800  17.195   2.384 -0.0672  0.0057 -0.2090
25089W        W41163   2.561   0.653  15.680 -0.0297  0.0565  0.2512
25090W        W41164  16.569  11.440  12.276 -0.1195 -0.0329 -0.3568
25091W        W41165  10.176   2.007   1.098 -0.4708 -0.2147  0.0055
25092W        W41166   3.387  12.064  13.486 -0.2435  0.0477  0.1431
25093W        W41167  14.360  12.188   0.897  0.0173  0.2975  0.1473
25094W        W41168  13.057  10.833   4.772 -0.1295 -0.2797 -0.1717
25095W        W41169   8.825  13.473   1.224 -0.0496 -0.1662  0.3900
25096W        W41170  16.357  17.028  14.238  0.3199 -0.1798  0.1144
25097W        W41171   7.920  17.683  16.292 -0.0471 -0.1470  0.0524
25098W        W41172   9.797   4.853   3.706  0.1957 -0.0513  0.3504
25099W        W41173   4.568  17.382  13.866 -0.0846 -0.1273 -0.1073
25100W        W41174   9.499  13.737   3.843 -0.0214 -0.4372 -0.0356
25101W        W41175  14.206   0.645  14.042  0.1314 -0.1161 -0.0744
25102W        W41176  10.106   7.124   1.739 -0.3850 -0.3166  0.1345
25103W        W41177   3.116  11.919  11.976  0.0251  0.3423  0.0231
25104W        W41178  18.166   6.590  14.391  0.0047  0.2307 -0.0044
25105W        W41179   5.977  11.922  16.347  0.0283 -0.1974  0.3619
25106W        W41180   1.818   1.257   0.349  0.0093 -0.1161  0.1307
25107W        W41181  10.282  15.449  16.312 -0.1865  0.3797  0.3761
25108W        W41182  14.979  10.032   2.260  0.0720 -0.0193 -0.0542
25109W        W41183  12.957   8.521  13.073  0.0241 -0.0708 -0.1894
25110W        W41184   5.874  11.665  10.898 -0.2123  0.2026 -0.2616
25111W        W41185  11.619  10.494   3.479 -0.0836  0.1422 -0.0866
25112W        W41186  15.075   5.842  11.205 -0.1122  0.3740 -0.0331
25113W        W41187   2.771   6.385   4.224 -0.2926 -0.5566  0.0223
25114W        W41188  11.019   0.340  13.750 -0.0329  0.0589 -0.1904
25115W        W41189   5.010   8.515  13.531 -0.1035  0.0776  0.0356
25116W        W41190  14.379  16.236   5.441  0.1344 -0.1748 -0.1207
25117W        W41191  16.182   2.221  13.082 -0.1466  0.0334 -0.1216
25118W        W41192   1.525   6.081  13.283 -0.0941 -0.0861  0.0340
25119W        W41193  13.301   4.680  16.326 -0.0168  0.0797  0.0380
25120W        W41194   6.952   4.308  11.424  0.2941 -0.1501  0.2365
25121W        W41195   7.020   9.816  14.312  0.0764  0.3427 -0.0239
25122W        W41196   8.600  13.340   2.878 -0.1823  0.2265  0.1611
25123W        W41197   3.835   6.778   1.168 -0.2081  0.1775 -0.1723
25124W        W41198  16.652   6.867   4.564 -0.0327  0.2041 -0.0479
25125W        W41199   3.271   1.103   4.842  0.1507  0.2346 -0.0149
25126W        W41200  13.076   7.826   3.901  0.2211 -0.1668 -0.2305
25127W        W41201  15.276  16.872  13.607 -0.2895 -0.4108 -0.1295
25128W        W41202   9.259  17.582   4.135  0.0880  0.3084 -0.0910
25129W        W41203   8.535   7.540   3.928 -0.0071 -0.3398 -0.1614
25130W        W41204  15.031  17.760  12.502  0.1191 -0.4048  0.0330
25131W        W41205   8.821   2.806  15.144 -0.0829  0.0948  0.0586
25132W        W41206  15.092   7.151   2.791 -0.0448  0.0953 -0.2973
25133W        W41207  10.241  10.611  14.748  0.4697  0.2369 -0.3007
25134W        W41208  10.811   7.490   0.537  0.1379  0.2011 -0.1292
25135W        W41209  15.483  16.059   4.963 -0.0591 -0.0929  0.0062
25136W        W41210   4.279   0.601   2.461  0.0249 -0.0138  0.1471
25137W        W41211  15.394  13.769  12.073 -0.2897  0.0118 -0.2319
25138W        W41212   5.164  18.108  13.446  0.0366 -0.0202 -0.1852
25139W        W41213  14.830  13.025   3.708 -0.1070  0.2716  0.1460
25140W        W41214  10.540  12.172   0.956  0.1707 -0.0517 -0.0063
25141W        W41215   4.951   9.966   3.262 -0.1154 -0.2026 -0.1309
25142W        W41216   9.991  13.703   0.036 -0.4011  0.0829 -0.1852
25143W        W41217   8.852  10.300   3.374 -0.1594 -0.0780 -0.0984
25144W        W41218  13.047  13.897   3.672 -0.0419  0.0875  0.0994
25145W        W41219   3.016  11.711   3.280 -0.1239  0.3236 -0.0731
25146W        W41220  12.256   0.787  13.327 -0.2621 -0.4013 -0.2472
25147W        W41221   9.646   7.286   1.892 -0.2873 -0.1031 -0.2464
25148W        W41222   4.709  14.945  10.477  0.0843  0.3007  0.0466
25149W        W41223  15.837  14.146  13.336 -0.0594 -0.0138 -0.1817
25150W        W41224  15.347   6.013  12.566  0.1613  0.3351 -0.0820
25151W        W41225   1.665   9.690   5.252  0.2197 -0.3092 -0.0151
25152W        W41226  11.256  14.810  13.845  0.1405 -0.2262 -0.0697
25153W        W41227   9.678   9.723   3.653  0.0787  0.1013 -0.1982
25154W        W41228  11.347  10.740   4.014 -0.0505  0.0196  0.0705
25155W        W41229  17.198  10.861   3.646 -0.0882  0.4198 -0.3041
25156W        W41230  14.486   4.063   0.573 -0.0020 -0.2186  0.1123
25157W        W41231  17.763  13.086  15.745  0.1587  0.3128  0.0721
25158W        W41232   6.027  10.437   3.687 -0.0828 -0.1397 -0.1839
25159W        W41233  10.786   3.763  12.692  0.2289 -0.0027  0.0276
25160W        W41234  14.132  16.012   0.091  0.0376 -0.0295  0.1978
25161W        W41235   9.918  15.395  14.403 -0.1058  0.1649  0.2114
25162W        W41236  10.061   5.112  12.170 -0.2232 -0.0505 -0.2037
25163W        W41237  15.442   5.010  12.441 -0.1532 -0.0869  0.3027
25164W        W41238  11.336  13.230  15.000  0.0386  0.1277  0.1093
25165W        W41239  12.710  11.435  15.917  0.2432  0.6397 -0.1467
25166W        W41240   5.673  12.938   4.235  0.1723 -0.0837  0.2784
25167W        W41241   3.737   2.240   3.907  0.0562 -0.1694  0.0527
25168W        W41242  13.865   9.576   1.514  0.0384 -0.0717  0.0149
25169W        W41243   3.158   1.842  13.603 -0.1974 -0.1690  0.0217
25170W        W41244   1.882  17.127  15.029 -0.2319  0.0190  0.0516
25171W        W41245  13.905   5.380   3.416 -0.0360  0.0596  0.0974
25172W        W41246   5.663  13.148  16.258  0.0511  0.0724 -0.2095
25173W        W41247  17.532   8.662  14.082 -0.1497  0.0044 -0.0208
25174W        W41248   7.356   6.653  15.853 -0.2142  0.3269 -0.1990
25175W        W41249   7.349  10.350   6.142  0.0050 -0.1323 -0.1278
25176W        W41250   6.312  17.035   3.472  0.2108 -0.1005 -0.1115
25177W        W41251   9.013  16.040  13.161 -0.1628  0.4579  0.0734
25178W        W41252   3.759  14.134  13.508  0.2077 -0.1895 -0.2936
25179W        W41253   9.815  10.911  12.437  0.2600  0.1477  0.2344
25180W        W41254   0.563   5.295  12.291 -0.2559  0.1650  0.3048
25181W        W41255  17.103   5.080   4.127  0.2346  0.0307  0.0673
25182W        W41256  12.926  15.259  13.319  0.2586  0.2791  0.0789
25183W        W41257   4.014  14.423  11.443  0.1103 -0.2148 -0.0854
25184W        W41258  17.324   2.247  13.360  0.0982 -0.4187 -0.5385
25185W        W41259  13.830  12.537  15.071 -0.5281 -0.3119 -0.0429
25186W        W41260   9.376   6.885   2.712  0.3854 -0.3567  0.2392
25187W        W41261   5.119   1.656  14.663 -0.2027  0.2895 -0.1052
25188W        W41262  14.244  11.641   2.616 -0.1289 -0.2344  0.1130
25189W        W41263  15.016   8.222  12.997  0.0344  0.3116  0.2140
25190W        W41264   6.900   9.026  14.103 -0.1737  0.2354 -0.3677
25191W        W41265  10.573  12.051  13.457 -0.0846  0.0389  0.0313
25192W        W41266   4.708   6.724  11.303 -0.0616  0.0178 -0.2677
25193W        W41267   1.320  17.789   3.728  0.1313 -0.0606  0.1875
25194W        W41268  12.388  17.727   0.750  0.0361  0.0969 -0.5797
25195W        W41269   6.627  17.480   3.301  0.2187 -0.1191  0.0893
25196W        W41270   1.925   4.319  14.839 -0.1184  0.0998  0.2028
25197W        W41271  17.609   6.527  14.180 -0.0259 -0.1061  0.1245
25198W        W41272   9.395  11.139   4.174  0.3710 -0.0776  0.3475
25199W        W41273  12.712   2.148  12.102  0.0308  0.0301  0.3529
25200W        W41274   6.465  12.184   1.663  0.0421 -0.0468  0.4116
25201W        W41275   7.304  14.601  14.498 -0.3070 -0.0733  0.2719
25202W        W41276  16.974   2.441   0.953  0.0424 -0.2259  0.0833
25203W        W41277  13.042   5.413   3.668  0.0433  0.2081 -0.1013
25204W        W41278   1.492   5.020  14.554  0.0570 -0.2882  0.2126
25205W        W41279   0.816   9.189   1.548  0.3900 -0.1084  0.3020
25206W        W41280   9.144   8.650   5.499 -0.1456  0.3461  0.1332
25207W        W41281   0.649  10.304   0.222  0.0307  0.0645  0.3345
25208W        W41282   3.440  11.760  15.260  0.0141 -0.2464  0.0139
25209W        W41283   8.897  16.843   1.644  0.1204 -0.0457  0.0714
25210W        W41284   0.118   6.836   3.038 -0.2062 -0.2086 -0.1315
25211W        W41285   9.674   8.487  12.712 -0.0840  0.2132  0.1737
25212W        W41286   0.346   3.966   0.672 -0.4588 -0.0643 -0.0700
25213W        W41287   8.787  14.015   2.434  0.2205  0.1357 -0.0313
25214W        W41288   2.652   6.816   4.503 -0.0601  0.1944 -0.3966
25215W        W41289  13.361   6.491  12.392 -0.1063 -0.0918  0.0366
25216W        W41290  15.941   8.631  13.759 -0.0125 -0.0867 -0.2376
25217W        W41291   6.927   3.050   2.983  0.2454  0.2945 -0.3903
25218W        W41292   0.712   3.706   1.103  0.4126  0.2609  0.0855
25219W        W41293  16.265   8.209   1.710  0.1268  0.2249  0.0444
25220W        W41294   0.700   0.823  12.790  0.0465  0.0650 -0.1103
25221W        W41295  12.267  10.566  16.332  0.3470 -0.3030  0.0961
25222W        W41296  15.501   6.759   0.392  0.0636 -0.0812  0.0914
25223W        W41297   1.346   5.911   4.834 -0.1276  0.1153 -0.3893
25224W        W41298   8.099  14.969  13.671 -0.2184 -0.0084  0.2242
25225W        W41299   1.924   9.393   1.254 -0.1873 -0.1901 -0.2063
25226W        W41300   5.044  13.305  14.550  0.1008 -0.1069 -0.4772
25227W        W41301  13.500  13.870  12.370 -0.2966 -0.2622 -0.1108
25228W        W41302   8.078   1.871   4.645  0.2190 -0.4215  0.3081
25229W        W41303   3.341   0.140  14.598 -0.0596  0.2887 -0.1946
25230W        W41304   8.532  10.901   2.621 -0.1431  0.0886  0.0367
25231W        W41305  10.170  10.994   0.150  0.2804 -0.3342 -0.0174
25232W        W41306  11.227   4.106  12.780 -0.2213  0.0708 -0.0532
25233W        W41307   9.185  15.006  13.940 -0.1125 -0.1077 -0.1227
25234W        W41308  11.087   4.401   1.854 -0.4866  0.2682  0.5215
25235W        W41309   5.101   2.889   3.908  0.3996  0.0865 -0.0839
25236W        W41310   5.493   3.361   1.529  0.0059 -0.0985  0.0724
25237W        W41311   8.677   0.699  15.027 -0.0658 -0.1149  0.2343
25238W        W41312  11.764  10.150   5.264  0.1582 -0.2398 -0.2435
25239W        W41313  14.338   1.514   0.054  0.2540  0.2169 -0.1127
25240W        W41314   7.310   1.030   1.072  0.0204  0.3101  0.2832
25241W        W41315   5.956   8.625   0.412  0.0239  0.1193  0.1448
25242W        W41316  10.174  11.431   3.926  0.0176 -0.0881  0.0064
25243W        W41317   5.368   4.147   4.804  0.1321 -0.0570  0.2713
25244W        W41318  15.794  11.773  16.240 -0.1922  0.2088  0.2421
25245W        W41319  17.635  16.314   5.259  0.0007  0.0949  0.0455
25246W        W41320  18.091   0.662   0.639 -0.1081 -0.1212  0.4422
25247W        W41321   9.335  11.810   4.065  0.1811  0.0609  0.2101
25248W        W41322   3.419   3.619   5.582 -0.0403  0.3574 -0.0420
25249W        W41323   8.019  12.762  14.813  0.1449 -0.1146 -0.1570
25250W        W41324  14.476   0.074   2.288 -0.1502 -0.2943  0.0037
25251W        W41325   9.363  14.095   1.025 -0.1179 -0.1458  0.0397
25252W        W41326  18.040   7.612  14.277 -0.3783 -0.2902  0.1252
25253W        W41327   2.016   9.349   4.523  0.1395  0.0206  0.0215
25254W        W41328   6.192  18.104   0.033  0.0155 -0.1819 -0.2453
25255W        W41329   5.878   8.725  15.507  0.0887 -0.2636  0.1215
25256W        W41330   3.122   2.591   3.846  0.4664 -0.2998  0.1100
25257W        W41331   9.675   5.345  10.739  0.3590  0.3146  0.1400
25258W        W41332   6.894   1.085   3.916 -0.0708 -0.1409 -0.1093
25259W        W41333  15.913  10.615   1.265  0.2628  0.1290 -0.3023
25260W        W41334   1.240   5.812   0.770  0.2812  0.2277 -0.2159
25261W        W41335   0.310   3.362  14.666 -0.0442 -0.1910  0.0465
25262W        W41336   1.651  17.385  14.296  0.0909  0.0206  0.0039
25263W        W41337  14.534  15.913  13.500  0.3315 -0.2570 -0.4135
25264W        W41338  17.532  17.848   4.273 -0.0986 -0.0139 -0.3380
25265W        W41339   1.321   8.133   1.060 -0.0741  0.3863 -0.0806
25266W        W41340   0.685  10.947   0.236  0.3567  0.2145  0.1459
25267W        W41341  17.085   8.978   2.795 -0.1274 -0.0347 -0.1610
25268W        W41342   8.413  12.937  11.951 -0.2046 -0.0302  0.1576
25269W        W41343   5.967  11.073  14.500 -0.0464 -0.1893 -0.0446
25270W        W41344   3.942   0.605  15.659 -0.0018 -0.0386  0.0002
25271W        W41345   0.704  14.130   1.252  0.1711  0.0140  0.0508
25272W        W41346   3.786  12.448  13.707  0.1178  0.0925  0.0841
25273W        W41347  14.082   0.426  11.022  0.4145  0.0514 -0.0361
25274W        W41348  12.225  17.361  12.134  0.1571 -0.1604 -0.0930
25275W        W41349   3.456  14.656  11.869  0.0136  0.2775 -0.2083
25276W        W41350  15.923  14.819  16.102  0.0865 -0.3957  0.3381
25277W        W41351  14.273  16.953  12.137  0.0182 -0.3079  0.0724
25278W        W41352  10.242  17.221  12.315 -0.0032 -0.0178  0.1135
25279W        W41353   0.418  16.709  15.336  0.1010  0.0505 -0.1962
25280W        W41354  11.774  17.337   4.525  0.0114  0.1528  0.1688
25281W        W41355  13.111   8.450  12.559  0.0543  0.2674 -0.2142
25282W        W41356  18.000   2.052   3.178  0.2585  0.0991 -0.0799
25283W        W41357   9.946   3.144  15.670  0.2102 -0.0660 -0.3508
25284W        W41358   3.938   5.602   4.515  0.0998  0.1195 -0.0026
25285W        W41359   4.078  10.190  13.981  0.1793  0.0671  0.0652
25286W        W41360   0.175  12.956   0.648  0.0064  0.3733  0.0287
25287W        W41361   9.932   7.256   0.146 -0.3552 -0.2636 -0.0889
25288W        W41362  13.593  16.511   0.733  0.3257 -0.3753  0.0436
25289W        W41363  16.929   0.253  13.369  0.3114  0.0714  0.1068
25290W        W41364  17.090  14.418  11.908  0.0785  0.1750  0.1723
25291W        W41365  10.357   8.000   1.779  0.2154 -0.2306  0.2020
25292W        W41366   3.327   6.738   1.152  0.1087 -0.3022  0.1763
25293W        W41367   2.195   6.701  14.004  0.3042 -0.1767 -0.0371
25294W        W41368   4.828   3.021   0.721  0.0802 -0.0413  0.2093
25295W        W41369  13.173   5.670   2.810 -0.2179  0.0811  0.4020
25296W        W41370  12.224   6.144   2.937  0.1242  0.2270  0.0711
25297W        W41371   8.416   4.720  15.514  0.0612 -0.3572  0.0367
25298W        W41372  17.093  17.560  11.707 -0.0955 -0.0258 -0.1382
25299W        W41373   8.464   5.097  12.901 -0.2377 -0.0489  0.1719
25300W        W41374   7.072  16.133   0.744 -0.2104  0.0224  0.0564
25301W        W41375   4.552   3.707   0.221  0.0562 -0.2333  0.0522
25302W        W41376  16.260  11.894  16.262 -0.1339 -0.3621 -0.0085
25303W        W41377   4.081   1.183  15.466 -0.2460  0.1350 -0.1672
25304W        W41378   4.573   0.072   5.713  0.0968  0.2318  0.0814
25305W        W41379   3.625   1.722  12.051 -0.2249  0.0189  0.0411
25306W        W41380  12.106  14.811  11.720 -0.4384  0.2080  0.1598
25307W        W41381  16.206  11.915  15.409 -0.3504  0.0205  0.3785
25308W        W41382  12.040   3.179   0.221  0.1100  0.0557 -0.0361
25309W        W41383   6.118  13.416  16.050 -0.1085  0.0869 -0.0607
25310W        W41384   1.469   1.129   1.676  0.1754  0.2599 -0.0944
25311W        W41385   7.649  12.676   2.549  0.0333  0.0257  0.0576
25312W        W41386   7.730   8.837  14.635 -0.2890 -0.0527 -0.4723
25313W        W41387   2.611   8.312   2.494  0.0881  0.0741 -0.1273
25314W        W41388  17.925   8.682  11.713 -0.0382  0.2501 -0.0635
25315W        W41389   0.173   9.750   4.128  0.2623 -0.1579  0.0846
25316W        W41390  16.873   2.222   1.419 -0.0370  0.1992  0.1594
25317W        W41391   8.464   4.760  14.334 -0.1896  0.0530  0.0104
25318W        W41392   0.996   4.030   1.339  0.0602  0.1843  0.0643
25319W        W41393   3.484   4.907   1.145  0.1233 -0.2236 -0.0116
25320W        W41394  13.404   6.105   2.997  0.1670 -0.0522  0.0561
25321W        W41395   8.852  17.852   2.826  0.0213  0.2980  0.0831
25322W        W41396   0.494  15.681  15.125 -0.0902 -0.1092  0.2002
25323W        W41397  15.613   8.225   3.484  0.2198  0.0188 -0.0508
25324W        W41398  12.514   2.274  14.860 -0.0097 -0.0235  0.0809
25325W        W41399   7.234   5.928  13.005 -0.1558 -0.3962 -0.2412
25326W        W41400   9.531  13.537   3.291 -0.1493  0.1760  0.2319
25327W        W41401  12.656   2.261   4.516  0.0453  0.1220 -0.0960
25328W        W41402   7.216  14.938   5.331 -0.0077 -0.0354  0.1370
25329W        W41403   9.754   7.374   4.087  0.0086  0.0512  0.1616
25330W        W41404  18.230  12.908  14.261  0.0570  0.0097  0.2965
25331W        W41405   9.200  18.326  13.115 -0.0087 -0.2249  0.0999
25332W        W41406  17.304   7.400   4.364 -0.0731  0.0524 -0.4920
25333W        W41407  14.698  14.627  14.072 -0.0235  0.3296 -0.0923
25334W        W41408  13.160   0.625  12.649 -0.0560  0.1526  0.0019
25335W        W41409   3.037   2.264  16.213  0.0528  0.1557  0.1354
25336W        W41410  16.306  14.038   5.715 -0.3176  0.1880  0.0522
25337W        W41411   6.311  10.919   3.998 -0.2044 -0.1348  0.0835
25338W        W41412   9.394  18.195  14.184  0.2664  0.1015 -0.1203
25339W        W41413   3.862   7.631  15.262 -0.0025  0.0304 -0.1720
25340W        W41414   1.492   4.757  11.453  0.0670 -0.3460 -0.2934
25341W        W41415   2.061   7.141   2.168  0.2900  0.1555  0.0316
25342W        W41416   7.942   8.553  14.133 -0.2322  0.1243  0.0917
25343W        W41417  11.419  18.329   2.833 -0.2767  0.0772 -0.1185
25344W        W41418  17.633  11.895  14.761  0.1689  0.1025  0.0692
25345W        W41419   7.531  18.296  11.603 -0.2637  0.1400 -0.1067
25346W        W41420  12.844  10.305   6.224 -0.3265  0.2811  0.3264
25347W        W41421  12.144   8.338  16.068  0.0691 -0.1545 -0.1884
25348W        W41422  17.740  11.389  14.916  0.1062  0.0453 -0.4686
25349W        W41423   2.021  10.781   0.569 -0.0891 -0.1621  0.1869
25350W        W41424  18.194  14.197   0.876 -0.1412  0.0695  0.2128
25351W        W41425  14.204  13.200   4.513  0.2781 -0.1107  0.4624
25352W        W41426   4.445   6.865   1.001  0.0408 -0.1217  0.5167
25353W        W41427  13.446  12.230  14.776  0.0079  0.2070 -0.3333
25354W        W41428   1.196  16.437   2.994  0.0687  0.2728  0.2959
25355W        W41429   2.708  10.495  12.285 -0.0501 -0.2565 -0.1859
25356W        W41430   4.739   6.562   3.456 -0.2277 -0.2988  0.3803
25357W        W41431  16.868  18.055  14.820 -0.3007 -0.3231 -0.2621
25358W        W41432   4.418   5.282   3.117 -0.1755  0.0789 -0.1025
25359W        W41433  16.633   8.529   2.677 -0.0377 -0.0811  0.3173
25360W        W41434   9.078   0.612  11.801  0.0704  0.4348  0.0396
25361W        W41435   0.492   9.030  13.119  0.0433 -0.0235 -0.0543
25362W        W41436   4.981   0.359   5.760 -0.3724 -0.0250  0.2445
25363W        W41437   8.261  12.590   4.555  0.2137  0.1228 -0.1551
25364W        W41438  16.102   0.630   6.034  0.1363  0.0403  0.0151
25365W        W41439   7.427  16.273  11.487 -0.0871  0.0230  0.0898
25366W        W41440   4.924   8.484  14.561  0.0918  0.0276 -0.0060
25367W        W41441   1.615  16.372   5.324  0.0205 -0.0746 -0.0162
25368W        W41442   7.038   6.975  11.935 -0.2060  0.0710 -0.1431
25369W        W41443   3.265   0.027  12.091  0.2068  0.0089 -0.2247
25370W        W41444   0.944  15.027   1.401 -0.0897  0.1769  0.1003
25371W        W41445  16.596   0.654   4.744  0.2405 -0.0950 -0.0197
25372W        W41446   2.258  10.339   0.698 -0.3963  0.0600  0.1030
25373W        W41447   4.808  14.528   3.056 -0.2363  0.1843  0.0329
25374W        W41448   6.619   9.627  11.981 -0.0896 -0.0519  0.1143
25375W        W41449  14.754   6.448   4.205  0.0133 -0.0378  0.0867
25376W        W41450  12.983  17.430   4.357 -0.1117 -0.1005  0.0236
25377W        W41451   6.053  13.483  15.549 -0.2711  0.2312  0.2229
25378W        W41452   1.530   8.782  11.659  0.3250  0.1077 -0.4875
25379W        W41453  13.182   5.898   0.532  0.0800 -0.0525 -0.0702
25380W        W41454   1.720  12.993   5.137 -0.1612  0.0301  0.2314
25381W        W41455  15.526   6.802   3.480 -0.3253  0.3367 -0.2098
25382W        W41456   6.160   0.223  13.910 -0.1329  0.0135 -0.0014
25383W        W41457  15.511  10.840  12.277  0.1830  0.5374  0.2945
25384W        W41458   1.161  17.428   2.097 -0.0406 -0.1172  0.3424
25385W        W41459   3.114   7.069   5.430 -0.2181 -0.4864  0.1221
25386W        W41460   1.078  16.623   0.169  0.0659 -0.0914  0.1846
25387W        W41461   4.289   8.688  13.257  0.1964  0.1689 -0.0827
25388W        W41462  17.308  14.309  13.519 -0.2409  0.1105 -0.1295
25389W        W41463  17.582   2.681  14.039 -0.2407  0.2883  0.3253
25390W        W41464   0.044  14.142   3.579  0.1000  0.0818  0.1401
25391W        W41465   4.020  14.843   2.416  0.0136  0.2023 -0.0287
25392W        W41466  16.821   1.782   3.089 -0.1191 -0.0421  0.2307
25393W        W41467   4.134   3.531   1.986 -0.3112 -0.1592 -0.2275
25394W        W41468  11.674   3.293  13.343 -0.0393 -0.2277  0.2464
25395W        W41469   7.563   9.674   5.170  0.1419 -0.2078  0.1704
25396W        W41470  13.485  16.041   1.676  0.1761 -0.2520 -0.1410
25397W        W41471   7.906   2.527  12.409  0.0060  0.2045  0.1303
25398W        W41472   7.164  10.223   3.832  0.3681 -0.2523 -0.1104
25399W        W41473   6.481   3.817   4.178 -0.0517 -0.2091  0.2520
25400W        W41474  10.729  10.177  14.781 -0.1666 -0.1420 -0.1277
25401W        W41475  16.640   5.023  12.392  0.2872  0.3365  0.1135
25402W        W41476  16.522  14.989   6.128  0.1917  0.1718  0.1294
25403W        W41477  14.635  10.149  13.910  0.2119 -0.0846 -0.2110
25404W        W41478  17.504   0.535  12.053 -0.0687 -0.2148 -0.3243
25405W        W41479  12.248  13.720  12.990 -0.2104  0.2433 -0.0232
25406W        W41480   2.608   9.362   0.685  0.0743  0.0415 -0.1261
25407W        W41481   2.793   4.662  14.812 -0.1655 -0.2685 -0.0550
25408W        W41482   3.923  15.980  12.075 -0.1500  0.0276  0.1536
25409W        W41483   9.718   9.180  16.211  0.1927  0.0455  0.1674
25410W        W41484   1.263   0.220   1.665  0.0490 -0.0935  0.1185
25411W        W41485   0.772   9.372   5.539  0.0073  0.3103 -0.0284
25412W        W41486  13.298   9.704  12.194  0.3202  0.3111 -0.0491
25413W        W41487   8.684   8.551   1.847 -0.0786  0.1329  0.0615
25414W        W41488   7.238   9.074  15.612  0.0817 -0.0754 -0.1115
25415W        W41489  10.166   6.728   1.450 -0.3466 -0.0937 -0.0289
25416W        W41490   5.291   4.185   1.495 -0.0319  0.2319  0.0229
25417W        W41491  17.051  14.227  14.012  0.3801 -0.4428 -0.1681
25418W        W41492  16.052   1.696   5.237  0.2000 -0.1225 -0.0435
25419W        W41493   4.998  10.460  14.044  0.0576 -0.0106  0.3568
25420W        W41494   2.283  12.907   4.358 -0.1867  0.2056 -0.2473
25421W        W41495   5.664  11.755   5.124  0.0369 -0.2272 -0.2052
25422W        W41496   3.244   6.006  12.913 -0.1991  0.0727  0.1145
25423W        W41497   1.778   8.351   2.780  0.0546 -0.3287  0.0694
25424W        W41498  12.942   8.244  12.024 -0.2691  0.0833  0.0286
25425W        W41499  16.643  11.773   5.044 -0.1185  0.0939  0.0061
25426W        W41500  10.934  11.946   1.422  0.0677 -0.0209 -0.3634
25427W        W41501  17.011  12.326  15.809 -0.1574  0.0985  0.1715
25428W        W41502   2.644   1.110   0.619 -0.0073 -0.2388 -0.2044
25429W        W41503   8.183  11.021  11.089 -0.0028 -0.2692 -0.3924
25430W        W41504   0.807   6.443  14.014 -0.0677  0.1563 -0.0157
25431W        W41505   1.545   7.061   2.830  0.1138  0.2034  0.0692
25432W        W41506   5.450   2.468   1.379 -0.2891  0.0081  0.2082
25433W        W41507  10.262   5.260   1.843  0.2449  0.1961 -0.1794
25434W        W41508  15.742  16.950   3.400 -0.1193 -0.1437 -0.0292
25435W        W41509  12.588  11.369  14.257  0.2136 -0.1577 -0.2693
25436W        W41510  11.575  14.388   1.950 -0.0637 -0.0346  0.2805
25437W        W41511  11.458   1.516   5.036 -0.1690  0.1582  0.0945
25438W        W41512  10.151  11.858   4.354  0.1258  0.0279 -0.0407
25439W        W41513  10.533  16.587  10.201  0.0199  0.2321 -0.1888
25440W        W41514   1.140   3.733   2.731 -0.1768 -0.1670  0.0916
25441W        W41515   0.297  17.263   5.336 -0.1134  0.2116  0.0919
25442W        W41516  12.996   6.592   3.973  0.0393  0.3140 -0.2551
25443W        W41517  15.798   3.240   0.002 -0.4193 -0.0518 -0.0168
25444W        W41518  14.582  14.707   2.339 -0.0923  0.0626 -0.1258
25445W        W41519   0.661   1.084   5.094 -0.1951 -0.2242 -0.4275
25446W        W41520   1.394  12.849  11.296  0.3429 -0.0613 -0.1532
25447W        W41521  16.850   2.095   0.608 -0.0271 -0.1493  0.1735
25448W        W41522  16.577   8.248  13.103  0.1790  0.2193  0.3349
25449W        W41523   1.402   0.873  15.256  0.1016 -0.2851 -0.1529
25450W        W41524   5.651   3.263  12.811  0.0402  0.0021  0.0796
25451W        W41525  15.969  17.204  15.346  0.0527 -0.0766 -0.0763
25452W        W41526  11.424   8.559   1.280  0.2770 -0.0877  0.2918
25453W        W41527   6.251   2.380  15.262 -0.2141 -0.0600 -0.0417
25454W        W41528  10.633   2.503  11.809  0.0328  0.3205 -0.0399
25455W        W41529   7.077   0.231  15.254 -0.0898 -0.1599 -0.1451
25456W        W41530  16.521  18.316  13.847  0.0900 -0.1084  0.3324
25457W        W41531   1.103   5.345   0.920 -0.4706 -0.3526  0.1757
25458W        W41532  16.094   9.389   3.957 -0.0297 -0.3031 -0.1734
25459W        W41533   0.926   4.929  15.317  0.0771  0.0551 -0.1469
25460W        W41534  14.803  17.640   3.251 -0.1080 -0.1348 -0.2927
25461W        W41535   2.857  17.001   0.387 -0.2299 -0.2549 -0.2045
25462W        W41536   4.337  14.525  15.884 -0.2649  0.0798 -0.0708
25463W        W41537   2.113  14.468   3.309 -0.4101 -0.0803 -0.0279
25464W        W41538   7.204   4.483   2.120  0.0552  0.0414  0.2381
25465W        W41539   2.033  17.996   3.766 -0.0725 -0.0638 -0.0994
25466W        W41540   0.823  12.263  11.645 -0.0603 -0.0619  0.2563
25467W        W41541   6.408  14.413   1.582  0.1104  0.2184  0.1499
25468W        W41542  15.083   8.723  10.187 -0.1833  0.0748  0.0129
25469W        W41543  10.894  17.700   4.649 -0.2022 -0.0183 -0.0520
25470W        W41544  16.796   2.122  14.520  0.3784 -0.0751 -0.1319
25471W        W41545  16.718   5.072   2.616  0.2873  0.0626  0.3587
25472W        W41546   0.307  12.830   2.379 -0.0015  0.2619 -0.2243
25473W        W41547   9.367  13.031   2.471  0.1061 -0.1296  0.0482
25474W        W41548   1.392   4.562  16.187  0.0919 -0.2605 -0.0039
25475W        W41549   9.140   7.100  13.365 -0.1035  0.1954 -0.0196
25476W        W41550   0.733  10.043  13.908  0.1761 -0.0030 -0.0366
25477W        W41551   1.722   1.858   1.052  0.0923 -0.0612  0.1879
25478W        W41552  14.631  12.441   5.223  0.1353  0.1019 -0.3127
25479W        W41553   6.139   7.341   4.243  0.3606 -0.0783 -0.2554
25480W        W41554  11.648  12.826   3.411 -0.4768 -0.0088  0.4520
25481W        W41555   7.564   0.500  11.922 -0.1513  0.4121 -0.3969
25482W        W41556  17.319   9.329   1.135 -0.0304  0.3885 -0.0604
25483W        W41557   0.833   9.931  16.182  0.1464 -0.1598  0.0550
25484W        W41558  10.566   6.181   2.385  0.0290 -0.4266 -0.0528
25485W        W41559  16.569  17.000   2.764  0.2808 -0.1496  0.1898
25486W        W41560  14.351  18.251   5.306  0.2828 -0.1408 -0.0147
25487W        W41561  16.563  10.768  11.359  0.1194 -0.0747  0.1611
25488W        W41562  10.402   8.775   3.849  0.2188  0.1497 -0.1425
25489W        W41563   5.455   6.119  11.918  0.2041  0.2063 -0.1440
25490W        W41564  17.229   1.590  16.300  0.1953 -0.1200  0.2462
25491W        W41565  16.583   2.424   3.320  0.1734 -0.1852  0.2199
25492W        W41566  12.323  17.327   3.203 -0.1631 -0.0148 -0.4219
25493W        W41567   7.950   0.506  15.249  0.0582 -0.0524  0.3005
25494W        W41568  14.758   0.107  11.626 -0.2542 -0.1472  0.2141
25495W        W41569  17.150   3.517  15.795 -0.0184 -0.2204  0.0528
25496W        W41570   0.459   0.732  13.222 -0.0658  0.0292 -0.0569
25497W        W41571  10.715   9.571  11.743  0.1534  0.2919 -0.0943
25498W        W41572   4.440  11.611  14.770 -0.3036  0.2885 -0.0098
25499W        W41573  12.414   0.581   5.657 -0.1604  0.0960 -0.0944
25500W        W41574   2.043   6.218  11.444 -0.2828  0.0772 -0.3022
25501W        W41575   5.050  12.042  13.747 -0.1461  0.1372  0.0118
25502W        W41576   2.905   6.802  11.713  0.4296 -0.2878  0.0240
25503W        W41577   0.106  11.213  15.751  0.0500 -0.1445 -0.2117
25504W        W41578   0.158   7.066   4.633  0.0403  0.0031  0.0982
25505W        W41579   0.930  18.304  11.648  0.2612 -0.2558  0.0757
25506W        W41580  13.072  12.179  13.715 -0.2284  0.1111 -0.2474
25507W        W41581  16.356   5.536   3.725  0.3076 -0.0151  0.1492
25508W        W41582   9.611  12.267  12.666  0.1715 -0.1412  0.1866
25509W        W41583   6.434  15.622   5.048  0.0698  0.2199 -0.1747
25510W        W41584  10.589  17.157   5.391  0.1871 -0.2293 -0.2394
25511W        W41585  16.109   7.924   3.412  0.2297 -0.2142  0.3481
25512W        W41586  15.965   2.916   2.353  0.0716  0.0782  0.3523
25513W        W41587   5.440  12.056   3.586 -0.1488 -0.1626  0.1454
25514W        W41588  11.031   7.413   2.401 -0.1479  0.0440  0.1068
25515W        W41589  14.398  11.047   6.170 -0.1694  0.7260 -0.2472
25516W        W41590   0.446  10.347  11.830 -0.0629 -0.3304 -0.1065
25517W        W41591  16.751   2.669   1.455 -0.0242  0.0143  0.0528
25518W        W41592  10.446   7.979   5.625  0.1578  0.1347  0.1967
25519W        W41593   5.568   8.774   4.365 -0.0623 -0.2001 -0.3210
25520W        W41594   7.630  11.886   5.849  0.1510 -0.0833  0.0179
25521W        W41595   0.354  14.568  15.118  0.3901 -0.3629  0.2932
25522W        W41596   5.024   0.454  12.905 -0.2969  0.1797  0.1769
25523W        W41597  13.179  15.636   4.043 -0.0294 -0.0523  0.0603
25524W        W41598   8.199  10.605   6.173 -0.1080  0.1965 -0.0421
25525W        W41599   9.047   5.244   1.588  0.0216 -0.0517  0.1907
25526W        W41600   0.182   2.911   2.131  0.0845  0.2462 -0.0186
25527W        W41601   9.530   5.591   0.356 -0.0660 -0.2108  0.1246
25528W        W41602  17.473   5.403  15.754 -0.1642 -0.1686  0.2364
25529W        W41603   7.469  16.560  13.689 -0.2061  0.1030 -0.0147
25530W        W41604   7.370   4.860   2.400  0.0271 -0.1318 -0.0525
25531W        W41605  13.787  16.156  15.610  0.2197 -0.2797 -0.1815
25532W        W41606  11.095   0.267  15.710  0.1385  0.2618 -0.2402
25533W        W41607   1.052   9.208  15.440  0.0444  0.0971  0.2488
25534W        W41608   3.764  12.203  11.983 -0.0861 -0.1900  0.1089
25535W        W41609  16.794   5.193  13.799 -0.1472 -0.0791 -0.1639
25536W        W41610   5.536   3.978   2.479 -0.3038  0.0106 -0.0987
25537W        W41611  14.994   5.980   0.964  0.1367  0.2427 -0.1787
25538W        W41612  13.705   7.862  12.345 -0.4347 -0.1632 -0.0696
25539W        W41613  15.563  17.188  12.017 -0.1005  0.2859 -0.1771
25540W        W41614  10.144   5.105  13.782 -0.1642 -0.2557 -0.0002
25541W        W41615   5.713  16.511   2.303 -0.0627 -0.0293  0.1442
25542W        W41616  15.441  13.519   5.637 -0.0767 -0.2561  0.4495
25543W        W41617   0.206   0.305   1.883  0.1497  0.2780  0.0054
25544W        W41618  11.179  11.807  13.973  0.1266 -0.0509 -0.2617
25545W        W41619   2.321   3.661   3.546 -0.1434  0.0969 -0.2037
25546W        W41620   4.038   7.220   1.011 -0.4227 -0.2533 -0.0756
25547W        W41621  17.913   5.367   4.807 -0.0851 -0.1996  0.0115
25548W        W41622  16.580   2.454  15.392 -0.2637  0.2301 -0.2084
25549W        W41623   0.236  10.342  14.913  0.1756  0.1762  0.1600
25550W        W41624   3.736  18.244  12.265  0.0505  0.0921  0.2986
25551W        W41625   0.510   9.638  13.751  0.0520  0.3021 -0.2133
25552W        W41626   5.287   4.986  10.860 -0.0399  0.3612 -0.4957
25553W        W41627   8.120   8.526  12.811  0.2026  0.3138  0.1228
25554W        W41628   0.538  18.198   0.538 -0.0179 -0.1297 -0.2103
25555W        W41629  12.912  16.849  15.385  0.1243 -0.0937 -0.0016
25556W        W41630  10.037  10.521   2.985  0.2722 -0.0406 -0.1130
25557W        W41631   1.619   5.635  15.408  0.0298 -0.0360 -0.4337
25558W        W41632  16.557  11.181   1.885  0.2171  0.2802 -0.4671
25559W        W41633   9.763  14.919   3.279  0.1252  0.0153 -0.2078
25560W        W41634  11.014   3.156  15.505 -0.0555  0.0119  0.0978
25561W        W41635   9.537   3.125   3.448 -0.3764 -0.1585  0.1729
25562W        W41636   3.238   3.673  14.855 -0.1249 -0.0673 -0.1298
25563W        W41637   1.265  14.351  14.015 -0.5874  0.2346 -0.2554
25564W        W41638   9.143   8.973  14.424  0.1708 -0.0749  0.1581
25565W        W41639   1.131  13.594  16.136  0.1130 -0.0558  0.0723
25566W        W41640  16.966  10.624   5.069 -0.2491  0.4028  0.1327
25567W        W41641   9.095   7.092  15.190 -0.0460  0.0374 -0.2856
25568W        W41642   9.459  16.079   1.787  0.0913 -0.0783 -0.0323
25569W        W41643   5.996  11.860   2.886 -0.0247  0.0255  0.0080
25570W        W41644   6.731  13.690   3.836 -0.2733  0.1075  0.3519
25571W        W41645   5.954   6.119  15.818 -0.1563  0.0380 -0.1035
25572W        W41646  15.579  12.028  13.855 -0.2073 -0.0639 -0.0563
25573W        W41647   8.954  10.758  15.443 -0.0206 -0.1017  0.0958
25574W        W41648  11.482   6.230  12.963  0.1927  0.3183  0.1451
25575W        W41649  15.404  16.751   1.377 -0.1593  0.0267 -0.0373
25576W        W41650   2.170  12.758   0.566  0.1481 -0.1384  0.2869
25577W        W41651   2.282   3.051  13.526 -0.1079  0.0759  0.0754
25578W        W41652   9.432   2.151   0.863 -0.0312 -0.0262  0.2144
25579W        W41653  12.059   9.707  11.698  0.1342  0.1513  0.0184
25580W        W41654   1.177  17.844   0.500  0.0807  0.0398  0.3723
25581W        W41655   5.596   5.653   1.210 -0.1863 -0.1260 -0.1325
25582W        W41656   6.502  12.068   2.766 -0.0663 -0.0065 -0.1600
25583W        W41657   7.141   1.992  16.036  0.0498 -0.2573 -0.5383
25584W        W41658   5.326  12.023   5.379 -0.4175  0.0482 -0.1176
25585W        W41659   7.138   9.400  11.724 -0.1922 -0.0787 -0.1691
25586W        W41660   8.215   3.610   5.860 -0.0020 -0.1770  0.0482
25587W        W41661  14.204   7.875   3.871 -0.1010 -0.2412  0.2083
25588W        W41662  14.425  10.461   5.458 -0.1249 -0.0395  0.2038
25589W        W41663  13.433   2.111   3.840  0.0916  0.2124 -0.0917
25590W        W41664   2.295   8.331  15.032 -0.0715 -0.2958  0.3764
25591W        W41665  10.468   9.173   1.696  0.1411  0.0299  0.1583
25592W        W41666   9.077   9.937  12.166  0.2082  0.0324 -0.0758
25593W        W41667  16.714  14.025   5.212 -0.1206 -0.0691 -0.0018
25594W        W41668   0.582   7.710  13.373  0.0921  0.0378  0.1630
25595W        W41669  13.629   0.767  12.844  0.0306 -0.0926 -0.2395
25596W        W41670  13.787   5.305  14.624  0.3765 -0.1429 -0.0313
25597W        W41671   4.841  11.163   1.917  0.1772  0.2349 -0.3928
25598W        W41672  17.510   9.315   3.540  0.1441 -0.2378 -0.1249
25599W        W41673   6.309  12.690   2.515  0.2783  0.2267  0.2026
25600W        W41674   4.321   0.083   2.534 -0.3192  0.1876  0.1010
25601W        W41675   8.408   6.956   2.735 -0.0835  0.2280 -0.0977
25602W        W41676   9.877  13.004  15.823  0.1725 -0.2076  0.0223
25603W        W41677   1.702  12.614  13.670  0.0631  0.1663 -0.2389
25604W        W41678  12.292  12.405   0.943  0.0020  0.0990  0.0089
25605W        W41679   4.947   0.782   4.247  0.1431 -0.0296  0.2263
25606W        W41680  16.361   2.751  12.391 -0.0699  0.1577  0.1126
25607W        W41681  10.521   7.499   2.495 -0.2070 -0.1956  0.1652
25608W        W41682  14.250   9.134  12.986 -0.4383  0.2492  0.1188
25609W        W41683   3.473   2.595   5.628 -0.1309 -0.2728  0.3003
25610W        W41684   6.740  17.735   4.856 -0.2217  0.3040  0.0493
25611W        W41685   8.751   7.401  13.314  0.3018  0.2989  0.3276
25612W        W41686  15.332  17.441   2.102 -0.0922  0.1245 -0.2089
25613W        W41687   9.660   1.778   1.787  0.2042  0.0204 -0.1993
25614W        W41688  12.192   6.064  15.806 -0.0401  0.0595 -0.2899
25615W        W41689   8.831   0.336   4.497 -0.1108  0.0075 -0.0709
25616W        W41690   5.314  15.795  15.458 -0.1686 -0.0776 -0.0622
25617W        W41691  14.357  16.429  11.424 -0.0907  0.0670 -0.1272
25618W        W41692   2.411   4.175   1.725  0.1694 -0.3985 -0.1638
25619W        W41693   4.188   8.024   2.407 -0.1650  0.0068 -0.1735
25620W        W41694  10.401  15.179   3.324  0.1437  0.3280 -0.2786
25621W        W41695  11.444   8.122  11.629 -0.0437  0.0231  0.1329
25622W        W41696   2.162   5.429   2.432  0.1530  0.2427  0.1486
25623W        W41697  17.353  15.484  11.269  0.0668 -0.3185 -0.4401
25624W        W41698  10.504   6.343   9.883  0.1464  0.0701  0.0839
25625W        W41699  10.033   1.159  10.802 -0.1489 -0.1211 -0.0582
25626W        W41700  10.526  16.894   4.799 -0.1379 -0.0687  0.2537
25627W        W41701  14.431   3.077  15.596 -0.0314  0.1964  0.0709
25628W        W41702  11.535   4.837   9.785 -0.1437 -0.2376 -0.3473
25629W        W41703   4.248  16.916  14.069 -0.1239  0.0022 -0.3776
25630W        W41704   3.699  11.760   2.380  0.1108  0.1026 -0.0458
25631W        W41705  12.134   8.149  11.399 -0.1677  0.3038  0.2345
25632W        W41706   3.249  12.801  14.146 -0.1105 -0.4203 -0.2750
25633W        W41707  14.676   6.243   5.766 -0.0740 -0.2960 -0.0356
25634W        W41708  10.011   7.320  12.385  0.1286  0.0454  0.0949
25635W        W41709   7.893  12.055   4.097  0.1240 -0.0972 -0.2235
25636W        W41710   5.086   7.646  16.234 -0.1429  0.0785  0.0147
25637W        W41711   1.343   8.328   2.016  0.2710  0.1989  0.4187
25638W        W41712   6.790   5.124  10.985  0.2870 -0.2515 -0.2811
25639W        W41713   7.503  17.715   2.845  0.0545  0.0424 -0.2798
25640W        W41714   1.483   8.206   3.496 -0.0444  0.1893 -0.0839
25641W        W41715  13.683  12.492   4.252 -0.0784 -0.3803  0.1652
25642W        W41716  14.154   7.398   0.008 -0.1156  0.0754  0.3340
25643W        W41717   8.263  13.858  11.608  0.0694  0.1529 -0.0985
25644W        W41718   1.275  15.634  12.259 -0.1404 -0.0428 -0.3500
25645W        W41719  15.569   8.973   1.722 -0.3998  0.1575  0.6037
25646W        W41720  12.888   2.782   2.611 -0.1249  0.3221 -0.0940
25647W        W41721  10.185  15.966   2.092 -0.0206 -0.0420  0.1196
25648W        W41722  14.015   1.140  12.989 -0.0117  0.1838 -0.0242
25649W        W41723   2.336  10.593  12.835  0.2188 -0.3571 -0.1784
25650W        W41724  15.179  12.499  12.939 -0.1018  0.0100 -0.0449
25651W        W41725   2.544   6.142   5.220  0.2359  0.1055  0.2793
25652W        W41726  15.317   4.873  14.636  0.0429 -0.3756  0.0564
25653W        W41727  14.415  16.792   1.179 -0.2906  0.0485 -0.0804
25654W        W41728  10.325   6.195   4.139 -0.2903  0.1822  0.1875
25655W        W41729   4.775   3.967   4.163 -0.1665  0.2385 -0.2301
25656W        W41730   2.768   3.650   5.000 -0.1670  0.2421 -0.2130
25657W        W41731   0.380  16.461   0.737  0.0929 -0.1278  0.2616
25658W        W41732  11.365  16.810   5.724  0.0368 -0.0341 -0.0201
25659W        W41733   9.794   7.932  11.581 -0.1922  0.1924  0.2230
25660W        W41734   7.888  13.457  16.049  0.1455 -0.2297  0.0557
25661W        W41735   6.397  14.606  13.452 -0.2675  0.0772  0.2946
25662W        W41736  10.956  15.076  16.062 -0.0571  0.0042 -0.0127
25663W        W41737   4.633   2.207  14.535  0.0740 -0.0612  0.1537
25664W        W41738   7.386   5.948  16.267  0.1868  0.2714 -0.1429
25665W        W41739   2.883   0.198   1.167  0.0443 -0.1693  0.1404
25666W        W41740  13.979   3.036   1.761 -0.0305 -0.2613 -0.1612
25667W        W41741   7.046   8.207  14.604  0.0306  0.0719 -0.1772
25668W        W41742  13.502   7.212   2.711 -0.0721  0.0716 -0.1299
25669W        W41743  14.300   5.083  14.098  0.0952 -0.0246 -0.1497
25670W        W41744   6.060  13.552  14.589  0.3627  0.2329 -0.0548
25671W        W41745   4.044  13.779  14.814 -0.5719 -0.3020 -0.3060
25672W        W41746   7.976  17.839   4.107 -0.0139  0.1308 -0.0168
25673W        W41747   0.884   8.333   2.527  0.2034  0.1893 -0.0658
25674W        W41748   0.607   5.693  16.285  0.1690 -0.1341 -0.1259
25675W        W41749   1.962   2.985   4.555 -0.0128  0.0940 -0.0556
25676W        W41750   9.057  16.177   4.082 -0.0706 -0.1134 -0.0559
25677W        W41751   4.467   4.523   3.161 -0.3679 -0.1275 -0.2392
25678W        W41752  17.964   3.201   4.416 -0.2339  0.2493 -0.0883
25679W        W41753  13.785   0.504  11.456 -0.0599 -0.1231  0.0764
25680W        W41754   3.176  16.222   6.051  0.1352  0.0172  0.1635
25681W        W41755   8.792  15.671   2.070  0.1952 -0.0022 -0.1066
25682W        W41756   9.586   6.195  15.133 -0.2420 -0.0023 -0.1621
25683W        W41757   4.686   4.211   0.312 -0.1513 -0.1939  0.3523
25684W        W41758   7.147  17.884  14.726 -0.2950 -0.3804 -0.2338
25685W        W41759  15.952  10.044   0.798  0.1374  0.0717  0.0495
25686W        W41760  14.053   1.981   1.299  0.0341 -0.0953 -0.1147
25687W        W41761   4.761   3.739  11.855 -0.0685  0.0558 -0.0005
25688W        W41762   0.399   0.241   5.630 -0.0164 -0.1882  0.0641
25689W        W41763   9.984  14.314  13.379 -0.2030  0.0355 -0.0059
25690W        W41764  12.005  16.812  15.485 -0.1078 -0.1546  0.0304
25691W        W41765  14.740   5.649   1.911 -0.2875 -0.3359 -0.2538
25692W        W41766  15.286   5.639   4.762  0.0659  0.2563  0.1430
25693W        W41767   5.830   9.070  13.800  0.1439 -0.0545  0.1725
25694W        W41768   6.495   9.793  14.292  0.0045 -0.1312 -0.1596
25695W        W41769   0.246   7.927   4.865 -0.1149  0.2101 -0.1556
25696W        W41770   4.406  10.415   2.329 -0.1060  0.0867  0.0472
25697W        W41771   1.769  10.703  12.729  0.1664 -0.2657  0.0115
25698W        W41772  11.308   1.153   2.718 -0.2393  0.1163  0.1653
25699W        W41773   6.050   9.003   4.244  0.0146 -0.0170 -0.1123
25700W        W41774   8.716   1.694  15.292 -0.2064 -0.0259 -0.0986
25701W        W41775   5.710   0.146   2.047 -0.0942  0.1228 -0.1379
25702W        W41776   8.255   3.194   2.375 -0.1958  0.0296 -0.2923
25703W        W41777  12.135  14.332  13.843 -0.0480 -0.2970 -0.2470
25704W        W41778   0.755  17.056   4.885 -0.1268  0.0035 -0.2386
25705W        W41779   5.437   5.196   0.531  0.0106  0.1620  0.1482
25706W        W41780  14.210  14.175  14.014 -0.2678  0.0369  0.1947
25707W        W41781  16.603  17.497   4.604  0.0214 -0.2928 -0.2210
25708W        W41782   1.999   2.307   0.968 -0.0532  0.1757 -0.0445
25709W        W41783   2.961   7.460  15.911  0.1399 -0.2701 -0.0837
25710W        W41784  14.436   8.264  12.769  0.0182  0.0942  0.1242
25711W        W41785  15.476   1.018   1.316 -0.3174  0.1153  0.0324
25712W        W41786   1.369  14.295  15.040 -0.0335 -0.0069  0.0638
25713W        W41787   6.093  14.370  13.747  0.0576 -0.0905 -0.3071
25714W        W41788  11.825  17.033   1.852  0.2122 -0.2613  0.0106
25715W        W41789  12.210  18.290   4.422 -0.1016 -0.0994 -0.1754
25716W        W41790  17.240   7.821  12.567  0.3025  0.0071  0.4170
25717W        W41791  15.437   0.894  12.884  0.2063  0.1627 -0.3049
25718W        W41792  18.260  14.549   4.671  0.0225  0.0756  0.0480
25719W        W41793   3.809   9.493  11.624 -0.0434 -0.0803  0.1433
25720W        W41794  13.848  12.447   0.869 -0.0085 -0.0050  0.2446
25721W        W41795  18.140  15.900   3.633 -0.1835 -0.3216  0.0495
25722W        W41796  11.225   9.785  11.665 -0.2785 -0.2794  0.0584
25723W        W41797   5.366   2.812   2.301  0.1602 -0.1990  0.0284
25724W        W41798   2.833   6.909   3.404  0.0706 -0.2270  0.0873
25725W        W41799  15.389  10.537   5.342  0.2309  0.3097 -0.3202
25726W        W41800   2.008  12.881   0.119  0.0477 -0.1074 -0.2617
25727W        W41801  16.930  11.803   3.242  0.1953 -0.1146 -0.3732
25728W        W41802  15.596   5.091   2.210  0.0016  0.1322 -0.0473
25729W        W41803   0.890  18.085  12.595 -0.1358 -0.2685 -0.1136
25730W        W41804  16.021   3.979   0.032 -0.4020 -0.0102 -0.0018
25731W        W41805  17.929  12.144   5.554  0.2889 -0.4150  0.0065
25732W        W41806  17.760   9.346  12.371  0.2701  0.0296  0.0949
25733W        W41807  14.621  18.169  14.382 -0.1539 -0.3144 -0.0605
25734W        W41808   9.394  16.892   1.468 -0.0924  0.4771  0.0387
25735W        W41809   2.195  10.506  12.351 -0.0544 -0.0474  0.2154
25736W        W41810   9.643  17.879   0.429 -0.0807  0.0669 -0.0748
25737W        W41811   5.282  10.379   1.924  0.0125  0.0117  0.2164
25738W        W41812  13.360   5.944  14.961  0.1280 -0.0396  0.2728
25739W        W41813   9.676   4.023  14.105 -0.0002 -0.3215  0.1612
25740W        W41814  12.319   4.220   2.875 -0.1646  0.1064 -0.4069
25741W        W41815  18.221  15.180  15.493 -0.0018 -0.2793 -0.1754
25742W        W41816  14.954  16.997  14.423  0.0527  0.2198 -0.5050
25743W        W41817   1.168   4.539   5.323  0.1851 -0.0002  0.1535
25744W        W41818  10.649   2.238   0.350 -0.0729 -0.2538  0.0604
25745W        W41819   2.167  15.873   4.409  0.0667  0.1671 -0.1361
25746W        W41820  16.908   5.259  12.735 -0.1640 -0.0062 -0.0684
25747W        W41821  12.915   3.967  11.338 -0.2195 -0.1731 -0.3861
25748W        W41822  17.388  11.530  12.577 -0.1261 -0.2675  0.1649
25749W        W41823   6.930   3.467   2.678 -0.1770 -0.2275 -0.0451
25750W        W41824   0.057  16.177   0.347  0.1766 -0.1654 -0.3449
25751W        W41825  10.695   6.738   1.871  0.3555 -0.1672  0.3584
25752W        W41826  18.215   0.281  11.905 -0.3690 -0.1403 -0.0837
25753W        W41827  10.057   3.357   5.841 -0.0122  0.1132 -0.0028
25754W        W41828   6.356   8.938  15.214  0.0951 -0.0610  0.1763
25755W        W41829   1.690   3.897  13.723  0.0984  0.1396  0.1934
25756W        W41830   5.601  16.660  15.071 -0.2838  0.1522  0.0971
25757W        W41831   2.005  17.210  11.469  0.3909  0.0622  0.2585
25758W        W41832  16.231   7.561   1.073  0.1440  0.1786  0.3933
25759W        W41833  12.261   0.378  11.375  0.2215 -0.1745 -0.2949
25760W        W41834   8.811   6.737  12.533 -0.2843  0.0536 -0.0412
25761W        W41835   2.742   8.884   4.969  0.3470  0.1128  0.1405
25762W        W41836   0.903  17.297  13.745 -0.1324  0.1881 -0.4091
25763W        W41837   8.204  10.590  15.420 -0.0560  0.0772  0.2663
25764W        W41838  15.395  14.305  13.691 -0.0949 -0.1728  0.1887
25765W        W41839  10.165   4.422  13.288  0.0426 -0.0059  0.1991
25766W        W41840  15.157   6.635  11.576  0.2317  0.2382 -0.2025
25767W        W41841   4.759  15.407  15.423  0.1021 -0.0102 -0.1439
25768W        W41842   4.268   2.217  15.972 -0.0932 -0.0019 -0.0214
25769W        W41843   9.093   1.708  14.924  0.0894  0.0464 -0.3495
25770W        W41844   0.614  16.604  12.415  0.1806  0.1768 -0.3950
25771W        W41845  13.095   8.320   2.441 -0.1378  0.0120 -0.4667
25772W        W41846   8.290   8.973   5.712  0.1933 -0.2443 -0.0529
25773W        W41847  16.079   2.171  11.622 -0.1087 -0.0956  0.1113
25774W        W41848   6.125   8.569   2.026  0.0891  0.1364  0.0950
25775W        W41849  10.762  18.263  15.538  0.1052 -0.0482  0.3199
25776W        W41850  11.888   2.758  15.538  0.2519  0.1707  0.0854
25777W        W41851  13.833   2.400  14.582 -0.0624  0.0021  0.2550
25778W        W41852  11.838   9.421   2.863 -0.2485  0.1685 -0.1902
25779W        W41853   9.422  12.359  13.803  0.1944  0.0128  0.0010
25780W        W41854  18.128   6.173  13.127  0.1465  0.1341 -0.4089
25781W        W41855   1.500   7.162  13.967  0.0171 -0.0095  0.0712
25782W        W41856  17.420   2.741   0.874  0.2206  0.3083  0.1181
25783W        W41857  15.219   2.008   3.646  0.2493  0.1337  0.0943
25784W        W41858  16.766   9.916  13.594  0.4232  0.0719  0.1824
25785W        W41859   3.755   8.258   3.315  0.0116  0.0343 -0.3197
25786W        W41860   1.894  13.461   1.528  0.3333  0.0841  0.3017
25787W        W41861   5.963  14.511   4.560 -0.1550  0.1098  0.3318
25788W        W41862   0.028  12.718  12.025 -0.1840 -0.0494 -0.1112
25789W        W41863  11.601  13.637  16.268  0.1788  0.1376  0.3765
25790W        W41864   3.671   8.524  12.588  0.0695  0.1932  0.1238
25791W        W41865  14.223   3.543  15.632 -0.1028  0.1188 -0.2119
25792W        W41866  13.027  18.206  11.399  0.0810  0.0817 -0.2130
25793W        W41867   8.629   2.388  15.951  0.1871 -0.1720  0.0103
25794W        W41868   5.383  13.027  13.630  0.0596  0.3395 -0.1061
25795W        W41869   4.670  14.641  12.721 -0.2011 -0.0851 -0.1610
25796W        W41870   6.364   0.628  15.647 -0.1475  0.2123  0.0091
25797W        W41871  14.501   2.511  15.591 -0.5611 -0.0131  0.1291
25798W        W41872   4.837   4.130   4.948  0.1974  0.2367  0.0380
25799W        W41873   9.882  15.937  14.194  0.0410  0.0352 -0.0906
25800W        W41874   8.946   8.431   0.531 -0.0123 -0.0404  0.1720
25801W        W41875   9.483  15.659  15.459  0.0932 -0.1030 -0.0796
25802W        W41876  10.018  12.213   1.749 -0.1358  0.3117 -0.0043
25803W        W41877   9.112  12.826   0.668 -0.2041  0.1846 -0.3871
25804W        W41878   1.642  10.182   3.541 -0.0222  0.1539 -0.2699
25805W        W41879   4.673  13.281  11.917 -0.0075 -0.1160 -0.0963
25806W        W41880   8.463  10.992  12.701  0.0567  0.1156  0.1468
25807W        W41881  10.377  17.430  16.055 -0.1284 -0.2934  0.1596
25808W        W41882  14.264   3.531   5.672  0.1137 -0.0354  0.0165
25809W        W41883  17.318  15.399   3.993 -0.0134 -0.0660  0.1082
25810W        W41884  15.743  10.779  14.234 -0.0563  0.3323  0.0473
25811W        W41885  12.976  15.018   5.744 -0.0107 -0.1661  0.0706
25812W        W41886  16.562   9.943  12.740  0.1297  0.0176 -0.2932
25813W        W41887  14.471  16.606  12.414  0.0293  0.1333  0.4796
25814W        W41888   6.013  14.692  15.561  0.2835  0.1235  0.2073
25815W        W41889  10.429   5.121  12.472 -0.2119  0.2079 -0.0717
25816W        W41890   5.894   4.383  14.714 -0.0982 -0.0418  0.0116
25817W        W41891   2.345   0.843   1.338  0.2107  0.0080  0.1213
25818W        W41892  17.500   2.238  13.838 -0.0718 -0.2546 -0.0830
25819W        W41893   8.459   6.913   1.213 -0.1509 -0.2241  0.3257
25820W        W41894  14.979  13.822  12.401 -0.2215 -0.1342 -0.5697
25821W        W41895   9.510   2.564  13.272  0.1287  0.0714  0.1496
25822W        W41896   5.130   2.990  15.139  0.0006 -0.0483 -0.1361
25823W        W41897   2.650   2.162  12.298  0.0308 -0.2171  0.2155
25824W        W41898   1.973   9.156   2.966  0.1890 -0.0287  0.0285
25825W        W41899   8.649  16.410   1.480 -0.0984  0.2690  0.3674
25826W        W41900   9.705   0.835  16.012 -0.0406  0.1347  0.0722
25827W        W41901   4.258   4.078  12.739 -0.2779 -0.1144  0.1738
25828W        W41902   1.145   2.769   0.072  0.1142 -0.0269 -0.3345
25829W        W41903  12.675  16.316  12.426 -0.2869  0.1629  0.2408
25830W        W41904  17.828   9.482  13.003 -0.1298 -0.2529 -0.1642
25831W        W41905   8.998   8.257   2.869 -0.2203  0.1068  0.0527
25832W        W41906  10.666   8.017  13.315 -0.3191  0.2001  0.3346
25833W        W41907   3.541  16.239  15.806 -0.0649 -0.3264 -0.2313
25834W        W41908   5.229  11.267  12.229 -0.1326 -0.1704  0.1627
25835W        W41909  11.794   9.263   0.165  0.1597 -0.1255  0.2217
25836W        W41910  15.436   7.876  16.303  0.0656 -0.0749  0.0038
25837W        W41911   5.458  13.233   1.306  0.0255  0.0664  0.0154
25838W        W41912  15.198   1.468  12.703 -0.0535 -0.1294 -0.0732
25839W        W41913  17.744   9.350   5.037 -0.1560 -0.1240  0.1427
25840W        W41914   6.960   4.724  12.799 -0.2950  0.0967 -0.0932
25841W        W41915   5.200   0.311   2.941 -0.1515 -0.1273 -0.0293
25842W        W41916  12.172   6.532   1.612  0.0359 -0.1960 -0.0367
25843W        W41917  16.715  13.910  15.567  0.0383 -0.0833  0.3680
25844W        W41918   6.700  16.322   3.840 -0.0274 -0.1619  0.0421
25845W        W41919  14.267  18.188   3.845  0.3718 -0.1404 -0.2514
25846W        W41920  12.918   5.417  14.276  0.0121 -0.3449 -0.2593
25847W        W41921   2.637  10.664   2.318  0.2022  0.0491 -0.1881
25848W        W41922   6.117   8.396  14.211 -0.0435 -0.0592 -0.3963
25849W        W41923  14.969  12.795   0.864  0.0114 -0.1772  0.2813
25850W        W41924   2.487  11.785   0.710 -0.0241  0.2479 -0.4188
25851W        W41925  10.980   1.914  13.105  0.1243  0.1856 -0.1406
25852W        W41926  13.391  16.307   3.282 -0.1319 -0.0910 -0.0031
25853W        W41927   5.751  16.348  13.271  0.1974  0.1304 -0.1411
25854W        W41928   4.879  14.393  13.105  0.1463 -0.0043  0.0378
25855W        W41929  10.481  16.438   1.074  0.0858  0.2151 -0.1354
25856W        W41930   7.236   3.364  13.186 -0.0089 -0.0526  0.3893
25857W        W41931  16.586   4.617   3.319  0.3628 -0.4149 -0.0986
25858W        W41932   1.961   3.536  12.861  0.0676 -0.2042  0.1230
25859W        W41933   6.813  11.437  15.532  0.0593  0.1345 -0.1385
25860W        W41934   6.860  12.562   2.428 -0.0288  0.0913  0.1161
25861W        W41935  15.218   2.921  15.950 -0.1423 -0.0242 -0.5232
25862W        W41936   6.122  10.175  14.400  0.3704  0.0874  0.0255
25863W        W41937   7.879  17.941  11.914 -0.0787 -0.2180  0.0702
25864W        W41938  17.891   3.981   6.482  0.2717 -0.0073  0.2209
25865W        W41939  14.129  17.471  16.229 -0.3278 -0.0919  0.3513
25866W        W41940   6.767   7.023   2.870  0.3733 -0.0981 -0.1638
25867W        W41941  12.120   0.255  14.087  0.0392  0.0104  0.1244
25868W        W41942   7.261  15.159  12.252 -0.1420 -0.3491 -0.0354
25869W        W41943   4.656  12.513   5.287 -0.1346  0.0000  0.3033
25870W        W41944  13.448   2.869  12.098  0.0314 -0.1260 -0.2025
25871W        W41945  16.629  17.795  14.078 -0.3153 -0.3393  0.0379
25872W        W41946   2.567   1.802   4.809 -0.1824 -0.1471 -0.0129
25873W        W41947  12.606   4.348  11.614  0.1275  0.0548  0.2720
25874W        W41948   1.224   5.834   2.714 -0.3072  0.1182 -0.4988
25875W        W41949  10.810   5.712  11.812 -0.0095 -0.2783 -0.2085
25876W        W41950  17.440   4.640   2.569 -0.3932  0.2671  0.1741
25877W        W41951  14.485   6.580   1.687 -0.2494 -0.0867 -0.1405
25878W        W41952  15.754  15.508   1.157 -0.1280 -0.1145  0.0524
25879W        W41953   8.768   1.756   3.239  0.0905 -0.1984  0.0761
25880W        W41954   9.404  10.679  12.343  0.0590  0.1763 -0.2153
25881W        W41955  15.123   7.511   3.779 -0.1358 -0.0024 -0.0283
25882W        W41956  11.750   3.739  13.561 -0.1333  0.1483  0.0383
25883W        W41957   9.480  17.927   1.300  0.0079 -0.2383 -0.0385
25884W        W41958   8.038   2.798  14.969 -0.2064 -0.0701  0.0708
25885W        W41959   2.567  14.587  13.426 -0.2876  0.1360  0.0021
25886W        W41960   6.282  11.076   1.814  0.1095 -0.1250  0.0514
25887W        W41961   6.862   6.789  14.051 -0.1213  0.2025 -0.1570
25888W        W41962  13.442   7.375   1.117  0.1461 -0.1507  0.2022
25889W        W41963   3.372  13.121   3.844  0.1895 -0.2368 -0.0375
25890W        W41964  16.443  12.802   5.507 -0.1992  0.0545  0.0563
25891W        W41965   5.871   8.109   1.334 -0.0082  0.3161  0.0265
25892W        W41966   4.254  16.538  15.299  0.2821 -0.3335  0.0051
25893W        W41967   0.263  17.839  13.801 -0.0276 -0.0624  0.0830
25894W        W41968  11.353   5.698   3.362 -0.1531 -0.1370  0.0436
25895W        W41969   4.125   0.516   1.532 -0.0222 -0.1583 -0.0415
25896W        W41970  15.654  11.738   4.258 -0.3501  0.1650  0.1241
25897W        W41971  13.824  12.927  15.860 -0.2126  0.1165 -0.1084
25898W        W41972   0.384  13.266   3.116 -0.0935 -0.0087  0.1106
25899W        W41973  12.691   3.785   4.375 -0.1332 -0.3854  0.1283
25900W        W41974   3.825   6.106   0.421 -0.2157 -0.2371 -0.0273
25901W        W41975  10.207  12.726  13.887 -0.0331 -0.1567 -0.0748
25902W        W41976   7.737   6.912  14.458 -0.2967  0.0768 -0.2908
25903W        W41977   7.808  12.860   4.672  0.3325  0.0622 -0.2601
25904W        W41978   9.233   4.105   1.640  0.0706  0.0346  0.1070
25905W        W41979   3.114   6.381  14.125  0.0651 -0.2044 -0.0372
25906W        W41980  17.997  12.446  14.056 -0.1055  0.0408  0.2439
25907W        W41981  15.640  15.870  15.332  0.2584  0.0034 -0.0276
25908W        W41982   1.739  10.717   5.390 -0.1909 -0.1725 -0.2210
25909W        W41983  11.975  15.982   5.675  0.0400  0.1371 -0.3078
25910W        W41984   5.600  10.671   2.200 -0.2103  0.0393 -0.2699
25911W        W41985   5.200  18.159   0.069  0.0304  0.0857  0.0605
25912W        W41986  16.203   4.797   0.006 -0.1879 -0.1290 -0.1504
25913W        W41987  10.350   5.157   4.747  0.1482  0.0727  0.2221
25914W        W41988  10.802  12.853   2.832 -0.1704  0.3147 -0.1360
25915W        W41989  11.184   1.000  12.892  0.1589 -0.2656 -0.1364
25916W        W41990  16.289   6.845  14.294 -0.3808  0.0638 -0.1660
25917W        W41991  14.927  18.123  16.191  0.1183  0.1889 -0.1467
25918W        W41992   6.586   6.972  12.773  0.2417  0.1277 -0.1286
25919W        W41993  13.553  18.283  14.398 -0.0456  0.0317  0.3386
25920W        W41994  16.912  12.148   3.670  0.0626 -0.1681  0.1091
25921W        W41995  12.846   1.074   1.567  0.3416  0.1933  0.0760
25922W        W41996   3.299  15.502   5.270 -0.3685  0.0814  0.1189
25923W        W41997   3.987   5.642   4.989  0.0500  0.1670 -0.3621
25924W        W41998  10.342   3.080  10.438  0.0764  0.3077  0.3527
25925W        W41999   4.250   0.084  12.981  0.1361  0.0403  0.0642
25926W        W42000  16.117  13.708   1.089  0.0154 -0.0802  0.0558
25927W        W42001  15.951  13.470   4.096 -0.4208 -0.3809 -0.2046
25928W        W42002   7.910  11.385  16.360  0.1162 -0.1858 -0.0863
25929W        W42003  17.725   5.047   2.667  0.0293  0.1043  0.1138
25930W        W42004   4.663  14.111   5.049 -0.1831 -0.0979  0.1158
25931W        W42005   7.734  16.655   4.592 -0.3070 -0.0573 -0.5242
25932W        W42006   6.493   5.501  11.220  0.2207 -0.2274 -0.3335
25933W        W42007   7.531  15.197   0.003 -0.0955  0.0097  0.0756
25934W        W42008   0.994  13.604   0.269 -0.4603  0.1624  0.1234
25935W        W42009  11.694  16.708  13.814  0.1234  0.0188  0.0602
25936W        W42010   3.458  14.307   0.010  0.0838  0.1340 -0.3125
25937W        W42011  15.022  15.648  13.450 -0.0471  0.2926 -0.0904
25938W        W42012  16.460  11.968  11.842  0.1829 -0.1340 -0.0925
25939W        W42013  18.253   7.478  13.336 -0.1019 -0.1141  0.0589
25940W        W42014   4.731  17.867  13.209 -0.3255 -0.2244  0.2262
25941W        W42015   4.477  18.072   5.227 -0.2509 -0.0237 -0.3229
25942W        W42016  13.861   6.070   2.706 -0.1447 -0.0277 -0.1258
25943W        W42017  11.710  13.537   4.367  0.0824 -0.1351  0.1282
25944W        W42018  16.282   0.399  14.054 -0.3036  0.0616 -0.3052
25945W        W42019   1.382  17.955  13.636  0.2106 -0.0293  0.3115
25946W        W42020   9.404   9.573  11.235  0.1239  0.2970 -0.1123
25947W        W42021  15.530   5.301  14.874  0.3640  0.0745 -0.0635
25948W        W42022   1.502   1.428  12.891 -0.0184  0.2528 -0.1271
25949W        W42023   2.047   1.705  12.786  0.1257  0.3433 -0.0393
25950W        W42024   5.023  12.416   1.286 -0.0852  0.0266 -0.1632
25951W        W42025   1.389  13.018  15.213  0.1063 -0.0476 -0.1082
25952W        W42026  12.212   9.575  14.961  0.1218  0.1977 -0.2922
25953W        W42027   0.022   9.032   0.467  0.0625 -0.2892  0.0829
25954W        W42028   7.846   0.880  13.196  0.2319 -0.0058 -0.4102
25955W        W42029   1.752   6.392  14.288 -0.0708  0.0396 -0.0764
25956W        W42030   7.694   0.886   4.359 -0.1734  0.2545 -0.1581
25957W        W42031   0.815  14.591  13.837 -0.0516  0.0023  0.1492
25958W        W42032   8.340   1.555  14.969 -0.1859 -0.0652  0.2262
25959W        W42033   6.395  13.181  13.364 -0.0700 -0.3140  0.0956
25960W        W42034  18.214   5.928   0.887 -0.2696  0.2728 -0.2521
25961W        W42035  11.272   9.957   3.366  0.2587 -0.0869  0.0389
25962W        W42036  14.404   8.322   1.987  0.0144  0.1825  0.1532
25963W        W42037   9.836  11.179  15.882 -0.1570  0.1227  0.0155
25964W        W42038  11.570   0.695  14.635  0.1991 -0.1659 -0.0977
25965W        W42039  18.263   8.986   3.848  0.0416 -0.0327  0.1833
25966W        W42040   1.399   7.390   0.489  0.0891  0.0224 -0.0567
25967W        W42041   4.324   3.050   4.265  0.0715  0.0874  0.2926
25968W        W42042  12.559   1.598  14.065  0.0735  0.0167  0.1660
25969W        W42043  17.163  13.129  11.482  0.0098 -0.2333 -0.2739
25970W        W42044  12.525  11.348   4.538 -0.0210 -0.0578 -0.4264
25971W        W42045  18.077   0.690   1.892 -0.1277 -0.0068 -0.4824
25972W        W42046   7.119  16.462   1.571 -0.1051  0.1787  0.0046
25973W        W42047   8.919   9.279  11.254 -0.0085  0.0559  0.2821
25974W        W42048  15.331  11.928  15.994  0.0058 -0.1702  0.1490
25975W        W42049   6.725  13.414   4.896 -0.0676  0.4144 -0.1310
25976W        W42050  13.610   6.475  12.843  0.0455 -0.1962 -0.0679
25977W        W42051  15.875  12.258  15.230  0.2128 -0.0775 -0.0300
25978W        W42052   5.342   7.769  12.999  0.2150 -0.1305 -0.0345
25979W        W42053  17.484   0.257  14.880 -0.0758  0.1288 -0.2090
25980W        W42054  11.771   9.195   1.896  0.2031 -0.4183 -0.0267
25981W        W42055   6.991   8.424  11.603 -0.1076  0.1854 -0.0475
25982W        W42056   4.023   5.400   4.059 -0.1955 -0.3597 -0.2433
25983W        W42057  11.394   2.058   1.572 -0.1396 -0.0645  0.2606
25984W        W42058   4.570  10.647  11.164 -0.0682 -0.2251 -0.0594
25985W        W42059  16.520   9.763  11.212 -0.0609 -0.1434 -0.2306
25986W        W42060  12.468   6.345  12.539 -0.0497 -0.0352  0.0070
25987W        W42061  17.526  12.534   4.271  0.1902  0.3786  0.2520
25988W        W42062   7.885  17.092   1.571  0.1105 -0.1962  0.1945
25989W        W42063   5.525   0.647   2.575 -0.0259 -0.1673  0.0630
25990W        W42064  12.820  11.731   0.583 -0.1582 -0.0590 -0.3092
25991W        W42065  13.279   5.660   4.014  0.1898  0.0238 -0.4283
25992W        W42066  17.514  12.130   4.554 -0.1170  0.1696 -0.4656
25993W        W42067  10.979   4.744  15.513  0.0045 -0.1916  0.1144
25994W        W42068  12.474  17.643  12.525 -0.0178  0.0272 -0.2035
25995W        W42069  16.296  13.668   5.984  0.3399  0.1646 -0.2367
25996W        W42070  11.262  17.015   2.543 -0.2146  0.0659  0.1437
25997W        W42071  17.532  13.166   3.088  0.2296  0.2668  0.0638
25998W        W42072  12.092   3.313   1.793  0.3779 -0.2626  0.1292
25999W        W42073   4.226  18.066  13.337  0.0631 -0.2640  0.1949
26000W        W42074   0.763   4.788   1.067  0.2416  0.1572  0.0201
26001W        W42075   7.730   5.384   5.286 -0.1734 -0.1693  0.1965
26002W        W42076   7.935  16.321   3.865 -0.1761  0.2672  0.0096
26003W        W42077   7.431  12.289   5.514  0.0232  0.1126  0.1014
26004W        W42078   5.808  11.135   0.943  0.1019  0.3572 -0.1678
26005W        W42079   5.632   1.768  14.461  0.0884 -0.1797  0.3980
26006W        W42080   3.693  13.046  12.741 -0.0918 -0.0084 -0.0581
26007W        W42081   3.195   0.078   5.741 -0.0580  0.0014  0.1234
26008W        W42082  11.333   4.552  14.531 -0.0136  0.4756  0.0691
26009W        W42083  10.990   0.294  12.255 -0.1696  0.0690  0.0635
26010W        W42084  17.288  18.109   2.143  0.3425  0.4162 -0.0077
26011W        W42085  15.066   3.421  14.703 -0.0838 -0.0109  0.1207
26012W        W42086   8.810   0.068  11.769 -0.1046 -0.0196 -0.0711
26013W        W42087  12.266   7.578   3.441 -0.1201 -0.0028 -0.1783
26014W        W42088  15.442   0.296  14.470  0.1060  0.0142  0.1020
26015W        W42089   3.460   7.945  14.199 -0.3853  0.0088  0.1119
26016W        W42090   0.795  13.420   4.963  0.1668  0.0500  0.1335
26017W        W42091   6.268   7.589   0.632 -0.1511 -0.2409 -0.1564
26018W        W42092   7.793   8.902  12.814 -0.0510  0.0725 -0.1546
26019W        W42093   9.257   7.258  14.711 -0.0747 -0.1187 -0.2010
26020W        W42094  11.574   0.600  11.616  0.0955  0.1391 -0.3664
26021W        W42095   7.909   8.654  15.504  0.1744 -0.1485 -0.1822
26022W        W42096   3.544   0.379  13.351  0.0447 -0.1629 -0.0654
26023W        W42097  14.796   4.956  14.606  0.0463 -0.0394  0.2120
26024W        W42098  13.753   6.578   4.001  0.1636  0.1977  0.0710
26025W        W42099  14.267  11.747   1.299 -0.1991 -0.4518  0.0332
26026W        W42100   6.438   0.702   4.634  0.0384 -0.0197 -0.2079
26027W        W42101  16.428   9.157   4.807 -0.1226 -0.0421 -0.1400
26028W        W42102   4.568   3.301   4.646 -0.0698 -0.0101 -0.0901
26029W        W42103  16.256   8.958  12.162 -0.3698 -0.0143  0.2187
26030W        W42104  14.201  10.095   0.573  0.1207 -0.1660 -0.2109
26031W        W42105  11.102   4.349   0.752  0.0556 -0.3258  0.3759
26032W        W42106  14.681   2.650  11.780 -0.2606  0.2235 -0.1369
26033W        W42107  13.579   1.139  13.807 -0.0924 -0.2778  0.0633
26034W        W42108  11.908   6.389  14.083  0.1271  0.1316  0.4195
26035W        W42109   2.314   1.754   0.194 -0.0954 -0.2354 -0.2852
26036W        W42110   4.101  11.772  13.319  0.0684 -0.2349  0.0000
26037W        W42111  10.494   3.450  13.030 -0.1696 -0.1642  0.1017
26038W        W42112  14.005  10.664   3.514 -0.0149  0.0345 -0.0501
26039W        W42113   4.000   4.785  15.598 -0.2486 -0.1768  0.2228
26040W        W42114  15.547  10.932  14.895 -0.1637 -0.1474  0.1151
26041W        W42115  14.388   6.147  13.461  0.2916  0.2616  0.1003
26042W        W42116  14.613   9.901   2.634 -0.2086 -0.4097 -0.0743
26043W        W42117  12.994  12.633   0.301  0.1506 -0.3734 -0.0497
26044W        W42118   8.159   7.321   2.351 -0.0016  0.1248 -0.0018
26045W        W42119  14.117  14.146  15.455 -0.1009 -0.1413 -0.1523
26046W        W42120   4.265  10.580   1.921 -0.2064 -0.1922  0.4811
26047W        W42121  14.960  10.816   5.531  0.1963  0.0656  0.3454
26048W        W42122   8.881  12.942   6.609 -0.1818 -0.3461  0.0764
26049W        W42123  15.072   7.576  11.758  0.4915 -0.1324 -0.2410
26050W        W42124   7.290   5.211  12.340 -0.0284 -0.0197  0.1001
26051W        W42125   4.241   8.341   0.748  0.3757 -0.4963 -0.0263
26052W        W42126  14.100   0.943  13.658  0.1222  0.0541 -0.0811
26053W        W42127  10.100   2.375  11.271  0.1245  0.4865 -0.0083
26054W        W42128  14.785   6.425   2.231 -0.2028  0.2443 -0.1576
26055W        W42129  15.790   6.260  12.490 -0.3861  0.3133 -0.1290
26056W        W42130  17.828   6.550  14.717 -0.3754  0.1192  0.0174
26057W        W42131   5.035   0.779   2.614 -0.0287  0.2643 -0.0653
26058W        W42132  13.311  14.085   0.223 -0.0329 -0.1661 -0.0031
26059W        W42133  16.247   5.976   3.453 -0.2114 -0.0995 -0.3130
26060W        W42134   3.992  16.648   0.564 -0.3600  0.1806  0.2163
26061W        W42135   4.365  14.178  12.814  0.0294  0.3115  0.0064
26062W        W42136   1.200  15.137   4.406 -0.0265  0.0337 -0.0008
26063W        W42137   1.338   0.443   2.559  0.0846 -0.1968  0.1477
26064W        W42138  13.935   0.609   1.239  0.1365 -0.0566 -0.2120
26065W        W42139   5.603  10.614   1.504  0.0459 -0.1420  0.2387
26066W        W42140   0.394  10.062   5.497  0.0024  0.0950  0.2773
26067W        W42141   0.589   0.162  13.876 -0.4137 -0.1646  0.0615
26068W        W42142   2.965   4.476  15.319  0.2535 -0.0537  0.1739
26069W        W42143   9.357   3.934  12.226  0.0507  0.1644 -0.1737
26070W        W42144   5.355   2.771  14.282  0.0399 -0.0188 -0.1225
26071W        W42145  14.416  10.005  12.507  0.0256  0.0280  0.3797
26072W        W42146  16.354   3.458  11.839 -0.1662 -0.2182 -0.1199
26073W        W42147   4.051   3.316  13.060 -0.2735 -0.1309  0.0807
26074W        W42148   3.352  11.289  13.344 -0.1535  0.1560 -0.2011
26075W        W42149   3.903   7.132  15.141 -0.0216 -0.1031 -0.0284
26076W        W42150   2.734   0.127  13.057 -0.1782 -0.2366  0.0214
26077W        W42151  14.089  12.549   3.980  0.1666  0.1516 -0.1020
26078W        W42152  12.484  16.161   2.682 -0.0277 -0.0404 -0.0462
26079W        W42153   3.828  16.456  14.407 -0.0661 -0.2028  0.3112
26080W        W42154  12.848  13.805   1.942  0.0779 -0.0596 -0.1380
26081W        W42155   5.776  11.979   6.222 -0.2120  0.2837  0.1787
26082W        W42156   4.080   8.481  12.173 -0.0349  0.1213 -0.1076
26083W        W42157  17.425  17.685   4.756 -0.2690 -0.0824 -0.1047
26084W        W42158   3.809   7.762   3.410  0.1174  0.0838  0.0012
26085W        W42159  15.497   6.436  14.223 -0.2220  0.0631  0.4918
26086W        W42160   3.066   5.896   1.649  0.0638  0.1791 -0.0633
26087W        W42161  18.202   5.062  11.672  0.1681 -0.2668  0.1246
26088W        W42162   5.451   9.837  15.093  0.1895 -0.0122  0.0855
26089W        W42163   1.127   3.507   0.862  0.1518 -0.1794 -0.0260
26090W        W42164   8.453  16.026   2.249  0.0681 -0.0176  0.1557
26091W        W42165  16.710   7.185   4.134 -0.3121  0.2304  0.0078
26092W        W42166   1.018  14.728  15.362  0.1912  0.3747 -0.2461
26093W        W42167   8.168  11.833  14.987 -0.1510 -0.2633  0.0035
26094W        W42168   7.575   7.586  16.300  0.1003 -0.1089  0.2662
26095W        W42169   7.366   3.316  11.769 -0.0042  0.1785  0.0856
26096W        W42170   7.463   7.294   5.188 -0.0861  0.1791  0.1763
26097W        W42171   9.933  11.267   0.598  0.1642 -0.0457  0.2421
26098W        W42172   8.208   5.509  12.125 -0.0815 -0.0037  0.1673
26099W        W42173   4.319   6.415   3.313  0.3365  0.0476 -0.0795
26100W        W42174  15.177  16.438   3.884 -0.2054  0.0275  0.1937
26101W        W42175  11.145  16.077   1.397  0.0978 -0.1089 -0.0453
26102W        W42176   1.732  14.235  13.481 -0.1166 -0.0168 -0.0678
26103W        W42177   3.335   5.218   5.501 -0.0321 -0.0636 -0.0335
26104W        W42178   4.229  14.632   2.031 -0.0690 -0.3048 -0.3653
26105W        W42179   2.586  16.142   1.413 -0.1832  0.0636 -0.2878
26106W        W42180   0.764   0.872   4.070 -0.1414 -0.2332  0.0528
26107W        W42181   1.231   9.545   0.635  0.0414  0.2113 -0.2075
26108W        W42182   3.589   9.302   4.360  0.0454  0.1446  0.0519
26109W        W42183   5.130   6.738   0.368 -0.2651  0.1490 -0.0564
26110W        W42184  13.399   2.451  16.001 -0.2418 -0.0390 -0.1582
26111W        W42185   8.119   9.539  14.142  0.0147 -0.3190  0.2117
26112W        W42186   0.405   7.953  15.430  0.1236  0.3421 -0.2224
26113W        W42187   2.985   5.691  14.641  0.2098 -0.4323 -0.3059
26114W        W42188   1.246  17.068   5.020  0.3488  0.0947 -0.0889
26115W        W42189   7.684  17.486  13.826 -0.4317  0.0357 -0.1069
26116W        W42190  17.288  12.798  14.114  0.3522 -0.1585 -0.1257
26117W        W42191   0.947  12.642   0.790  0.1136 -0.1500  0.2362
26118W        W42192   8.498  18.015   4.168 -0.1445 -0.2943  0.0371
26119W        W42193   6.700   9.201   0.981  0.1097  0.2397  0.1147
26120W        W42194  16.831   0.693   4.162 -0.0642  0.0604  0.2038
26121W        W42195  14.056  18.017  16.295  0.0149  0.1759  0.1058
26122W        W42196  10.071   2.779  13.885 -0.1087  0.1181 -0.0866
26123W        W42197   4.913  10.710   4.797  0.1901  0.1984  0.0172
26124W        W42198   1.567  15.813  12.662  0.2733  0.0835 -0.0799
26125W        W42199   3.580   4.573  15.909  0.1194 -0.1380 -0.2316
26126W        W42200  17.094  11.377  12.974  0.0910 -0.1961  0.3892
26127W        W42201  15.293  15.033  12.684 -0.2017 -0.1661  0.0519
26128W        W42202   0.148   8.406  13.689  0.2067  0.1410 -0.0587
26129W        W42203  16.733   4.545  12.092  0.1307  0.1782  0.2018
26130W        W42204   4.401   4.060  12.232  0.1595  0.0532 -0.2911
26131W        W42205   8.887   2.064  14.159  0.0119 -0.1935 -0.0482
26132W        W42206   3.658   7.609   1.181  0.1796  0.0785  0.2121
26133W        W42207   6.733   2.881  14.609  0.2355  0.0614  0.1104
26134W        W42208  14.176   4.004   0.120  0.4209  0.0632 -0.0206
26135W        W42209  18.304  15.059   1.775 -0.0836 -0.1717  0.2804
26136W        W42210  12.192   2.268   5.322  0.1583  0.2553  0.0481
26137W        W42211   1.782  15.704   5.632  0.0652  0.1182  0.1698
26138W        W42212  11.513  12.999  14.033 -0.3684 -0.1258  0.1233
26139W        W42213   9.003  16.518   3.071 -0.0821  0.2438  0.1861
26140W        W42214   4.535  14.592   4.276  0.5591  0.1982  0.2455
26141W        W42215  17.224   6.550   6.117  0.1884  0.0408 -0.0275
26142W        W42216   6.747  12.880  15.493  0.1212 -0.2661  0.0798
26143W        W42217  17.019  14.168  15.227  0.0128  0.0176  0.4997
26144W        W42218   8.962  18.101   2.428  0.1255  0.1246 -0.0798
26145W        W42219   2.300   0.275   2.874  0.0596 -0.0442 -0.0741
26146W        W42220  12.759   3.576  14.166 -0.0081 -0.0317  0.0272
26147W        W42221   0.255   1.781   6.696  0.0839 -0.4615 -0.2614
26148W        W42222  17.300  17.581   3.920  0.0824  0.1322 -0.1591
26149W        W42223  13.320  18.179   3.642 -0.0492 -0.0015 -0.0612
26150W        W42224  14.573   8.203   1.487  0.0984 -0.0412  0.2805
26151W        W42225  17.576   6.667   5.654 -0.2004  0.0620 -0.2387
26152W        W42226   0.720   2.221   4.301  0.0684  0.1863  0.3319
26153W        W42227   4.256   3.131   0.643  0.0183  0.1476  0.2481
26154W        W42228  15.351   5.944   1.451 -0.1576  0.0634 -0.0170
26155W        W42229   2.283  18.213   3.342  0.2443 -0.2654 -0.1922
26156W        W42230  11.904  18.181   2.087  0.0163 -0.2934  0.1141
26157W        W42231  11.535  15.759  15.026  0.0619 -0.1671 -0.1152
26158W        W42232  17.490   8.360   2.714 -0.0290 -0.0997 -0.0060
26159W        W42233  17.786  11.044  16.298  0.0237  0.3759  0.1232
26160W        W42234   7.840   1.912  10.900 -0.3376 -0.0291 -0.0302
26161W        W42235  15.464   8.469   3.923  0.1314  0.0547  0.3768
26162W        W42236  13.798  10.662  11.296  0.0545  0.0428  0.0801
26163W        W42237   1.841   9.547  13.404  0.0207  0.0369 -0.1719
26164W        W42238   4.173   1.945   1.119 -0.1210 -0.1572  0.0927
26165W        W42239   8.621  13.419  13.661 -0.0469  0.0369 -0.0319
26166W        W42240   4.856   0.740   3.078  0.0348  0.0647  0.1490
26167W        W42241   6.863   0.803   4.831  0.2975  0.0087 -0.1012
26168W        W42242   9.670   2.485   2.615  0.0847 -0.1726 -0.0924
26169W        W42243   2.283  16.370  16.120  0.0649  0.2125  0.0240
26170W        W42244   9.865   8.398   0.261  0.2079 -0.3561  0.2308
26171W        W42245   3.461   1.319   4.311  0.0203  0.2454 -0.1314
26172W        W42246  10.052  15.682  12.560 -0.4573 -0.0386 -0.1538
26173W        W42247   1.835   5.103  12.396 -0.0790  0.1353  0.1697
26174W        W42248   7.384  13.759  11.534 -0.0922  0.0962 -0.3581
26175W        W42249  13.358  16.033  13.956  0.1040 -0.1342 -0.2286
26176W        W42250   1.853  13.687  12.146 -0.0609  0.0132  0.0080
26177W        W42251   4.616   2.796   1.550  0.2849 -0.0753  0.0751
26178W        W42252   8.320   5.824   1.129 -0.3592  0.1450 -0.0376
26179W        W42253   4.466  12.200   3.711 -0.2189 -0.0835 -0.2202
26180W        W42254  11.500  12.358  11.438 -0.2745 -0.2611  0.0631
26181W        W42255  15.316   8.821   3.464  0.0069  0.1471 -0.1142
26182W        W42256  15.776  14.837   2.761  0.1667 -0.0188 -0.0848
26183W        W42257   9.511   7.882  13.748  0.1907  0.1161 -0.2684
26184W        W42258  10.762   7.682  13.742 -0.0827 -0.1572  0.1559
26185W        W42259  15.822   4.307  15.312  0.2372  0.0386  0.2974
26186W        W42260  15.910  12.873  12.995 -0.1921 -0.1561 -0.0437
26187W        W42261   0.257   7.673   1.274 -0.0334 -0.2629  0.0142
26188W        W42262   2.852  15.234   1.683 -0.0866  0.4231 -0.0293
26189W        W42263  11.813   7.335  12.058 -0.0137  0.0269 -0.2262
26190W        W42264   7.966  15.238  14.827 -0.3247 -0.1011 -0.0656
26191W        W42265  13.165  10.168  13.773 -0.1208  0.1758 -0.2251
26192W        W42266  15.299  11.803  14.689 -0.2984  0.0598  0.1328
26193W        W42267  13.516   6.782   0.135 -0.1617  0.2781  0.1159
26194W        W42268  16.280  16.903  13.761 -0.0820  0.2246 -0.2038
26195W        W42269   2.341  18.312  11.945 -0.1636  0.1197 -0.1242
26196W        W42270  10.473   2.585  13.534 -0.0359 -0.1933 -0.1448
26197W        W42271  17.490  12.713   5.270  0.0246 -0.0570 -0.0222
26198W        W42272  13.776   4.265  12.417  0.0056  0.1014 -0.1277
26199W        W42273   7.948   7.792  15.380  0.0214 -0.1950  0.1161
26200W        W42274   0.156   4.104  13.471 -0.0084 -0.0055  0.1615
26201W        W42275   2.530  12.586  12.416 -0.3195 -0.2085 -0.0726
26202W        W42276   9.375   5.389  11.518 -0.2198 -0.4202 -0.0940
26203W        W42277   3.206   9.655  11.299  0.3330  0.1843  0.0657
26204W        W42278  16.936   5.063   3.455  0.2303  0.0080 -0.0696
26205W        W42279   3.594  13.653  14.720 -0.1207  0.0220  0.1469
26206W        W42280   9.627   8.308  12.227  0.1873  0.1684 -0.0331
26207W        W42281   6.382   4.939  16.293 -0.2915 -0.1860  0.0568
26208W        W42282  13.301   9.390   0.403  0.2072  0.1905 -0.1151
26209W        W42283   9.394   0.185   4.348 -0.0773 -0.0696  0.2693
26210W        W42284  10.699  17.705   1.535 -0.0964 -0.0275 -0.5469
26211W        W42285   5.681   5.386  13.920 -0.1026 -0.0376  0.3534
26212W        W42286   8.117  11.883  12.997 -0.2144 -0.2901  0.1450
26213W        W42287  15.025  15.642   0.432  0.2270  0.1933 -0.1375
26214W        W42288   6.236   7.461  11.834 -0.0626  0.3773 -0.2526
26215W        W42289  10.444   8.282  11.702 -0.1846  0.1531  0.2057
26216W        W42290   1.028  13.064   0.335 -0.0525 -0.1653 -0.2204
26217W        W42291   4.034   7.226  16.022 -0.1078  0.1051  0.0911
26218W        W42292  15.797  17.534  14.584 -0.1066  0.0622 -0.2572
26219W        W42293   2.824  16.589   1.558 -0.2516  0.5636 -0.2812
26220W        W42294   0.333   9.734   0.010 -0.0581  0.2185 -0.3326
26221W        W42295  12.963   5.496  15.699  0.2188  0.4241 -0.5321
26222W        W42296   3.644   6.775   3.619 -0.3989  0.0253  0.0567
26223W        W42297   1.116  12.661  11.817  0.0604 -0.2838  0.3567
26224W        W42298   7.130  14.058   4.212 -0.3085  0.1345 -0.1724
26225W        W42299   5.122   5.612  13.061  0.0974 -0.0403 -0.0524
26226W        W42300  12.643   6.557   1.515 -0.2015  0.1537 -0.3323
26227W        W42301  10.948  13.788  15.961 -0.2504  0.0242 -0.0398
26228W        W42302   4.635   4.543   4.235 -0.0307 -0.1698 -0.1291
26229W        W42303  12.220   6.756   0.519  0.2178 -0.2801 -0.0570
26230W        W42304  10.470  13.004   1.489 -0.2700 -0.2097 -0.2627
26231W        W42305   3.258  14.758   0.099 -0.2888  0.1141 -0.1485
26232W        W42306  16.320  10.364   4.456 -0.0200 -0.2844 -0.1124
26233W        W42307  17.851   8.099   3.256  0.1556  0.0387  0.2292
26234W        W42308  10.003   6.398   2.506  0.0369  0.3139  0.1073
26235W        W42309  11.167  16.425  15.061  0.2806  0.0788 -0.2608
26236W        W42310   4.600   8.683   2.136 -0.3592 -0.1150  0.1217
26237W        W42311  11.619   6.648  14.370  0.3438 -0.1885  0.3010
26238W        W42312   8.067   9.746   4.449 -0.5043 -0.2627  0.1048
26239W        W42313  14.031   1.196  14.398 -0.0628  0.0484  0.2114
26240W        W42314   9.274  12.175  14.825 -0.2281  0.0182  0.0296
26241W        W42315  10.866  16.539   1.743  0.0263 -0.2616  0.0518
26242W        W42316   1.057   7.721  12.386 -0.1678  0.1479  0.2145
26243W        W42317   8.129   5.457  12.602 -0.3647  0.3375 -0.0941
26244W        W42318  15.888   5.177   2.896  0.0485 -0.0249 -0.2462
26245W        W42319  17.008  16.478  15.820  0.1977 -0.1307 -0.0003
26246W        W42320   1.769   8.202  11.386 -0.0573 -0.2336  0.0876
26247W        W42321  14.355  11.269   4.300 -0.3375  0.2070 -0.2199
26248W        W42322   6.140   0.325   0.839  0.0241 -0.0875  0.1710
26249W        W42323  15.605  15.208   1.718  0.0159 -0.1287  0.2965
26250W        W42324  11.848  13.594   5.422  0.3685  0.1324 -0.1185
26251W        W42325   2.042   5.527   1.036 -0.0053 -0.3865 -0.5138
26252W        W42326  12.790   5.292  15.043 -0.3465  0.1257  0.2414
26253W        W42327  11.500   3.240   0.194  0.1763  0.1754  0.0585
26254W        W42328  11.829  15.075   5.102 -0.0760 -0.1999  0.0151
26255W        W42329   9.358  16.187   4.816 -0.1385  0.2424  0.0078
26256W        W42330   3.597   0.437  12.053  0.0928 -0.4903  0.1371
26257W        W42331   3.430   7.440   3.012  0.1499 -0.0497  0.1385
26258W        W42332   2.258  15.803  16.187  0.2206  0.1484 -0.2978
26259W        W42333  12.953  12.466   2.036 -0.2554  0.0718  0.0466
26260W        W42334  16.970   0.995   4.535 -0.2647 -0.0415  0.4668
26261W        W42335   5.695  10.449   0.052 -0.0429 -0.1992 -0.2509
26262W        W42336  13.141   7.564   0.734  0.0837  0.1683  0.0164
26263W        W42337   9.483  14.626  13.737 -0.2105  0.0505 -0.2396
26264W        W42338   0.100   8.930   2.075 -0.1567  0.4122 -0.2869
26265W        W42339   2.478   5.294   5.664  0.0213  0.1076  0.0164
26266W        W42340  12.612   3.854  13.717  0.1739  0.3445 -0.1926
26267W        W42341   5.063   0.826  11.320  0.4141 -0.2660 -0.0181
26268W        W42342   9.501  11.509  15.625 -0.2509 -0.0161 -0.1500
26269W        W42343   7.040  16.558   5.129  0.0680 -0.0675 -0.0119
26270W        W42344  14.882   6.747  11.204  0.1167 -0.1866 -0.1076
26271W        W42345  11.014  18.141  12.276  0.2884 -0.3714 -0.3645
26272W        W42346   2.806   0.821  13.674 -0.0513 -0.0997 -0.1803
26273W        W42347   5.683  10.653   2.745 -0.4086  0.0560  0.0176
26274W        W42348  15.931   3.662  12.015  0.0592  0.1613 -0.2746
26275W        W42349   5.575  14.923  12.853  0.0980  0.4102 -0.1810
26276W        W42350  11.374  13.891  13.040 -0.1077  0.2071 -0.3949
26277W        W42351   7.196   9.709   1.604  0.0989  0.1848  0.1437
26278W        W42352  16.322   4.618  12.425  0.1416 -0.0261  0.1623
26279W        W42353   8.254   2.574   3.314 -0.2655 -0.3639 -0.1412
26280W        W42354   5.609   3.496   5.029 -0.1139  0.1969 -0.1758
26281W        W42355   9.985  16.769  15.647  0.0274  0.1855  0.4781
26282W        W42356   5.832  10.340  13.954 -0.1090  0.0952  0.2111
26283W        W42357   7.887   1.330   4.040  0.1482 -0.0817  0.1092
26284W        W42358  16.183  13.526   4.892 -0.0115 -0.1214  0.0650
26285W        W42359  14.724  11.749   2.960 -0.0045 -0.0451  0.1729
26286W        W42360  12.560  11.235   2.512 -0.1734 -0.2594 -0.4196
26287W        W42361   1.577   3.608   1.731  0.0911  0.0482 -0.3828
26288W        W42362   0.145   7.075   1.107  0.1669 -0.0062 -0.2747
26289W        W42363   6.515  10.916   2.785 -0.1851 -0.0823  0.1147
26290W        W42364  13.221   0.475   5.222 -0.0286 -0.0407 -0.2367
26291W        W42365  12.059   8.522  13.635 -0.3370 -0.2311 -0.0157
26292W        W42366   5.970   3.010   2.650 -0.1621  0.5090 -0.1201
26293W        W42367  13.722  11.204  13.367  0.1994 -0.1877 -0.4160
26294W        W42368  10.758   6.373  10.804  0.0423  0.1293  0.2201
26295W        W42369  12.595  12.964  16.308  0.0079  0.1649  0.3638
26296W        W42370   3.926  11.339   1.524 -0.0350  0.1013  0.1923
26297W        W42371  11.422   4.036  16.294 -0.2766 -0.0007  0.2944
26298W        W42372   3.499   6.184   1.608  0.5338  0.2046 -0.3476
26299W        W42373  16.208   7.297   4.061  0.1143 -0.0843  0.2912
26300W        W42374  14.312   6.472  11.581  0.5136 -0.0629 -0.0935
26301W        W42375   1.922   6.713   0.077  0.1892 -0.1155 -0.1196
26302W        W42376   2.327   4.529  12.088  0.0025  0.2447 -0.2726
26303W        W42377   7.352  15.300  11.721  0.0067  0.3731 -0.1055
26304W        W42378  17.846   4.536   0.785 -0.0863 -0.1391 -0.1371
26305W        W42379  16.365  13.240   1.180 -0.0134  0.0462 -0.3563
26306W        W42380  12.801   9.921  15.971 -0.1751  0.0193 -0.1927
26307W        W42381  10.345  13.735  15.322  0.1502  0.1525  0.1489
26308W        W42382   6.269  11.833  14.477  0.1097  0.0498  0.2252
26309W        W42383   8.667   4.087  13.848 -0.1379  0.2483  0.3041
26310W        W42384  14.442  15.638   0.213  0.0922 -0.0939  0.1217
26311W        W42385  14.039  12.603  16.230 -0.1435 -0.1053  0.0144
26312W        W42386  14.008  14.226  13.452  0.1066  0.2606  0.1892
26313W        W42387  11.702  10.824  15.499  0.0442  0.0040  0.0217
26314W        W42388   9.283  17.569   2.651  0.0450 -0.0528  0.1082
26315W        W42389   0.507   6.985  11.717 -0.0358  0.2073 -0.0036
26316W        W42390  13.119   0.063   1.690  0.0437 -0.2172  0.1121
26317W        W42391  16.595  14.804   5.669  0.0102 -0.0375  0.0044
26318W        W42392  15.716   7.279  13.989  0.0024  0.3439  0.2214
26319W        W42393   9.607  11.465  13.014  0.1373 -0.3892 -0.2070
26320W        W42394   9.960   4.870  10.507 -0.1649  0.0774 -0.0012
26321W        W42395   8.611   1.035   2.102 -0.1289 -0.0398  0.1010
26322W        W42396   5.876   0.687  11.556 -0.0816 -0.2554 -0.2098
26323W        W42397   2.737   0.453  14.553 -0.2008 -0.0991  0.0928
26324W        W42398  11.819  15.886   1.918  0.0479 -0.2073  0.0157
26325W        W42399  10.064   4.171   5.468 -0.3133 -0.4100  0.0757
26326W        W42400  12.780  10.119   4.348 -0.0688  0.0048 -0.0894
26327W        W42401  13.607  11.597  14.145 -0.0906  0.0874  0.2174
26328W        W42402  11.444   9.029  12.841 -0.0065  0.2001  0.0391
26329W        W42403   5.174  16.459   5.676 -0.3604  0.1357  0.1608
26330W        W42404   7.643   4.282   4.965  0.1675  0.1110  0.3640
26331W        W42405  15.281   8.374   5.086  0.1752  0.1023  0.1054
26332W        W42406  10.203  15.028  13.766 -0.0942 -0.2225  0.4695
26333W        W42407  16.257   3.442  16.227 -0.2161  0.2151  0.0191
26334W        W42408   9.430  11.433   0.654  0.2243  0.1164  0.3855
26335W        W42409  15.144   0.332   3.935 -0.0936 -0.0228 -0.0264
26336W        W42410   3.404   5.989   2.036 -0.1800 -0.1099 -0.0326
26337W        W42411  18.209   6.794   4.242  0.4159 -0.1834 -0.0807
26338W        W42412   0.864   3.014  13.717 -0.2594  0.3848  0.0372
26339W        W42413   9.985   7.783   1.086  0.0983  0.1292 -0.2149
26340W        W42414  11.716   5.055  13.679  0.1442 -0.3225  0.2430
26341W        W42415  15.662  16.577   3.804  0.2473  0.0795 -0.0601
26342W        W42416   1.056  16.011   2.037 -0.2655 -0.1717 -0.0812
26343W        W42417   5.587  10.726   3.458  0.1294  0.3549 -0.1082
26344W        W42418   0.186  15.240   2.532 -0.0978  0.1171 -0.1749
26345W        W42419  11.650   3.295  12.349  0.0163 -0.2614 -0.1906
26346W        W42420  16.749  14.248  16.282  0.3232  0.0759 -0.3376
26347W        W42421   0.018   4.775  15.493 -0.0619 -0.0231 -0.1521
26348W        W42422   4.087  10.746  13.656  0.0178  0.0507 -0.1763
26349W        W42423   6.536   3.287   6.086  0.0273 -0.2221 -0.1790
26350W        W42424  12.181   3.895  15.481 -0.1819  0.0967  0.2539
26351W        W42425   3.181  10.683   1.204 -0.3256 -0.1141  0.1972
26352W        W42426   6.387  13.296   3.691  0.0600 -0.1050  0.2282
26353W        W42427   6.228  18.133  15.821 -0.3435 -0.2690 -0.1764
26354W        W42428   9.444   3.444  12.180 -0.1947  0.2622  0.2362
26355W        W42429   9.103  17.269   1.767  0.0232  0.0442  0.0646
26356W        W42430  16.344  14.197  14.551  0.1241  0.3182  0.1139
26357W        W42431  12.773  17.463  16.375 -0.1428 -0.0905 -0.0458
26358W        W42432   5.362  12.467   3.923  0.0633 -0.3537  0.1360
26359W        W42433   0.346   7.216   4.107  0.0788  0.1501  0.0916
26360W        W42434   6.968  11.009   1.225  0.0681 -0.2103 -0.1349
26361W        W42435   1.592   5.637  13.501  0.1612 -0.0038 -0.2777
26362W        W42436  12.378   9.728  15.704  0.0124 -0.1590  0.1806
26363W        W42437   5.827   2.502  16.172 -0.3868 -0.0808  0.3205
26364W        W42438   3.397   8.417   2.975  0.1050  0.1888 -0.0826
26365W        W42439   9.916   6.922  10.638 -0.3115  0.0438 -0.1137
26366W        W42440   0.537   0.778  11.771 -0.0575 -0.2919  0.0915
26367W        W42441   6.298   6.403   2.569  0.3489 -0.0545 -0.2273
26368W        W42442  14.535   6.568   4.713 -0.2211 -0.1359  0.0354
26369W        W42443   9.324  14.049   4.228  0.0309 -0.3263  0.2046
26370W        W42444   2.836  16.382  15.376 -0.1251 -0.2489 -0.0460
26371W        W42445  11.282   4.212   4.387 -0.2120 -0.0853 -0.2416
26372W        W42446   7.469   4.396  12.148 -0.0182 -0.2040 -0.5011
26373W        W42447  17.469   8.979   5.321  0.3109 -0.0686  0.4216
26374W        W42448  15.855   0.111   2.030  0.0475  0.0649  0.0281
26375W        W42449   5.404   8.674   1.621  0.0115  0.1456  0.2638
26376W        W42450   3.379  12.276  15.546  0.1504 -0.0120  0.0364
26377W        W42451  10.174   6.507  12.720 -0.0493 -0.1638 -0.0549
26378W        W42452  16.740   2.157   5.738  0.3574  0.1161 -0.0122
26379W        W42453  18.181  12.116  15.498  0.2546 -0.2048 -0.3833
26380W        W42454  17.966   6.186  14.143  0.0938  0.5027 -0.2177
26381W        W42455  13.503   6.830  15.775  0.2962 -0.2163  0.5275
26382W        W42456  12.993   4.773   3.290  0.0851  0.0010 -0.2499
26383W        W42457  12.692  15.120  14.167 -0.0758  0.0328 -0.0317
26384W        W42458  16.511   6.915  15.438 -0.2243  0.0494 -0.0319
26385W        W42459   4.761   6.780  10.696 -0.1038 -0.2094  0.0559
26386W        W42460  16.424  11.798   4.584  0.1786 -0.0489 -0.0940
26387W        W42461   9.200  10.569  11.235 -0.0864 -0.1781 -0.2296
26388W        W42462   0.161   5.425  11.942 -0.1714  0.2714 -0.2006
26389W        W42463  14.299  10.435  12.336 -0.0740  0.0975  0.2272
26390W        W42464  17.899  18.083   2.077 -0.0171  0.0331  0.1982
26391W        W42465   9.757   9.602   5.293 -0.1859 -0.0492 -0.1378
26392W        W42466  13.317   6.510   2.096  0.1334  0.3703  0.4632
26393W        W42467   4.693   9.446  14.529 -0.0968 -0.1130 -0.0552
26394W        W42468  16.424  12.271   2.737 -0.1697 -0.1680 -0.1384
26395W        W42469  10.584   4.048  13.821  0.0826 -0.1848 -0.0458
26396W        W42470   3.994  11.082   3.238  0.0992 -0.0915  0.3384
26397W        W42471   3.454  16.872  13.629  0.0671 -0.0017 -0.1531
26398W        W42472   6.258  17.010   5.059  0.0717 -0.4736  0.1596
26399W        W42473   4.330   2.831   3.357  0.2524  0.2975 -0.0720
26400W        W42474   1.554  11.050   2.249  0.2765  0.0631 -0.1734
26401W        W42475  16.043  17.109  14.679 -0.1884  0.0717 -0.1788
26402W        W42476  15.396  12.285   5.345  0.2213  0.1600 -0.3190
26403W        W42477  15.626  17.981  14.358  0.3248  0.0976  0.2925
26404W        W42478   3.365  15.990   2.241  0.0626 -0.0555  0.1249
26405W        W42479   8.948   2.202  12.800  0.0534  0.0738 -0.0982
26406W        W42480  13.849  13.481   4.734  0.1345  0.0080  0.3134
26407W        W42481  10.210   0.167   5.389 -0.0020 -0.1037  0.0532
26408W        W42482   7.539   4.483  15.601 -0.1617 -0.0518  0.3547
26409W        W42483   9.349  10.116  11.354 -0.0069  0.3220  0.0499
26410W        W42484  14.058  10.794   2.592  0.1821  0.2832 -0.0595
26411W        W42485  12.314   6.328   5.409  0.0421  0.2768 -0.0741
26412W        W42486   5.634  15.297  14.729 -0.1100  0.3703  0.0269
26413W        W42487  18.089   3.556  16.145  0.1445  0.0360  0.4619
26414W        W42488   1.230  13.349   4.433 -0.1836  0.1201 -0.1426
26415W        W42489   4.508   5.828   3.154 -0.0028 -0.4642  0.3075
26416W        W42490  11.550   0.046   3.366  0.1260 -0.1759  0.2050
26417W        W42491  13.451  11.368   1.677 -0.2309  0.1243 -0.1003
26418W        W42492  13.539  12.033   4.264  0.0321  0.0982 -0.1910
26419W        W42493  11.479   6.686   1.419  0.0337  0.2990  0.2821
26420W        W42494  13.042   0.856   2.725 -0.0025 -0.0172 -0.2728
26421W        W42495  13.905   6.073   4.026  0.0801 -0.1292 -0.3625
26422W        W42496  10.087  16.707  11.053 -0.0365  0.2751  0.1530
26423W        W42497  12.225  10.383   4.384  0.1077 -0.0592 -0.1349
26424W        W42498  18.069  13.143   3.247 -0.1187 -0.0417  0.2065
26425W        W42499  10.347  13.900   4.365 -0.4522 -0.1092  0.2760
26426W        W42500   1.032  15.123  13.757 -0.2146 -0.1061 -0.0059
26427W        W42501  18.032  12.731   2.988  0.0481 -0.0429 -0.3399
26428W        W42502  12.821  13.866  15.762  0.0249 -0.2036 -0.0377
26429W        W42503   8.569  16.396  10.873 -0.3458 -0.1551 -0.1174
26430W        W42504  14.150   2.981  13.010  0.2849  0.0165  0.0194
26431W        W42505   5.213  15.931  14.288  0.1023 -0.1409  0.2632
26432W        W42506  12.359   6.888   3.551 -0.0000 -0.2898  0.3557
26433W        W42507   4.051   7.084  13.488  0.0312  0.0992  0.0263
26434W        W42508  10.157   3.593  13.363 -0.0014 -0.4883 -0.1760
26435W        W42509   4.063  15.475   0.692 -0.2625 -0.2671  0.0547
26436W        W42510   3.676   9.455  15.941  0.1654 -0.2612  0.1775
26437W        W42511   3.072  14.667   3.369  0.1186  0.1077 -0.0211
26438W        W42512   1.887   7.918   0.944 -0.2281 -0.3053 -0.1163
26439W        W42513   4.630  12.786   1.431  0.0625  0.0153 -0.1234
26440W        W42514   7.880  17.483  15.284 -0.1679  0.0838  0.0360
26441W        W42515  16.806   5.100  13.269 -0.2816  0.0853  0.0550
26442W        W42516   0.116  17.818   5.244 -0.0180  0.5022 -0.3681
26443W        W42517  14.583   5.150  13.139 -0.0838  0.0615  0.2323
26444W        W42518  10.668  16.961   3.767 -0.0927 -0.3453 -0.1273
26445W        W42519   8.240   5.036   6.031 -0.0246  0.0030  0.2301
26446W        W42520  12.616   6.476   3.590  0.0447 -0.3602 -0.1364
26447W        W42521   5.006  10.158  15.985 -0.0764 -0.2707 -0.2894
26448W        W42522  17.296   1.667   0.424 -0.2696  0.1185 -0.2488
26449W        W42523  13.800   0.690   2.097  0.1877  0.0255  0.0927
26450W        W42524  15.554   1.806   0.305 -0.1467  0.1539 -0.1351
26451W        W42525  17.758   6.832  13.167  0.2359  0.0550 -0.3323
26452W        W42526  12.911   7.165  12.839 -0.0430 -0.1952 -0.0206
26453W        W42527  10.435   8.682   2.399 -0.1402  0.0248  0.2350
26454W        W42528   1.228  11.035   3.166  0.3829 -0.1829 -0.0675
26455W        W42529   2.349  18.139   4.119 -0.0093 -0.0593  0.3842
26456W        W42530   0.643  17.607  11.955 -0.1637  0.0656 -0.1534
26457W        W42531   7.801  12.742   1.568  0.1777 -0.1241 -0.0841
26458W        W42532   5.810  11.568  14.487  0.2494  0.2506  0.2376
26459W        W42533   8.837  15.697   0.764 -0.0341 -0.1863 -0.0717
26460W        W42534   6.246  15.404   3.508 -0.1318  0.1850  0.2469
26461W        W42535  17.959  12.687   6.135  0.1676  0.1330 -0.2173
26462W        W42536   7.409   0.722   3.452 -0.3483  0.3188  0.1586
26463W        W42537  13.940   4.887  13.687  0.2825  0.1759 -0.1273
26464W        W42538  16.266   2.286   5.617  0.2000 -0.0649 -0.1967
26465W        W42539   8.773   5.307   2.978 -0.1213  0.0030 -0.0977
26466W        W42540   5.671  13.021  12.288 -0.1378 -0.1018 -0.1390
26467W        W42541   9.336   1.547   0.676  0.2495 -0.1127  0.3126
26468W        W42542  18.009  17.499   1.230 -0.3345  0.1204 -0.0968
26469W        W42543  11.367   3.396   3.974  0.0828  0.2553  0.3058
26470W        W42544   3.921  17.803   3.722 -0.0130  0.1319 -0.2889
26471W        W42545   9.787   1.044  14.218 -0.2287 -0.0550  0.0056
26472W        W42546   5.329   2.149  15.349  0.0036  0.1256  0.1962
26473W        W42547  18.214  17.184   3.772 -0.0283 -0.1037 -0.2196
26474W        W42548   8.174  11.501  15.910  0.1838 -0.0575  0.0895
26475W        W42549  15.803  18.222   2.472 -0.0428 -0.3931  0.2145
26476W        W42550  10.085   5.641   0.341  0.0025 -0.0036  0.0785
26477W        W42551  11.485   0.618   3.429 -0.5506 -0.3106  0.1619
26478W        W42552  17.992  16.702  13.738  0.1636 -0.0104  0.3904
26479W        W42553  16.487  16.752   3.834 -0.0001 -0.5763 -0.0814
26480W        W42554   5.437  17.647   6.019  0.1720  0.3944  0.0319
26481W        W42555   3.911  10.158  15.929 -0.1297 -0.2465 -0.1488
26482W        W42556  10.551   0.401  14.148  0.2073 -0.0069 -0.1225
26483W        W42557   5.211  15.584  15.871  0.2402  0.1402 -0.3174
26484W        W42558   8.770  10.157   0.368 -0.1357 -0.0236  0.1983
26485W        W42559  16.430   4.431  14.069  0.2350  0.0051  0.1551
26486W        W42560   4.363  15.593   3.725 -0.3871  0.1639 -0.2618
26487W        W42561  10.959  10.915  13.045 -0.0316 -0.3461  0.1811
26488W        W42562  13.062  14.807   1.021  0.1901 -0.0548  0.0184
26489W        W42563   4.342  10.270  16.200 -0.3387  0.1698  0.3115
26490W        W42564  16.373   6.140  14.866  0.1907 -0.0946 -0.0572
26491W        W42565   3.644   8.245  13.620  0.0598  0.1805 -0.0807
26492W        W42566   1.033  17.770  14.983  0.1168  0.2000 -0.0392
26493W        W42567  17.373   7.059  12.897 -0.1086  0.0590 -0.2747
26494W        W42568  18.018   2.920   3.742 -0.3351 -0.0395  0.1398
26495W        W42569  10.632  15.740   1.238  0.0546  0.3463 -0.2114
26496W        W42570   9.034   5.666  12.460  0.0037 -0.0667  0.2023
26497W        W42571   6.645  17.986   2.118 -0.1469  0.0407 -0.0691
26498W        W42572  10.726   5.662   1.293 -0.0535 -0.1915  0.0156
26499W        W42573   8.131  12.561   4.056 -0.1821  0.1316  0.3576
26500W        W42574   3.571   2.334   1.210  0.3163 -0.0675 -0.6316
26501W        W42575  16.788   9.025   3.481  0.1318 -0.0126  0.0668
26502W        W42576   0.642  12.873   1.818  0.1830 -0.2873 -0.0959
26503W        W42577   5.321  12.712   0.063  0.1619  0.1877 -0.1119
26504W        W42578  11.284   2.896  13.058  0.0260  0.0621 -0.0717
26505W        W42579  12.381   4.227   0.328 -0.0801 -0.0175 -0.0257
26506W        W42580   6.637   9.837  13.086 -0.1768 -0.1390  0.2463
26507W        W42581   4.694   0.506  16.219 -0.0369 -0.0018 -0.4125
26508W        W42582  11.367   6.210   5.645  0.0628 -0.1080  0.1938
26509W        W42583   7.618  18.294   0.382 -0.1255 -0.0023  0.3084
26510W        W42584   0.241   8.775  12.271  0.0158 -0.1071  0.4142
26511W        W42585  17.928   5.416   1.618  0.0621  0.1260  0.0812
26512W        W42586   1.067  10.450   1.779  0.1040  0.2641  0.0195
26513W        W42587   7.518   7.968   4.914 -0.0613 -0.1298  0.0149
26514W        W42588  12.447   7.960  14.390  0.0771 -0.0673 -0.0015
26515W        W42589  13.251   3.036   2.321  0.0278 -0.1977 -0.0171
26516W        W42590   5.790   5.022  11.261  0.0941  0.0722  0.2502
26517W        W42591   5.414   2.945   4.316  0.2722  0.3002 -0.1153
26518W        W42592   8.705  10.469   3.878 -0.1533 -0.0899 -0.1631
26519W        W42593   0.306  17.196   1.313  0.0459 -0.3644 -0.1604
26520W        W42594   1.114  12.085  15.838 -0.1279  0.0461  0.1578
26521W        W42595   6.302   4.541   1.377 -0.0248  0.1414 -0.0298
26522W        W42596  13.944  18.261   4.307  0.1808  0.0127 -0.0360
26523W        W42597  14.029  12.910   3.054 -0.0751 -0.1438  0.1421
26524W        W42598   2.982   9.425  14.357 -0.0667  0.0909  0.0362
26525W        W42599   9.326   3.529   3.677  0.2098  0.0505 -0.0541
26526W        W42600   2.294  16.713   1.718  0.1427  0.2770 -0.0730
26527W        W42601   9.421  15.324  14.329 -0.0675  0.1750  0.2905
26528W        W42602   8.174  10.515  14.070  0.1745 -0.4519 -0.0211
26529W        W42603  13.623  17.898   4.563  0.0635  0.2040 -0.2375
26530W        W42604   9.993  13.567  14.988 -0.2898  0.3151 -0.0647
26531W        W42605   0.588   0.514   3.665 -0.0651 -0.1157  0.2065
26532W        W42606  11.975  12.434   4.661 -0.4468  0.1903 -0.3845
26533W        W42607   0.364  12.519  12.410 -0.1462 -0.1192 -0.1051
26534W        W42608   1.796   9.081  11.201 -0.1180  0.1502 -0.0786
26535W        W42609  15.053  11.142   1.211  0.1213 -0.3311 -0.1351
26536W        W42610   3.475   2.450  12.487 -0.0359  0.1983 -0.0589
26537W        W42611  11.346   5.114  10.889  0.2613 -0.4769 -0.2066
26538W        W42612  13.605  15.255  15.042  0.0223 -0.0618  0.0629
26539W        W42613   9.870  10.822   2.222 -0.4568  0.2466 -0.0339
26540W        W42614   6.050   1.247   1.495  0.3036  0.2364  0.0383
26541W        W42615  17.159  14.589  11.019 -0.0074  0.1124 -0.4227
26542W        W42616  10.035  15.074   0.739  0.5069 -0.1260 -0.0165
26543W        W42617  10.041   7.009   5.912  0.1207  0.4299 -0.1004
26544W        W42618  15.110  13.500  13.867 -0.0634 -0.0976  0.0758
26545W        W42619  13.493   2.447  11.857  0.0149  0.1025  0.3918
26546W        W42620   0.981  12.127   4.862 -0.0405  0.0104 -0.0961
26547W        W42621   8.022   0.720  12.723  0.1750 -0.0226  0.0586
26548W        W42622   3.652  12.945   2.912 -0.3703  0.0016  0.1036
26549W        W42623   5.414   4.330  16.303  0.1194  0.1576  0.1033
26550W        W42624  18.168  12.279   3.104  0.1664  0.3480 -0.1482
26551W        W42625  16.152  11.349  12.624 -0.0988  0.3246  0.1294
26552W        W42626  11.398  11.596   1.672  0.0115 -0.0389  0.1274
26553W        W42627   8.286  14.300   0.069  0.0280  0.0422  0.1280
26554W        W42628   3.439  17.127  14.900  0.3090 -0.1288 -0.3762
26555W        W42629   2.580  17.268   3.872 -0.2211 -0.0950 -0.1266
26556W        W42630  15.596  18.055   1.749  0.1867  0.3256  0.3374
26557W        W42631  17.521  10.578   1.190  0.1907  0.1115 -0.0633
26558W        W42632   5.996   7.658   1.562  0.0964 -0.1324  0.3165
26559W        W42633  16.162  17.705   4.398 -0.1850 -0.0767  0.1533
26560W        W42634   9.570  15.733   4.876  0.0620  0.0995 -0.1337
26561W        W42635   8.113   1.725   1.742  0.2147 -0.2769 -0.0914
26562W        W42636   3.213  14.308   3.696 -0.0976  0.1385 -0.0118
26563W        W42637  16.072  12.940   3.142  0.1140 -0.2619  0.1668
26564W        W42638   9.179  16.503  15.220 -0.0467 -0.1038 -0.0318
26565W        W42639  17.032   4.618  10.702  0.1424  0.2731  0.1573
26566W        W42640   9.789  13.654   2.377 -0.2992 -0.3539 -0.2812
26567W        W42641  16.988  11.812   0.654  0.1162  0.2293 -0.1448
26568W        W42642   2.959   1.129   4.320  0.0552  0.0837  0.2320
26569W        W42643   2.170  18.055   4.906 -0.0401  0.1557 -0.1434
26570W        W42644   8.706   0.207   1.126  0.2189  0.1169 -0.2673
26571W        W42645  15.809  13.911   5.840 -0.0875 -0.0516 -0.0599
26572W        W42646   7.585   6.164  13.761  0.0397 -0.1208  0.2113
26573W        W42647   6.455   0.832  13.684 -0.2999  0.1092 -0.1068
26574W        W42648   4.727  13.021   5.329 -0.1218  0.0260 -0.1276
26575W        W42649   0.080  17.763   4.695  0.0354 -0.0838 -0.1095
26576W        W42650   1.090  16.636   4.723  0.0613  0.2372 -0.1494
26577W        W42651  14.703   2.537   2.279  0.2644 -0.0558  0.1558
26578W        W42652   2.760   7.471   0.363 -0.2718 -0.2043 -0.5020
26579W        W42653  16.724   7.543   0.133 -0.1277 -0.0523  0.2534
26580W        W42654   9.147   6.065   5.340 -0.1554  0.0261  0.3996
26581W        W42655   1.861   8.309   3.992 -0.0340  0.0467  0.0842
26582W        W42656  16.257  12.575  14.245  0.1449 -0.0359 -0.1585
26583W        W42657   5.805   2.035   1.877  0.1102  0.1961 -0.2970
26584W        W42658  17.130   5.324  14.828 -0.0982 -0.7207  0.0773
26585W        W42659  14.065  11.478   6.209 -0.0811  0.2619  0.2241
26586W        W42660   4.553   9.399  13.472 -0.4304 -0.3915 -0.1029
26587W        W42661  17.548   0.981   0.530  0.1981 -0.0081 -0.0375
26588W        W42662  13.146  10.698  15.476 -0.2057  0.1980 -0.0576
26589W        W42663   6.002  13.196   1.409 -0.1735 -0.0096 -0.0960
26590W        W42664  16.489   9.446   0.882 -0.0970 -0.2127  0.0274
26591W        W42665  15.095  12.338  12.358 -0.0106  0.0891 -0.0809
26592W        W42666  11.495   7.807   3.912  0.5643 -0.0335  0.1677
26593W        W42667   1.900   3.596   2.321  0.0585  0.0290 -0.0826
26594W        W42668  17.494  10.143  15.688  0.0603  0.3338  0.2209
26595W        W42669  17.083   8.590   1.091  0.1164  0.3780 -0.2865
26596W        W42670  12.085  12.427   0.437 -0.0706  0.0233  0.0464
26597W        W42671  17.371  17.661  15.436  0.0812 -0.0898 -0.1067
26598W        W42672   0.917  12.043   1.435  0.0645  0.1065 -0.1559
26599W        W42673  16.525   2.555   1.970 -0.0229  0.1774 -0.1491
26600W        W42674  17.158   6.513   0.089 -0.4843 -0.1611 -0.1682
26601W        W42675  17.484  12.441  13.833 -0.0895  0.2423 -0.0098
26602W        W42676  10.929  12.303  13.241  0.2106  0.0154  0.0345
26603W        W42677  10.356  14.919  14.926 -0.1554 -0.1657  0.0511
26604W        W42678  14.989  10.808   0.204 -0.1371 -0.0198 -0.1533
26605W        W42679  13.954  11.826   5.239  0.1488  0.2415 -0.1432
26606W        W42680   0.742   9.349   0.675 -0.0696 -0.2808  0.5729
26607W        W42681   6.071   4.213   2.056  0.0424  0.1420 -0.0646
26608W        W42682   8.266   7.793   2.119  0.1169  0.1359 -0.0548
26609W        W42683   3.775  16.031   2.499 -0.1609 -0.1154 -0.0087
26610W        W42684   0.931   2.471   1.713  0.0234  0.2267  0.2300
26611W        W42685  14.631   1.991   0.429  0.0055 -0.0927 -0.0571
26612W        W42686  16.650   3.669   3.905  0.1294  0.0301 -0.0368
26613W        W42687   3.178   1.502  12.036  0.0097 -0.1600 -0.0241
26614W        W42688   5.673  13.687   1.366  0.2024  0.0860 -0.0128
26615W        W42689   3.274  11.897   0.127 -0.0908 -0.2540 -0.0918
26616W        W42690  13.708  17.566   0.539 -0.0111  0.1461 -0.0643
26617W        W42691  17.813  10.679  12.456 -0.1301 -0.1764 -0.1043
26618W        W42692  16.563   7.022   3.717 -0.2475 -0.1914  0.1416
26619W        W42693   9.362  16.288  14.814 -0.1009 -0.0596  0.2767
26620W        W42694   4.058   1.830   4.036 -0.3537  0.1921 -0.2981
26621W        W42695  16.260  14.246   3.758 -0.3655  0.2895  0.0849
26622W        W42696  10.074  14.303   2.838  0.0831  0.2437  0.0874
26623W        W42697   6.155   1.704   2.435  0.1991  0.0622 -0.1986
26624W        W42698  11.440  14.804   4.795 -0.1262  0.1009  0.1615
26625W        W42699  11.303   4.863  12.936  0.2366  0.2073  0.0604
26626W        W42700   9.220   2.210   2.500 -0.0026 -0.0918 -0.0639
26627W        W42701  17.975  14.166   4.495 -0.1744  0.0296 -0.1107
26628W        W42702  10.074   0.783  15.630  0.0035  0.1091 -0.0923
26629W        W42703   6.905  14.320   1.387  0.0380 -0.1736 -0.2288
26630W        W42704   8.324  18.225   2.490 -0.1834 -0.1899  0.0343
26631W        W42705  15.988  15.826   6.125  0.0699 -0.0233 -0.1876
26632W        W42706  13.709   1.629   1.508  0.1559 -0.1751 -0.1047
26633W        W42707  17.887  16.668  14.767  0.0020 -0.0062 -0.0955
26634W        W42708  16.735   6.373   5.329 -0.1974 -0.0552  0.1427
26635W        W42709  16.940   4.718  15.805  0.2379  0.2171 -0.0091
26636W        W42710   9.187  13.152  16.308 -0.0092 -0.0019  0.1163
26637W        W42711   2.528   7.987  15.845 -0.3507  0.1414  0.3886
26638W        W42712  12.420  10.011   4.724  0.1762  0.2756  0.0654
26639W        W42713  10.249  16.166   1.570 -0.0065  0.1214 -0.2030
26640W        W42714   0.952   6.216  15.053  0.3534  0.3147 -0.1221
26641W        W42715   2.774   4.555   3.931 -0.1242 -0.1913  0.1399
26642W        W42716  16.923   8.725   5.448  0.1755 -0.1880 -0.0682
26643W        W42717  14.603  10.714  11.285 -0.5427  0.1402  0.0158
26644W        W42718   6.936   9.288  12.727 -0.0231  0.0258 -0.0479
26645W        W42719   6.935   5.269   3.404 -0.1308 -0.1241 -0.4037
26646W        W42720   8.602  18.161   2.081 -0.0145 -0.0426 -0.2922
26647W        W42721   5.273  14.553  15.032 -0.3900 -0.1345 -0.0480
26648W        W42722  12.860  11.421  12.424 -0.1324 -0.0818  0.1880
26649W        W42723   6.826   4.643  15.076  0.1677 -0.1951 -0.0954
26650W        W42724  18.303   1.070  12.470  0.0405  0.2845 -0.0178
26651W        W42725   3.531   6.066   3.398  0.0389  0.2150 -0.2138
26652W        W42726  13.722  10.667   0.517 -0.3290  0.1797 -0.4142
26653W        W42727  11.115  12.868  15.913 -0.3321  0.0413 -0.0393
26654W        W42728  18.099   2.281  13.444  0.0263  0.1851 -0.1203
26655W        W42729   1.714   6.956   3.711 -0.0149 -0.2126 -0.2919
26656W        W42730  17.305  11.129   4.915  0.1937  0.2283  0.6428
26657W        W42731   0.368   5.320   0.329  0.1194 -0.4862  0.0641
26658W        W42732   7.822   0.325  16.387  0.4225 -0.4053 -0.0179
26659W        W42733  12.793  15.548  15.348 -0.0332  0.2477  0.1452
26660W        W42734  10.889  18.148   2.860 -0.1519 -0.0472 -0.3041
26661W        W42735   2.793  10.827  10.538 -0.1449 -0.1452  0.0482
26662W        W42736   8.912  12.273  15.899 -0.1595 -0.2135 -0.2271
26663W        W42737   5.658   8.574   3.189  0.4927  0.2076 -0.0638
26664W        W42738   3.175  13.998  11.933  0.2930  0.0264  0.2857
26665W        W42739   3.205  14.009  16.089 -0.0265  0.0979 -0.1075
26666W        W42740   8.884   0.248  13.784  0.0639 -0.4758  0.0139
26667W        W42741   3.918  16.413   4.007 -0.1338 -0.0252 -0.1294
26668W        W42742  16.695   3.584   1.905 -0.2340 -0.0150 -0.1994
26669W        W42743  15.005  11.976   2.308  0.1792  0.3706  0.1746
26670W        W42744   9.571  11.839   2.978 -0.0895 -0.0718  0.1953
26671W        W42745  13.398   4.856  13.930  0.1063  0.1120  0.2985
26672W        W42746   5.170   3.576   2.295 -0.2382  0.2872 -0.1244
26673W        W42747  13.586   7.848  12.851  0.4309 -0.4549  0.0272
26674W        W42748   5.112   6.097   2.032  0.1964  0.2250 -0.2212
26675W        W42749  12.105  15.790   2.945  0.2060 -0.1463 -0.0206
26676W        W42750   9.672  15.195  13.832  0.2179  0.1937  0.0010
26677W        W42751   3.372   6.964   3.184 -0.2410  0.1924  0.4752
26678W        W42752  11.407   1.351  15.221  0.1577 -0.0194 -0.0861
26679W        W42753  13.674  12.445  13.167  0.3246  0.1651  0.2206
26680W        W42754   6.420  15.547  13.251  0.3056  0.0664 -0.1326
26681W        W42755  15.087   2.834   4.284  0.0451  0.1439  0.1690
26682W        W42756  18.254  10.982   0.731 -0.1337  0.0275 -0.0174
26683W        W42757  12.586  15.933  13.409  0.0202  0.0161  0.2434
26684W        W42758   6.217   3.496   3.936 -0.1551 -0.1336 -0.1899
26685W        W42759   0.451  17.339   0.857  0.1196 -0.2570  0.0773
26686W        W42760   3.022   1.348  13.602 -0.0594 -0.1144  0.5168
26687W        W42761   1.831  10.954   3.419  0.2519 -0.0833 -0.1094
26688W        W42762   3.278   5.249  12.839 -0.1468 -0.0703 -0.0697
26689W        W42763   3.102   4.480   1.086 -0.3433 -0.0626  0.0992
26690W        W42764   0.726  11.607  16.087  0.0809  0.1856  0.2612
26691W        W42765  16.627  14.941  13.780  0.1559 -0.0178  0.0624
26692W        W42766   2.212   9.417  11.951 -0.2382  0.1804  0.0188
26693W        W42767  13.350   6.958   4.181 -0.1022 -0.0957 -0.0727
26694W        W42768  11.714   3.894   0.272  0.1331  0.1022 -0.0421
26695W        W42769   0.679   2.005   4.809  0.0590  0.2278 -0.1679
26696W        W42770   8.265  11.025  14.033  0.0660 -0.0780  0.0512
26697W        W42771   4.956  14.066  12.695 -0.1510  0.0738  0.0730
26698W        W42772  11.085   2.935   1.621  0.0746  0.2011  0.1151
26699W        W42773  14.345   5.582  15.878 -0.5020 -0.0741  0.0147
26700W        W42774  17.077   4.073  11.557  0.1060 -0.0158  0.1651
26701W        W42775  15.034  10.138   4.264 -0.1591  0.2461 -0.1818
26702W        W42776  10.520   2.102  15.931  0.0193  0.2153 -0.0574
26703W        W42777   8.484   1.519  11.953 -0.0207 -0.0183  0.1993
26704W        W42778   2.622   5.636  11.218  0.0022  0.4766  0.1190
26705W        W42779   6.419  14.341   2.563 -0.0583  0.0925 -0.1925
26706W        W42780   4.045  17.026  15.445  0.0549 -0.1933  0.1397
26707W        W42781   3.540  17.311   5.441 -0.1474 -0.1064  0.0246
26708W        W42782   3.793   7.671  12.139  0.3485  0.0779  0.0378
26709W        W42783  17.871  11.608  16.310 -0.0673  0.0519  0.2692
26710W        W42784   0.534  10.108   2.586 -0.0473  0.2881  0.1292
26711W        W42785   9.048  13.254   3.400 -0.0707 -0.1785 -0.4095
26712W        W42786  14.870  12.928   5.933 -0.3060  0.0322 -0.0341
26713W        W42787  15.554   6.306   3.638 -0.1073 -0.0965 -0.1393
26714W        W42788  11.056  10.347   5.083 -0.2087  0.2163  0.0728
26715W        W42789   7.160   7.870  13.433 -0.3676  0.1629 -0.1398
26716W        W42790  11.733   3.346  13.860 -0.2403 -0.2193 -0.2282
26717W        W42791  16.726   3.808   3.397  0.0279  0.0860 -0.2174
26718W        W42792  14.915   2.817  13.690  0.2757 -0.0754  0.0005
26719W        W42793   4.308  11.761   2.923  0.1228 -0.1063 -0.2408
26720W        W42794  15.042   8.643  15.849 -0.0051  0.1951 -0.1575
26721W        W42795  13.555  13.122   1.268 -0.1324  0.1428 -0.0886
26722W        W42796   3.403   8.733  13.691 -0.2829 -0.0905 -0.1343
26723W        W42797  12.822  12.127   0.097 -0.0762 -0.2523  0.0724
26724W        W42798   6.657  14.914   0.887 -0.0153  0.1178 -0.3131
26725W        W42799   8.357   2.451   2.089  0.0518  0.0610 -0.0923
26726W        W42800  15.807  13.191  12.496 -0.0734  0.0766  0.1551
26727W        W42801  17.310   2.811  14.941 -0.1177  0.1503 -0.0865
26728W        W42802   0.315  16.457   2.671 -0.3294 -0.1370 -0.0107
26729W        W42803  18.249   3.328   1.959 -0.0377  0.0031  0.0364
26730W        W42804   3.673   4.843   4.684 -0.1707 -0.0268  0.2282
26731W        W42805   7.715  10.189   2.891 -0.5141 -0.0877  0.0876
26732W        W42806  12.848  15.847   2.920  0.1544 -0.1409  0.0475
26733W        W42807   0.254   4.968   5.451  0.0969  0.1853 -0.0525
26734W        W42808   9.249   0.756  14.074 -0.1503  0.2216 -0.1478
26735W        W42809   4.218   4.733  11.915 -0.4066 -0.0645  0.2073
26736W        W42810   2.502  12.616  15.498  0.0441 -0.0180 -0.0514
26737W        W42811  13.738   2.650  13.931 -0.1100 -0.4516 -0.1943
26738W        W42812   2.216   3.683   0.762  0.1136  0.1394  0.0154
26739W        W42813  17.976   1.087   2.150  0.3126 -0.0582  0.1410
26740W        W42814   3.939  16.020   0.229 -0.0012  0.1629  0.1153
26741W        W42815   1.616   2.842  15.666  0.1429  0.0898 -0.2037
26742W        W42816  15.550   4.240   2.633  0.1487  0.1074 -0.2294
26743W        W42817   8.968   3.729  11.919  0.0057 -0.2073  0.1652
26744W        W42818   7.677  13.627  15.613 -0.3275  0.0310 -0.4476
26745W        W42819  10.806  13.557   5.261 -0.0427  0.0570  0.1139
26746W        W42820  12.753  10.217   2.968 -0.0605  0.2482 -0.1842
26747W        W42821   8.716   7.206   5.359 -0.1372  0.2245  0.1341
26748W        W42822  10.635   0.928  12.137 -0.1811  0.2085  0.0912
26749W        W42823  15.919   7.457   1.460 -0.1991 -0.0559  0.1713
26750W        W42824   2.062   4.282   1.382  0.1632  0.0834 -0.1634
26751W        W42825   1.396   5.355   4.841 -0.0321  0.0034 -0.1499
26752W        W42826   0.380  17.347   4.724 -0.1278  0.0308 -0.1620
26753W        W42827   8.877  17.087  12.690  0.3098  0.3180 -0.1044
26754W        W42828   4.087   1.491   5.096 -0.0984  0.2986  0.1292
26755W        W42829  10.041  13.346  12.765 -0.1607 -0.0576 -0.0409
26756W        W42830   5.426   5.650   3.893  0.0903  0.1809 -0.0204
26757W        W42831  18.255  14.124   2.203 -0.4968  0.2108 -0.3638
26758W        W42832  16.680  16.486   2.776 -0.0576 -0.0256 -0.2007
26759W        W42833   6.057   1.451  13.347  0.0328  0.0338  0.1000
26760W        W42834   2.022   7.936  15.911  0.4176 -0.0944  0.0726
26761W        W42835  16.298   7.286  15.127 -0.2615 -0.0669  0.1253
26762W        W42836   4.573   3.798  15.346 -0.2973 -0.1150 -0.0401
26763W        W42837  10.891   3.992   1.507  0.0423 -0.1246  0.2067
26764W        W42838   1.033  18.320   0.756  0.1270 -0.2914 -0.2061
26765W        W42839  17.945   7.381  14.960  0.0189  0.0545 -0.1024
26766W        W42840  12.605   0.130   1.367 -0.1717  0.4056  0.1048
26767W        W42841   2.054  18.047  16.213  0.0212  0.0586  0.0651
26768W        W42842  12.424   8.489   3.713  0.3908 -0.3960  0.0273
26769W        W42843   8.626  12.565  14.762  0.0933  0.0757  0.0558
26770W        W42844   9.373  17.798  13.686 -0.0065 -0.1087 -0.3011
26771W        W42845  15.336   9.559   3.365 -0.1830 -0.0000 -0.1927
26772W        W42846  17.094   2.407  15.175 -0.1331  0.1034  0.2489
26773W        W42847  11.033  13.205  12.404  0.1034 -0.0057  0.1221
26774W        W42848   7.098  16.811  11.672  0.1879  0.0272 -0.1897
26775W        W42849   1.664   6.442  12.807  0.0406  0.2230  0.0775
26776W        W42850  11.906  13.164  11.232  0.3141  0.2094 -0.0640
26777W        W42851  17.537  12.897  11.117 -0.2059  0.3111 -0.1297
26778W        W42852  14.508  17.081  14.115  0.2208 -0.0595  0.0507
26779W        W42853   9.942   0.089  14.489 -0.2285 -0.2857 -0.2146
26780W        W42854   9.750   3.735   5.505 -0.3013 -0.0642 -0.2706
26781W        W42855  13.798  11.979  15.073  0.2060 -0.1212 -0.0174
26782W        W42856   1.519   8.322  12.942 -0.1836 -0.0780 -0.0894
26783W        W42857  10.861  16.978  16.062 -0.1761  0.1185 -0.1164
26784W        W42858   4.721   2.282  16.090 -0.0497  0.1128 -0.2562
26785W        W42859  13.825   8.506   5.454 -0.4575 -0.0196  0.0982
26786W        W42860  18.291   2.557  16.213 -0.0125  0.2332  0.2919
26787W        W42861   7.936   7.740  14.329  0.0945 -0.1230  0.0321
26788W        W42862   2.937   5.503  12.528 -0.1486 -0.4164 -0.2601
26789W        W42863   9.391   9.800   4.094 -0.1553  0.0406 -0.0890
26790W        W42864   3.666   4.082  12.532 -0.0447  0.0303  0.0777
26791W        W42865  16.561   0.037   0.909 -0.1367 -0.0606  0.0643
26792W        W42866   0.861  16.621   2.552  0.2233  0.0580 -0.4112
26793W        W42867   0.459   3.410   1.880 -0.2708  0.2062 -0.1054
26794W        W42868   2.890   6.698  14.740 -0.0010 -0.0002  0.0009
26795W        W42869   2.465  13.270  13.755 -0.0994 -0.0206  0.0232
26796W        W42870   3.218   2.686  11.260 -0.0866  0.1641 -0.0444
26797W        W42871  16.055   1.991  16.104  0.2530  0.1517  0.2964
26798W        W42872  17.298   0.251   2.010  0.0993 -0.2382 -0.0492
26799W        W42873  14.106  17.280  11.766  0.0521  0.0367  0.2244
26800W        W42874   1.162  11.649   5.027  0.1554 -0.0762  0.0928
26801W        W42875  10.540  18.043   4.835  0.1311  0.1451 -0.2182
26802W        W42876  10.372   2.998  11.388 -0.0995 -0.1014 -0.0102
26803W        W42877   6.643  17.192  14.813 -0.1934  0.2903 -0.1937
26804W        W42878   8.957  16.430   5.968  0.2768  0.2328 -0.0355
26805W        W42879  16.323  11.085  13.065 -0.1123  0.1069 -0.0836
26806W        W42880  16.449  12.496  13.509 -0.4156 -0.0577  0.0665
26807W        W42881   2.661  11.369  13.997  0.1810 -0.0213 -0.0105
26808W        W42882   1.693  12.223   4.574  0.3010  0.2300  0.2772
26809W        W42883   8.393   7.194   5.814  0.1040 -0.1069  0.1210
26810W        W42884   3.125   5.732   0.834  0.0918  0.1513 -0.0238
26811W        W42885   1.937  17.928   2.078 -0.1176  0.0050 -0.1845
26812W        W42886  10.294   0.649   4.889 -0.1998  0.1057  0.2519
26813W        W42887   3.532  12.182   1.994  0.1556  0.0126  0.1816
26814W        W42888   6.790  15.854   5.390 -0.0679  0.0161  0.0943
26815W        W42889   9.525  11.382  14.359  0.0527 -0.3092 -0.0696
26816W        W42890   2.728   8.623  12.218 -0.1630 -0.0530  0.2386
26817W        W42891  12.160  16.331   3.043  0.0362 -0.0526 -0.1469
26818W        W42892  10.635   5.641   0.439 -0.0173 -0.2313  0.1865
26819W        W42893   7.011  15.141  15.730  0.1205  0.0758  0.1488
26820W        W42894   7.243   0.429  10.986 -0.0812  0.0484  0.1600
26821W        W42895  15.867  11.135   4.573 -0.2043  0.1868  0.1947
26822W        W42896   9.422  16.040  15.928 -0.2633 -0.0334 -0.0098
26823W        W42897   5.398  12.461  11.093 -0.1039  0.2509  0.3101
26824W        W42898   5.337  16.795   4.853  0.1676 -0.0921  0.0372
26825W        W42899   3.853   4.222   3.829  0.0768  0.2125  0.0738
26826W        W42900  18.257  12.751   1.014 -0.0195  0.0839  0.0237
26827W        W42901   3.726   7.914   1.707  0.0014  0.0224  0.2151
26828W        W42902  15.115   3.917   1.946  0.0360 -0.1836  0.0694
26829W        W42903   6.017   8.998  14.687 -0.3023 -0.1129 -0.0639
26830W        W42904   9.582  17.215  14.481  0.0829 -0.0587 -0.1664
26831W        W42905  18.114   5.348   2.350 -0.0460 -0.0648 -0.0202
26832W        W42906  17.735  13.552   0.595  0.1894  0.0072  0.4359
26833W        W42907   2.661  10.672   4.223 -0.1052  0.0777  0.2851
26834W        W42908   1.897   4.100   5.638  0.1249 -0.1841 -0.0898
26835W        W42909   8.347   6.037   2.431  0.0129 -0.1748 -0.0402
26836W        W42910  15.081  17.090  13.160  0.1460  0.1880 -0.0396
26837W        W42911   2.144   8.252   0.662 -0.3375  0.3890  0.0745
26838W        W42912  10.577  15.022   2.831 -0.0666  0.0884 -0.0604
26839W        W42913   7.337  11.186  14.698  0.1522 -0.0729  0.2286
26840W        W42914   1.358   2.017  16.229  0.0157 -0.2046  0.1782
26841W        W42915  15.153   9.241  16.393  0.2041  0.2170 -0.1321
26842W        W42916  13.395  14.509  13.176  0.1293  0.1284  0.0218
26843W        W42917  17.631  16.275  14.645 -0.1043  0.1215  0.0012
26844W        W42918   9.880   0.812  14.655  0.1636  0.3881 -0.2871
26845W        W42919   1.522   5.128   3.949  0.0313  0.4711  0.1551
26846W        W42920  17.391  14.832  12.021 -0.1509  0.1491  0.2787
26847W        W42921  10.518   6.176  12.846 -0.0342  0.1830 -0.2064
26848W        W42922  15.488  17.119   3.815 -0.0959 -0.0981  0.0714
26849W        W42923   9.185   1.164  15.447  0.3543 -0.0679 -0.0510
26850W        W42924   2.007   3.363   2.837 -0.1885 -0.1242 -0.2552
26851W        W42925  16.096   9.028  15.889 -0.3021 -0.0588  0.0778
26852W        W42926  17.644  17.131   3.716  0.0220 -0.0990  0.3079
26853W        W42927  13.734   0.793  16.237  0.2476 -0.1838  0.0621
26854W        W42928   6.640  16.888  15.659 -0.2209 -0.0829 -0.3023
26855W        W42929   9.536  10.503   4.243  0.2538 -0.0277  0.2772
26856W        W42930   0.719  13.034  13.046  0.0032 -0.1995 -0.0164
26857W        W42931   6.928   6.772   0.087  0.1673 -0.0511  0.2211
26858W        W42932   7.625   9.838  12.403  0.0481 -0.1817 -0.0723
26859W        W42933   8.444  12.069  13.513  0.1765  0.0451 -0.0036
26860W        W42934   7.782  10.084   0.267  0.1690 -0.0751  0.0623
26861W        W42935   7.728  12.186   2.604  0.0785  0.2139 -0.1491
26862W        W42936   2.566   1.147   2.302 -0.4007  0.0653  0.0387
26863W        W42937   2.191  12.523   5.882  0.1451 -0.0542 -0.0337
26864W        W42938  10.569   5.281   3.830  0.0411 -0.1127 -0.2384
26865W        W42939   8.330   6.323  16.026 -0.0196 -0.0006 -0.0159
26866W        W42940  13.610  10.530   2.465  0.1017 -0.1518  0.0667
26867W        W42941   4.381   8.294   4.491  0.0484 -0.0998 -0.0959
26868W        W42942   7.631   5.649  12.342 -0.1276  0.1227 -0.2794
26869W        W42943  17.904   6.129   3.970  0.0751 -0.2449  0.2375
26870W        W42944  12.390   9.334  11.767 -0.1913  0.0696  0.0144
26871W        W42945   6.018   1.061  12.451  0.3462 -0.0073 -0.0509
26872W        W42946  16.439   6.876  13.448  0.0026  0.0948 -0.0331
26873W        W42947  11.390   9.245   2.700  0.2207  0.2196 -0.0925
26874W        W42948  17.542  14.987   5.597 -0.1711  0.0835  0.1488
26875W        W42949   4.935  11.509   4.083 -0.0591  0.0315  0.0106
26876W        W42950  10.742   5.675  14.480  0.0600 -0.0054 -0.0711
26877W        W42951   7.333   7.670   2.746 -0.1489  0.2356 -0.0469
26878W        W42952  15.313  11.037   5.140  0.1401  0.0153 -0.1900
26879W        W42953  17.505   2.150  12.133 -0.0519 -0.4945  0.0473
26880W        W42954  17.509   5.354   1.899 -0.0855 -0.0780 -0.1086
26881W        W42955  14.531  10.123  14.389  0.2804  0.2974  0.1281
26882W        W42956   2.529  16.163   4.671  0.3305 -0.0456 -0.0144
26883W        W42957   3.258  10.634   2.290 -0.2955  0.4036 -0.0205
26884W        W42958  17.124  11.331   2.234  0.0693  0.0968 -0.1933
26885W        W42959  12.153   8.704  15.688  0.0950  0.1119  0.2081
26886W        W42960  13.874   4.224   3.537 -0.2703  0.0721  0.0082
26887W        W42961  12.367  10.122   1.160 -0.2897 -0.3336 -0.1827
26888W        W42962   8.371   7.992   5.131 -0.0379 -0.0712  0.0022
26889W        W42963  11.331  13.854  13.611 -0.0068  0.2376 -0.0652
26890W        W42964   3.296   2.378   1.753 -0.2142 -0.0464 -0.2971
26891W        W42965  10.631   1.387   1.500 -0.0929 -0.0096 -0.0254
26892W        W42966  14.030  14.195  16.309  0.0570 -0.0563 -0.0673
26893W        W42967   3.238   4.955  15.547 -0.1627  0.0722  0.1643
26894W        W42968   2.337   5.398  13.057 -0.0912 -0.1125 -0.0916
26895W        W42969   2.700   2.810  14.775 -0.3580 -0.1757  0.0033
26896W        W42970   8.841  17.923   3.361 -0.3574  0.0390  0.1874
26897W        W42971  15.376  14.567   4.278  0.1266  0.2394 -0.3155
26898W        W42972  11.115   5.312  12.806  0.2413 -0.2267  0.0405
26899W        W42973  15.681  17.322   2.958 -0.0210 -0.2183 -0.0029
26900W        W42974   7.203  10.208   2.494  0.1135 -0.0168  0.1022
26901W        W42975  12.785  13.883   0.153 -0.2437 -0.0375  0.2739
26902W        W42976  17.443  12.249   5.389  0.0349  0.1321  0.0139
26903W        W42977   3.383  13.964  15.526  0.0455  0.2770  0.2269
26904W        W42978   8.018   0.362   5.613  0.4459  0.0512 -0.0852
26905W        W42979   0.365  16.302   1.763  0.0108  0.1914  0.0327
26906W        W42980   8.735   0.683   1.821 -0.0944  0.0100  0.0641
26907W        W42981   9.734   9.524  12.924  0.1988  0.0590 -0.1206
26908W        W42982   2.481   3.149   1.866  0.1277 -0.2047  0.0178
26909W        W42983   4.908  11.332  15.536  0.1338 -0.1229 -0.1207
26910W        W42984   9.735   7.699   3.664 -0.0177 -0.0231  0.0519
26911W        W42985   3.107   3.718   4.292 -0.1473  0.3221  0.1380
26912W        W42986   3.502  17.299   2.930  0.1008  0.1402  0.0269
26913W        W42987   5.636   7.430   4.256 -0.1541 -0.0975  0.0719
26914W        W42988  15.726   7.535   5.169 -0.0653  0.1153 -0.1210
26915W        W42989   8.972  15.021   2.991  0.2151 -0.0841  0.3971
26916W        W42990  11.218  14.248   5.995 -0.2552  0.0504 -0.0590
26917W        W42991   9.147  16.376   1.502  0.1246 -0.2538  0.1161
26918W        W42992  11.722   2.667  13.294  0.1044 -0.2081  0.3010
26919W        W42993  14.928   4.585  12.336 -0.1375  0.0296  0.6263
26920W        W42994  13.945   2.421  12.635 -0.0438 -0.0156 -0.1926
26921W        W42995  12.161  17.546   5.373  0.4640 -0.0740 -0.4819
26922W        W42996   1.047   3.262   1.948  0.0190  0.0379  0.1750
26923W        W42997   9.307  12.905   5.427 -0.0321 -0.2193  0.3180
26924W        W42998  12.490   2.359  15.449 -0.0278  0.1573 -0.2223
26925W        W42999  17.705  14.425   5.464  0.1303  0.0227 -0.0166
26926W        W43000   6.331   4.510  15.890  0.2966 -0.0006  0.0489
26927W        W43001   7.519  14.947   1.947 -0.2057 -0.0714  0.2053
26928W        W43002   7.994   3.174  11.690  0.1406  0.0887  0.2090
26929W        W43003   9.979   9.084   1.598  0.1201  0.1768 -0.2244
26930W        W43004   5.472  12.705   2.916 -0.0738 -0.0641 -0.2173
26931W        W43005  16.419   9.469   4.386 -0.0200 -0.0179  0.0452
26932W        W43006  17.234  16.771   2.096 -0.1065  0.0181 -0.0738
26933W        W43007  15.807   6.039  14.007 -0.1836 -0.0108  0.1353
26934W        W43008  10.395  15.688   5.410 -0.1169 -0.0815  0.0703
26935W        W43009   6.042   4.848   0.500  0.1729 -0.0238  0.1365
26936W        W43010  18.270  15.999   4.491 -0.4206  0.4416  0.1368
26937W        W43011   6.852   8.174  13.680 -0.0358  0.2177  0.0318
26938W        W43012  17.054  17.559   2.138 -0.0517 -0.0440 -0.0841
26939W        W43013  11.189  13.338  16.117 -0.1977 -0.1265  0.2887
26940W        W43014  13.661  13.053  12.616  0.1963  0.0835  0.1201
26941W        W43015   6.122   6.639  12.505 -0.1285 -0.1763  0.2467
26942W        W43016  11.226  10.547  15.369  0.1543 -0.0823 -0.1240
26943W        W43017   2.730   8.664  15.119  0.2580 -0.0760  0.1935
26944W        W43018   9.693  15.580  13.497 -0.1497 -0.3343 -0.1624
26945W        W43019  17.935  16.491  15.323  0.2736 -0.1820 -0.0241
26946W        W43020  11.399  10.754   2.835 -0.1282 -0.1804 -0.0793
26947W        W43021  14.534   6.730   3.576 -0.1797 -0.0096 -0.0627
26948W        W43022   5.508  17.205  13.770  0.1875 -0.0045 -0.1231
26949W        W43023   8.120  13.224   1.492 -0.0421 -0.1712 -0.1133
26950W        W43024  17.447  16.982  13.395 -0.1165 -0.0385  0.1882
26951W        W43025  16.703  12.507   2.357 -0.0416 -0.0610  0.1981
26952W        W43026  10.454  13.897   2.936 -0.0911  0.0412  0.1910
26953W        W43027   7.933   2.594   4.487 -0.0378  0.3058 -0.0581
26954W        W43028  12.440   7.437  15.278  0.1804  0.0491  0.1110
26955W        W43029  16.063  15.035   4.782  0.0544  0.0002  0.0164
26956W        W43030  13.796  17.168   4.665  0.0688 -0.1226  0.0937
26957W        W43031   0.887   0.175  14.837  0.0763  0.0594 -0.0379
26958W        W43032  11.384   7.497  16.085  0.3386  0.2423 -0.1624
26959W        W43033   1.223  15.352  15.857 -0.1295 -0.0569  0.3686
26960W        W43034   1.216   8.914   4.009  0.0453 -0.2783  0.4770
26961W        W43035   9.353   3.641  13.996 -0.0539  0.3829  0.0456
26962W        W43036  12.226   5.197   3.573 -0.3045 -0.2901  0.1050
26963W        W43037   2.667   5.605   5.076 -0.0153 -0.0414 -0.1386
26964W        W43038  17.655   0.960   5.588  0.0991 -0.0721 -0.1771
26965W        W43039   9.014   3.913  14.498 -0.2146  0.0514 -0.0518
26966W        W43040   0.537   2.629   1.977 -0.2284 -0.0875  0.2310
26967W        W43041   4.257   5.971   1.188  0.1016 -0.1619  0.0103
26968W        W43042  11.947   7.684  11.752 -0.2714 -0.2896  0.1692
26969W        W43043   5.288   6.565   2.249 -0.1734  0.2099  0.0994
26970W        W43044  11.974   8.390  12.389 -0.1627 -0.0314  0.2500
26971W        W43045   7.200  15.047  15.227  0.0961  0.3093  0.1887
26972W        W43046   2.948   4.726   6.046 -0.5099 -0.0822 -0.1588
26973W        W43047  15.456   0.992   5.257 -0.0578 -0.3066  0.0939
26974W        W43048  11.379   8.430  14.849  0.1170  0.2217  0.1416
26975W        W43049  10.423  11.679  12.799 -0.3611 -0.3192  0.1274
26976W        W43050  14.251  17.367   4.667 -0.1236  0.4000  0.3436
26977W        W43051  12.619  17.089  15.052 -0.2142 -0.0073 -0.2880
26978W        W43052   1.640  11.102   2.971  0.2523 -0.3015 -0.0422
26979W        W43053  16.999   2.078   2.676  0.0591  0.4240  0.0447
26980W        W43054   6.791   6.053  14.528  0.4174 -0.3909 -0.2907
26981W        W43055   0.603   8.983  14.198 -0.0265 -0.3912  0.0705
26982W        W43056  18.064   8.401   2.887  0.3040  0.0077 -0.0274
26983W        W43057   5.599   9.167   2.755  0.0051  0.1743 -0.0892
26984W        W43058  13.621   6.149  16.204  0.1323 -0.3097  0.2454
26985W        W43059  13.713   8.439   3.138 -0.3312  0.2119 -0.2866
26986W        W43060  17.257   6.972   2.871 -0.0325 -0.1107 -0.1470
26987W        W43061   6.856   1.605  16.111 -0.1244 -0.0044  0.0404
26988W        W43062   5.693  16.711  12.872 -0.1107  0.1516  0.1662
26989W        W43063   0.091  15.237   3.096 -0.0554 -0.0304  0.1203
26990W        W43064  11.446  10.695   4.885  0.1856  0.4479 -0.2220
26991W        W43065   1.854  11.939   5.262  0.2324 -0.1775  0.2836
26992W        W43066   4.991   7.658  15.661 -0.1508 -0.0829  0.1524
26993W        W43067  16.986   0.454   5.925  0.1899  0.0981 -0.1521
26994W        W43068  14.057   3.610  16.068 -0.0341  0.1609 -0.0168
26995W        W43069   1.511   0.352   3.015  0.2846  0.1443  0.1154
26996W        W43070  10.988   7.981  11.897 -0.0620 -0.1382  0.4783
26997W        W43071   6.492   0.375   5.696 -0.0114  0.0952 -0.0066
26998W        W43072  10.076   0.527  13.744  0.1223 -0.0664 -0.0273
26999W        W43073   7.878  16.846  16.030 -0.0037 -0.1901 -0.0090
27000W        W43074  13.910  12.080   3.921 -0.2860 -0.4087  0.0403
27001W        W43075  15.307  15.406  12.273 -0.2556 -0.0528  0.0756
27002W        W43076  14.355   2.595   5.399  0.1462 -0.1691  0.0619
27003W        W43077  12.491   7.284   4.378 -0.0591  0.5230 -0.1438
27004W        W43078   6.483  16.486   5.735 -0.1631  0.0506 -0.1205
27005W        W43079   4.685  17.655   2.390  0.2104 -0.2583 -0.0229
27006W        W43080   4.978   8.491   2.844  0.1402 -0.3611  0.1792
27007W        W43081   2.405   9.987  13.969  0.3713 -0.1068 -0.0627
27008W        W43082   6.843  15.318   0.645 -0.0425 -0.0558  0.2643
27009W        W43083  15.866  11.838  12.442 -0.1475 -0.0148 -0.1698
27010W        W43084  12.779  17.741  11.354 -0.1395  0.2586 -0.1323
27011W        W43085  17.963   6.367   4.416  0.1730 -0.0402 -0.1343
27012W        W43086  15.215  11.056   3.409 -0.2549  0.1734 -0.0883
27013W        W43087   5.987   3.898  11.920  0.0884  0.1724  0.0929
27014W        W43088   4.061  17.872  12.345 -0.0786 -0.1439 -0.0627
27015W        W43089  16.607  11.508  16.146  0.1522 -0.1306  0.0800
27016W        W43090  16.118  16.013   5.567  0.0466  0.3479  0.2354
27017W        W43091   1.907  13.527   0.117  0.1495  0.2472  0.1237
27018W        W43092  18.180   5.855   4.281 -0.0439  0.2137  0.1070
27019W        W43093  12.205   8.855  12.442  0.1551  0.1270  0.4812
27020W        W43094  16.638  10.784  12.372  0.4670  0.1941  0.6533
27021W        W43095   0.687   3.441  13.486  0.1946  0.0298 -0.0113
27022W        W43096  13.184  18.060   2.004 -0.0572 -0.1570  0.3555
27023W        W43097   0.453   2.762  13.915  0.0240  0.0711 -0.2480
27024W        W43098   2.314   3.160  15.351 -0.0928  0.0047 -0.1320
27025W        W43099  13.963  13.589   3.901  0.3207 -0.3840 -0.0796
27026W        W43100  11.152   6.068  12.093  0.1386  0.4520 -0.2337
27027W        W43101  10.875   5.180   0.469 -0.1355 -0.0609  0.2530
27028W        W43102   3.196  17.715   2.058 -0.0936  0.0460 -0.1156
27029W        W43103  17.885  14.524   3.788  0.0520  0.3084 -0.2462
27030W        W43104   7.068   3.474  16.037 -0.0616 -0.0857  0.0903
27031W        W43105  16.296   0.390  16.336  0.2905  0.2408 -0.0187
27032W        W43106  12.333  14.619   2.601  0.0134 -0.3116  0.0021
27033W        W43107  16.086  16.362  13.974  0.0563 -0.2615 -0.0068
27034W        W43108   6.683   0.768  14.503 -0.3154 -0.1176  0.0596
27035W        W43109  15.359   3.127   1.716  0.0163 -0.1026 -0.0058
27036W        W43110   5.869  13.356   4.427 -0.1901  0.0905 -0.1581
27037W        W43111   7.482   1.410  10.961  0.0657 -0.1060 -0.2304
27038W        W43112  17.599   3.893  12.704 -0.1044  0.2220 -0.0767
27039W        W43113  16.567   0.694  11.705 -0.2365 -0.3452 -0.0565
27040W        W43114  15.215   1.854   1.725 -0.1504  0.2808 -0.1068
27041W        W43115   5.191   1.212  16.029 -0.4611 -0.0106  0.1259
27042W        W43116   5.837   9.423   3.248 -0.3039  0.1504  0.0724
27043W        W43117   5.461   7.296   4.734 -0.2743 -0.1520 -0.0714
27044W        W43118  12.881  12.761  12.707 -0.0997  0.1938  0.2064
27045W        W43119  15.825   6.546   0.074  0.0309 -0.2431 -0.1384
27046W        W43120  11.739   0.404   0.369  0.0188 -0.1706  0.0703
27047W        W43121   9.188  10.623   3.593 -0.1080  0.0788  0.0818
27048W        W43122  14.207   1.895  13.686 -0.1104  0.0543 -0.0411
27049W        W43123  15.303   6.246   4.986  0.0845 -0.1621  0.1154
27050W        W43124   1.774  12.392   3.524 -0.0048 -0.2370 -0.0891
27051W        W43125   6.513   3.905  12.430 -0.4049  0.1228 -0.3076
27052W        W43126  11.221   7.849  12.555 -0.2296 -0.1900  0.0473
27053W        W43127  15.365  14.300   1.397  0.0899  0.1459  0.0094
27054W        W43128  14.067  16.710   0.407 -0.0014  0.2799 -0.5556
27055W        W43129   5.915  10.046   4.384  0.0734  0.0849 -0.0940
27056W        W43130  10.547   0.061   3.947 -0.1255  0.0409  0.5457
27057W        W43131  13.427   0.100   0.686 -0.1800  0.1081  0.1191
27058W        W43132  13.032   7.284   4.718 -0.0132 -0.1988  0.1104
27059W        W43133  12.467  12.104  15.235 -0.1645  0.0907  0.1137
27060W        W43134   0.361  16.641   3.333 -0.2915 -0.0587 -0.1697
27061W        W43135  12.369  10.521   2.081 -0.1830 -0.2879 -0.2525
27062W        W43136   4.298   0.034  15.130 -0.1116  0.2758 -0.1269
27063W        W43137  17.592  16.470  13.690  0.2191 -0.1974 -0.1020
27064W        W43138   0.268   0.207  14.745 -0.1447  0.2399  0.0733
27065W        W43139   2.442  17.031   3.411  0.3023  0.2122 -0.0682
27066W        W43140  13.389   1.794  13.893  0.0479  0.0176 -0.1000
27067W        W43141  18.185  13.195   0.271 -0.1460 -0.1566 -0.1689
27068W        W43142   6.552  11.251  15.991 -0.0869 -0.4160  0.1659
27069W        W43143   1.288  12.319   5.833  0.0340  0.3410  0.2167
27070W        W43144   8.336   9.165   1.518 -0.0509 -0.0235  0.0289
27071W        W43145  14.584   7.137   0.781  0.0044  0.2382  0.3163
27072W        W43146   5.581  14.722  12.434 -0.0152 -0.0410  0.0000
27073W        W43147  13.451  18.016  11.498  0.3127  0.0236 -0.0505
27074W        W43148  11.450   4.295   2.829  0.1746  0.6036  0.2452
27075W        W43149  13.064  10.155   5.818 -0.2452 -0.0732  0.0773
27076W        W43150   1.510  12.871   0.012 -0.2860  0.0271  0.3920
27077W        W43151  14.720  13.226  13.988 -0.3426  0.1854  0.0394
27078W        W43152  13.892  14.760   0.240  0.1861  0.1900  0.1236
27079W        W43153  17.442   4.895  14.479 -0.3277  0.0569  0.0961
27080W        W43154  13.150  15.669   0.474  0.3238  0.2894 -0.0425
27081W        W43155   4.202  16.333  13.414 -0.0842  0.0640 -0.1825
27082W        W43156   3.501   4.429  13.281  0.4055  0.0785 -0.3201
27083W        W43157  11.655  14.484   3.505  0.3172  0.3015 -0.1198
27084W        W43158  16.285   8.593  13.348 -0.1119  0.0729 -0.0756
27085W        W43159   7.905  16.445  12.141 -0.1355  0.0393  0.2498
27086W        W43160  10.191  15.221   1.992 -0.0019 -0.0738  0.1649
27087W        W43161  12.608   4.876  12.867  0.0350  0.1448  0.2618
27088W        W43162  14.926  16.855  13.942 -0.2237 -0.1234 -0.0384
27089W        W43163   6.072   0.338   4.750 -0.1242  0.1103  0.2005
27090W        W43164   9.802   8.310  13.191 -0.1340  0.1516 -0.0782
27091W        W43165   1.162  18.012  13.060 -0.2834  0.1552 -0.0431
27092W        W43166  12.112  11.863  11.791 -0.0931 -0.0190  0.0311
27093W        W43167   1.948   0.125   3.816  0.6229  0.2227 -0.0229
27094W        W43168  17.406   8.909   1.343 -0.0253 -0.0001  0.1438
27095W        W43169   6.881   1.274  12.072  0.3908 -0.2863  0.1733
27096W        W43170   1.252   7.985  15.396 -0.1087 -0.1617  0.3202
27097W        W43171  11.342  12.732  12.352 -0.2804  0.1458  0.5282
27098W        W43172   4.043   8.876   2.519 -0.2174 -0.2628 -0.0148
27099W        W43173  11.184   4.069   5.019  0.1537 -0.0401  0.3063
27100W        W43174   6.473   5.759  12.359  0.1528  0.2760  0.2315
27101W        W43175  14.799   2.562   0.328 -0.3450  0.3529  0.0610
27102W        W43176   3.151   3.204   4.174 -0.1436 -0.1073 -0.0543
27103W        W43177  11.271   8.348  15.708  0.2157 -0.0830  0.3788
27104W        W43178   2.445   9.225  14.802  0.2216  0.1628 -0.2488
27105W        W43179   2.787   5.129  12.966  0.2472 -0.2738  0.0787
27106W        W43180  13.196   3.780  12.083  0.2101 -0.0834  0.4996
27107W        W43181   9.203  12.730  11.833  0.1446 -0.0715  0.1995
27108W        W43182  16.618  11.127  14.422  0.0295  0.2045  0.0084
27109W        W43183   7.645   6.652  11.651  0.3093 -0.1058  0.0686
27110W        W43184  15.095  10.812   3.959  0.2044 -0.0232 -0.0891
27111W        W43185  11.181  15.659   4.560 -0.0725 -0.0098 -0.3289
27112W        W43186  12.578  18.266  11.232 -0.2931  0.0397 -0.1102
27113W        W43187   8.559   5.687  15.029  0.2100  0.1271 -0.0453
27114W        W43188   0.439  11.264   4.086 -0.1467  0.2322  0.0176
27115W        W43189  11.633  11.803   2.040  0.3437 -0.0089  0.0262
27116W        W43190   3.014  15.560   3.477 -0.1350  0.2193  0.0827
27117W        W43191  14.930   7.931   4.255  0.1942 -0.0642 -0.2938
27118W        W43192  14.854  15.967  13.885 -0.0918 -0.0998 -0.0333
27119W        W43193  17.255   2.176   5.860  0.0803  0.0035  0.0411
27120W        W43194   1.505   8.597   3.191 -0.1485 -0.0447  0.3536
27121W        W43195  12.756   7.219   3.289 -0.2543 -0.0864  0.0531
27122W        W43196   3.445   5.289  14.663 -0.0091 -0.2764 -0.0965
27123W        W43197  16.337   9.856   1.488 -0.0366  0.2234 -0.0499
27124W        W43198   4.237  10.868   2.748  0.1822 -0.1220  0.0219
27125W        W43199   8.129  17.459   2.453 -0.1333 -0.1316 -0.1007
27126W        W43200   8.584  11.650   5.555 -0.0388  0.0888  0.0738
27127W        W43201   0.301  12.390   1.714 -0.0959  0.0411  0.1028
27128W        W43202  12.048   2.030  16.160  0.1981 -0.0761 -0.0343
27129W        W43203  15.798   9.291  14.262 -0.0782 -0.1345  0.2044
27130W        W43204   6.462  18.058  13.498  0.0333  0.2799  0.0098
27131W        W43205   5.517  14.776  15.515  0.0584 -0.0941  0.2905
27132W        W43206  17.625   3.108  13.129  0.0628 -0.0122 -0.1076
27133W        W43207   0.281   7.328   2.992  0.3108 -0.1206 -0.0488
27134W        W43208  12.674   7.762   2.431 -0.0565  0.0606 -0.1051
27135W        W43209  12.722   2.995   2.212  0.2127  0.2091 -0.0690
27136W        W43210  14.460   6.297  12.411 -0.1771  0.3087 -0.2037
27137W        W43211   9.939  14.010  14.236  0.2040  0.1258 -0.0425
27138W        W43212  17.096  17.018   3.772  0.1658 -0.0088 -0.2404
27139W        W43213   7.232   0.443  11.545  0.0715  0.2049  0.0405
27140W        W43214   4.509  15.094  12.868  0.1403  0.1427  0.1109
27141W        W43215  14.320  11.886   4.702 -0.0756 -0.0710 -0.0034
27142W        W43216  10.415  16.000  11.726  0.0138 -0.1787 -0.0571
27143W        W43217   6.484   2.573  15.625 -0.0871 -0.3496  0.2220
27144W        W43218   8.170   1.498  15.960  0.0581  0.1564  0.0692
27145W        W43219  14.248   5.141   3.849  0.0808 -0.0580 -0.1225
27146W        W43220   2.774   3.402   3.470 -0.0964 -0.0471 -0.0449
27147W        W43221  11.467   7.204   1.698  0.1196 -0.2813  0.1482
27148W        W43222   6.919   8.395  14.145 -0.0220  0.1062  0.4126
27149W        W43223   5.454  10.807   4.393 -0.0150 -0.2089  0.1081
27150W        W43224   8.450   1.152  14.143  0.1801  0.3086  0.1074
27151W        W43225   3.439  14.028  13.828 -0.1967  0.0167 -0.4072
27152W        W43226   5.663   3.129  14.065 -0.2306  0.0271 -0.0144
27153W        W43227  12.207   2.507   2.686 -0.1339  0.1373  0.0136
27154W        W43228   8.717   4.613   4.295  0.1163 -0.1551 -0.5126
27155W        W43229   8.062  16.057  13.619  0.1268  0.1780 -0.2158
27156W        W43230   5.474  13.556   3.102 -0.1206 -0.2127 -0.0460
27157W        W43231  13.867   9.687   2.916 -0.3446  0.1851  0.2792
27158W        W43232   9.678   9.080   0.289  0.2654  0.0436  0.0691
27159W        W43233   7.285   0.765   2.372  0.0554  0.2564 -0.1286
27160W        W43234   3.895   4.172  14.295 -0.4045  0.2020 -0.4343
27161W        W43235  17.590  13.364   4.405  0.0197  0.2533  0.0787
27162W        W43236   0.940   5.932   1.575  0.1088 -0.0599 -0.1448
27163W        W43237  16.096   6.633  15.561 -0.1025 -0.0856 -0.2116
27164W        W43238  16.165  11.160   5.012  0.0650 -0.4966 -0.1583
27165W        W43239  15.670   3.479   5.539 -0.0218  0.0648  0.0153
27166W        W43240   2.540  10.293  11.522 -0.2552  0.3139 -0.1658
27167W        W43241  14.255  10.469  15.361  0.0168 -0.1439  0.0590
27168W        W43242  14.048   6.742  15.721  0.1904 -0.2590 -0.0241
27169W        W43243   8.801   6.128   0.894  0.3134 -0.0816 -0.3595
27170W        W43244   3.901   1.145  14.458  0.0083 -0.1229  0.1660
27171W        W43245  10.874   0.292  14.621  0.1887  0.0344  0.2198
27172W        W43246   6.377   3.488  11.779  0.0207 -0.0893  0.0091
27173W        W43247  14.680  17.538  15.970 -0.0819  0.0145  0.0525
27174W        W43248  17.692  13.713  12.082 -0.2063  0.2308  0.0692
27175W        W43249  14.380  14.891   0.533  0.0140  0.1242  0.3391
27176W        W43250  10.703   6.160   4.629 -0.3054 -0.1087 -0.3394
27177W        W43251   9.999  16.571   1.068  0.1500  0.1588 -0.0293
27178W        W43252   2.555   5.511  14.558 -0.3664 -0.5399 -0.1021
27179W        W43253   5.266  12.061   4.645  0.1111  0.0019  0.1455
27180W        W43254  16.759   6.151  14.192  0.0577  0.0174  0.0522
27181W        W43255   2.275  12.630   3.856 -0.1772 -0.0373 -0.2648
27182W        W43256   3.468   0.348  16.295  0.0792  0.1074  0.0771
27183W        W43257   8.120   0.036   2.964 -0.1585 -0.0200 -0.0218
27184W        W43258  15.461  13.003   4.281  0.0068  0.1968 -0.2475
27185W        W43259   6.333   1.070  12.035 -0.2778  0.1217  0.1664
27186W        W43260   6.588   5.255   3.809  0.0462 -0.0083 -0.3375
27187W        W43261  11.536   1.171   1.459 -0.1888 -0.1988  0.1807
27188W        W43262  17.021   8.365   0.477  0.0334 -0.0525  0.2795
27189W        W43263   0.128  18.207   4.447 -0.1158  0.4676 -0.0519
27190W        W43264  11.109   0.088  12.742  0.2108 -0.1963  0.0382
27191W        W43265  16.630   9.500   2.162 -0.1339  0.2772 -0.1304
27192W        W43266   6.302   8.255   3.007  0.2592 -0.0830  0.1484
27193W        W43267  12.329  13.963  13.503 -0.0962  0.1159 -0.0657
27194W        W43268   1.472   4.677  12.300 -0.2642  0.0679  0.1004
27195W        W43269  16.024   1.986  15.088 -0.4311  0.1004  0.0151
27196W        W43270  12.662   3.773  10.931  0.0078  0.0993  0.1946
27197W        W43271  16.371  10.915  15.291  0.0888 -0.2383  0.0139
27198W        W43272  12.441   8.289  15.707 -0.1206  0.2764  0.2941
27199W        W43273   7.305  14.703  13.647  0.2368  0.2028  0.1602
27200W        W43274   5.716   9.454  14.842  0.0912  0.2980  0.2224
27201W        W43275  12.564   1.493   3.207 -0.1449 -0.0836 -0.0028
27202W        W43276   1.728   3.796  12.451 -0.2549 -0.1780 -0.1025
27203W        W43277   0.437   8.293  14.998  0.0406 -0.2117 -0.0948
27204W        W43278  13.227  13.664  12.037  0.1758  0.0572  0.2534
27205W        W43279  15.259   9.193  13.896  0.1799  0.0812  0.0094
27206W        W43280   1.504   7.592   5.675  0.0758  0.0218  0.0587
27207W        W43281   0.709  11.040  12.081 -0.5018 -0.1473  0.0586
27208W        W43282   3.780  12.839   3.853  0.0793  0.1290  0.0714
27209W        W43283  15.101  11.461  12.656 -0.1461 -0.0287 -0.0251
27210W        W43284   6.784   9.494   3.936  0.1601  0.0564 -0.0142
27211W        W43285   0.715  12.514  14.120  0.0241 -0.0744 -0.0382
27212W        W43286  13.382   9.403  12.799  0.0272  0.2119 -0.0427
27213W        W43287   0.941  17.117   2.826 -0.0474 -0.5140  0.1600
27214W        W43288   3.286  12.410  11.950  0.1125  0.0726  0.0849
27215W        W43289  11.386   8.013   4.837 -0.2438 -0.0776 -0.0622
27216W        W43290   3.220  10.425  13.593 -0.0037 -0.0484 -0.3134
27217W        W43291   6.616  17.435  12.139  0.1122 -0.1157  0.0703
27218W        W43292  17.477  16.502  10.851  0.3250  0.4160 -0.1093
27219W        W43293  11.341  16.232  11.468  0.2228 -0.2450 -0.1032
27220W        W43294   3.993   5.530   2.177 -0.0428 -0.1363  0.1669
27221W        W43295   4.837   9.638  12.548 -0.2137  0.2577  0.1046
27222W        W43296   9.980  18.259   0.665  0.2483 -0.1273  0.1338
27223W        W43297  14.003  14.848   4.560  0.0986  0.3003 -0.1701
27224W        W43298  16.594   6.999  12.479 -0.2881  0.1513  0.1711
27225W        W43299   1.710  17.266   4.893  0.3390  0.1278 -0.0769
27226W        W43300   0.258   1.135  15.601 -0.0306 -0.1026 -0.1244
27227W        W43301   7.805   2.094  14.253  0.0864 -0.0153  0.3362
27228W        W43302   7.509   2.317   4.309  0.0829 -0.0167  0.0096
27229W        W43303  17.978  14.216  13.429 -0.2693 -0.0969 -0.0230
27230W        W43304   0.948  15.386  14.767  0.2581 -0.2333  0.0502
27231W        W43305   2.717  13.674  13.026  0.0183  0.0521 -0.0300
27232W        W43306   1.626  16.477   3.287 -0.2596 -0.2367 -0.0656
27233W        W43307  13.155  10.664  16.048  0.3515 -0.4328  0.0775
27234W        W43308  12.517  10.628   3.008  0.0587 -0.0884  0.2443
27235W        W43309   2.614  13.458   1.067  0.1640 -0.0317  0.2912
27236W        W43310   0.609   0.845  15.952  0.2620  0.0058  0.1120
27237W        W43311   9.459   1.526   2.783  0.0507 -0.0914  0.1204
27238W        W43312  10.985  14.854   1.035 -0.0554  0.0700 -0.2274
27239W        W43313   4.394   9.889   6.214  0.2595 -0.0993  0.0219
27240W        W43314  16.670   1.257  14.187 -0.1791 -0.2904 -0.3746
27241W        W43315  15.164   1.798   2.238 -0.3088  0.0192 -0.0678
27242W        W43316  14.597  13.721   2.064  0.2029 -0.0642  0.0823
27243W        W43317  17.570  13.922  13.335 -0.0164 -0.4643 -0.0826
27244W        W43318  16.528  13.754   2.879 -0.1964 -0.0318 -0.1516
27245W        W43319   0.964  14.233  12.234 -0.2454 -0.2525  0.1296
27246W        W43320   9.178   3.428   4.351  0.0583 -0.1033  0.2419
27247W        W43321  16.870  13.041  16.159 -0.2458 -0.0985 -0.1530
27248W        W43322   2.970  15.008   1.226  0.1897 -0.0813 -0.2256
27249W        W43323  10.996   2.211  15.137 -0.1032 -0.1224  0.0137
27250W        W43324   1.177  16.157   4.193 -0.1014  0.3080  0.0610
27251W        W43325  13.455  14.062   5.474  0.2263  0.2187 -0.0413
27252W        W43326   8.137  13.793   1.745  0.0429 -0.1254 -0.0542
27253W        W43327   7.612   1.586  12.440  0.2386  0.1324  0.0302
27254W        W43328  11.327  14.362  13.551 -0.2063 -0.0904 -0.1684
27255W        W43329  12.816   6.190  14.323 -0.0015  0.1714  0.2415
27256W        W43330   7.903   2.619   1.095 -0.2273  0.2661 -0.1312
27257W        W43331  16.251   7.994   0.117 -0.0970 -0.1575  0.2093
27258W        W43332   9.714   9.123   5.077  0.0233  0.2277 -0.0266
27259W        W43333   9.754  16.772   0.139 -0.1328  0.3827 -0.0818
27260W        W43334   4.081   3.921  11.277 -0.2645  0.0195 -0.0609
27261W        W43335  18.334  11.190   4.894  0.0761  0.0629  0.3215
27262W        W43336   3.620  11.327  15.078  0.0205 -0.2182  0.1039
27263W        W43337   3.026  17.189   5.251 -0.0591 -0.1309 -0.2211
27264W        W43338   3.082   9.267   0.073 -0.0205 -0.0549  0.0793
27265W        W43339   2.186   8.792  12.515 -0.1513 -0.2602 -0.1722
27266W        W43340  16.792   4.668   4.394  0.0426  0.1710  0.0533
27267W        W43341   1.757  11.253   3.849 -0.2302  0.0102  0.0019
27268W        W43342   5.352  11.355  16.075  0.0107 -0.3967  0.2307
27269W        W43343   7.485  10.958   1.253  0.1659  0.1049  0.1509
27270W        W43344  17.872  13.148  13.341 -0.1569  0.0757 -0.3939
27271W        W43345  11.653  12.681   0.251 -0.3819  0.2283  0.1465
27272W        W43346   2.498  17.401  15.389 -0.2597  0.2880  0.0867
27273W        W43347  16.741   5.604   3.445 -0.0560  0.0158 -0.1214
27274W        W43348   3.786  12.283   2.441 -0.0324  0.0609  0.1424
27275W        W43349  14.139   0.284   4.093  0.2541  0.0328 -0.0762
27276W        W43350   5.871   1.695  11.716  0.0673  0.1290  0.0540
27277W        W43351   1.931  11.066   2.592 -0.0010  0.0546  0.0637
27278W        W43352   2.169   0.973   0.886 -0.0606 -0.0704 -0.1317
27279W        W43353   0.569   9.124   3.306 -0.1291  0.0286  0.0056
27280W        W43354  17.561   7.425   3.866  0.0772 -0.2571 -0.0730
27281W        W43355   9.054  16.724  15.920 -0.1542  0.2475 -0.0662
27282W        W43356  13.054   4.969  13.502  0.0648 -0.0913 -0.3528
27283W        W43357   2.247  13.135  14.336 -0.0516  0.0709  0.1390
27284W        W43358   7.587  12.719  13.791  0.1822 -0.0573 -0.2955
27285W        W43359  12.035   8.376   1.734 -0.0984  0.2303 -0.0009
27286W        W43360  12.036  11.032   0.033  0.0910 -0.0926  0.0579
27287W        W43361   6.931   2.547  12.449 -0.1681 -0.1389  0.2405
27288W        W43362  17.043   5.712  11.333  0.2234 -0.1772  0.1853
27289W        W43363  16.634  12.085   0.821  0.2080 -0.0036 -0.1663
27290W        W43364  10.351  12.228  13.890  0.0086 -0.0892 -0.1358
27291W        W43365  13.953   3.194  12.124 -0.0289  0.1954  0.0415
27292W        W43366   5.258   6.478   4.766  0.0963 -0.0816  0.3528
27293W        W43367   5.323   0.074   2.494 -0.0250 -0.5584 -0.1675
27294W        W43368  14.422   6.081   1.886 -0.1832  0.0297 -0.0416
27295W        W43369   9.473  13.837  15.066 -0.2090 -0.2764  0.3560
27296W        W43370  14.595   6.851   1.281  0.0682  0.0156 -0.1208
27297W        W43371   9.612   3.655   4.049  0.0714  0.1313  0.0950
27298W        W43372   3.489  17.952   0.304  0.1843 -0.1010  0.1307
27299W        W43373  11.471  12.534   4.761  0.2627 -0.1476  0.2760
27300W        W43374   9.712   4.907   4.215  0.0278 -0.2738 -0.1476
27301W        W43375   3.161   9.056  15.300 -0.0220 -0.2762 -0.0380
27302W        W43376   6.284  18.257   5.709  0.2558 -0.1801  0.1003
27303W        W43377   5.219   7.418  12.115 -0.2076 -0.1201  0.2549
27304W        W43378  10.906  14.159   0.061 -0.0735  0.2169  0.0918
27305W        W43379  13.742   7.510  14.778 -0.0257 -0.1569  0.1477
27306W        W43380   5.829  12.238   5.545 -0.2970 -0.1111  0.1262
27307W        W43381   5.738   5.238   3.449  0.1827 -0.6369 -0.2329
27308W        W43382   6.565  12.669  13.081  0.3212  0.1991  0.1457
27309W        W43383   2.167  14.449   4.531 -0.0150 -0.1007 -0.3801
27310W        W43384   2.938  15.890   4.536 -0.0812 -0.3216  0.0245
27311W        W43385   7.728  10.128  14.885  0.0768 -0.2324  0.0202
27312W        W43386  17.602   7.518  12.650 -0.0703 -0.2770  0.2268
27313W        W43387  16.649  16.260  13.289  0.0491 -0.1087  0.1836
27314W        W43388   0.894  12.627  12.300  0.1042 -0.0163  0.1285
27315W        W43389   5.772   5.813  14.115  0.0361 -0.1554  0.0116
27316W        W43390  15.806  14.862  14.924  0.0456 -0.4502  0.1436
27317W        W43391  13.629   9.937  15.624 -0.0593 -0.1732 -0.1456
27318W        W43392   7.748   7.933  12.924  0.1005 -0.0841  0.0436
27319W        W43393   5.460   2.970  11.689 -0.0760 -0.0442 -0.1486
27320W        W43394  13.141   0.423  13.190  0.1859 -0.0354  0.1462
27321W        W43395  15.096   1.579  15.503 -0.1366  0.4091 -0.2900
27322W        W43396   4.496  15.951   0.295 -0.1621 -0.1302 -0.0954
27323W        W43397   1.513   2.018   0.376  0.2054  0.0617  0.0767
27324W        W43398  10.375   1.965   3.949 -0.0073  0.0408  0.1427
27325W        W43399   3.096  16.295   1.864 -0.0205 -0.1906 -0.1335
27326W        W43400   3.308   9.105  15.818  0.2249 -0.3621  0.3604
27327W        W43401  15.193   4.258   0.617  0.1577 -0.1303 -0.0043
27328W        W43402  13.835   4.561  15.583 -0.2543  0.0526 -0.0856
27329W        W43403   9.749  17.500  12.442  0.3912  0.0266 -0.3391
27330W        W43404  13.001   1.435  13.972 -0.2358  0.0696 -0.0549
27331W        W43405  12.249  11.016  15.934 -0.0211  0.2089  0.4460
27332W        W43406  17.218   1.347  13.347  0.0683 -0.1318  0.2093
27333W        W43407   3.976   6.375   3.661 -0.1426 -0.1924  0.1137
27334W        W43408   5.926  15.027  11.075 -0.3829 -0.2328 -0.5347
27335W        W43409   8.352   6.598  13.248 -0.0520 -0.0622  0.1230
27336W        W43410  15.030  10.649   5.031 -0.1591 -0.0297 -0.2276
27337W        W43411   6.632  16.555   1.975 -0.3665  0.0834 -0.3419
27338W        W43412   1.880   2.604   1.299 -0.0577 -0.3353  0.1506
27339W        W43413   3.580   8.432  11.308  0.2804  0.0038 -0.2144
27340W        W43414  11.753  14.637   0.907 -0.0131  0.1393  0.0594
27341W        W43415   5.032   4.310  12.250 -0.3051 -0.3508  0.2649
27342W        W43416   0.132   4.343  13.054 -0.5443 -0.0494 -0.1283
27343W        W43417   3.105   2.827  13.350 -0.4823  0.0604  0.2229
27344W        W43418   9.912   7.845  15.433  0.1506 -0.0182 -0.0317
27345W        W43419   9.911   2.447   0.950  0.3967  0.0899 -0.2318
27346W        W43420  12.942   8.431  14.101 -0.1607  0.2624  0.1920
27347W        W43421   7.096  11.704   3.782  0.0018 -0.4704 -0.2290
27348W        W43422  17.017  10.069   5.136  0.0590  0.2034  0.1368
27349W        W43423   1.032  16.979   2.231 -0.3466 -0.2427 -0.2179
27350W        W43424  13.154   0.516   3.321 -0.0845 -0.1092  0.1797
27351W        W43425  15.542  13.015   1.232  0.0816  0.1692  0.3787
27352W        W43426   7.226  11.698  12.897 -0.2236  0.0304 -0.1072
27353W        W43427  12.177   6.913   4.340  0.0949  0.2658  0.0385
27354W        W43428  11.172  15.990   5.705  0.0163  0.0027  0.1652
27355W        W43429   1.332  13.183  11.729 -0.0207 -0.0143  0.0295
27356W        W43430  17.396  11.887   3.508  0.0472  0.0989  0.0427
27357W        W43431  10.443   2.206  10.843 -0.0724 -0.0631  0.0596
27358W        W43432  15.110  12.485  11.658  0.2054 -0.0445 -0.1345
27359W        W43433   0.300  17.061   3.580 -0.0305  0.0592 -0.0490
27360W        W43434   8.510  13.757   5.959 -0.0644  0.1728 -0.0590
27361W        W43435  16.970  15.548   5.000  0.1948 -0.1865  0.0699
27362W        W43436  18.102   6.107  13.628  0.0473 -0.5039  0.0343
27363W        W43437  16.722  10.620   0.776  0.3429  0.0643  0.2324
27364W        W43438   2.078   9.085   0.819  0.0473  0.1882 -0.0646
27365W        W43439  12.414  16.636   5.300 -0.1136 -0.0734  0.1214
27366W        W43440  11.773   0.093  10.384 -0.0869 -0.0362 -0.2267
27367W        W43441   8.244  17.566   1.709  0.1868 -0.0004  0.0127
27368W        W43442   2.602   1.977   4.351 -0.0567 -0.0251 -0.1646
27369W        W43443  16.788  12.962  14.735  0.2661  0.1846  0.0980
27370W        W43444   8.001   6.333  15.624 -0.0699  0.0041  0.0759
27371W        W43445   3.445   4.900  13.098 -0.1027 -0.1968 -0.3478
27372W        W43446  16.399   2.784   2.429 -0.1702  0.1222 -0.1185
27373W        W43447   6.781  10.734  13.246  0.0226  0.0016 -0.1780
27374W        W43448   3.985   7.506   1.509 -0.0067 -0.2502  0.1807
27375W        W43449   0.683   3.312   2.662 -0.2166 -0.0239 -0.3117
27376W        W43450   4.705  11.007   0.839  0.2587  0.1390 -0.1067
27377W        W43451   7.780   3.153  11.198  0.0331  0.2360 -0.0337
27378W        W43452  13.015   1.287   0.194 -0.1012 -0.1321 -0.3078
27379W        W43453  11.965   9.786   1.002 -0.0277 -0.0343 -0.0121
27380W        W43454   8.641   6.530  10.723  0.1853  0.1087 -0.1070
27381W        W43455  11.463  14.535  15.583 -0.0195 -0.3173 -0.1018
27382W        W43456  14.529   8.837  15.950  0.2169 -0.1978 -0.1502
27383W        W43457   3.393   3.458   3.415 -0.2336 -0.2976  0.1773
27384W        W43458  16.456   4.655   2.812  0.4218  0.0705  0.0357
27385W        W43459   6.018   7.344   2.060 -0.0335 -0.0640 -0.1116
27386W        W43460  10.414  10.641  15.720  0.0299 -0.0514  0.2252
27387W        W43461   8.289   1.565  11.081  0.1516 -0.1958  0.0983
27388W        W43462   4.183   7.565   3.221 -0.1686 -0.1243  0.1450
27389W        W43463  17.753   2.802   1.283  0.0998 -0.0476  0.0680
27390W        W43464  14.379   3.776   4.203  0.0884 -0.0261  0.3086
27391W        W43465   9.649  17.772  15.379  0.2372  0.1090  0.1320
27392W        W43466  10.932   8.325  12.491 -0.0784  0.3135  0.1175
27393W        W43467  17.517  12.330  14.379 -0.4323  0.1228  0.1557
27394W        W43468   7.358   8.540  14.829 -0.1410  0.1834  0.1042
27395W        W43469   7.697  11.947   4.571  0.1499  0.3412 -0.0524
27396W        W43470   8.129  14.700   5.416 -0.1104 -0.3773 -0.1204
27397W        W43471   0.354  12.503  15.076 -0.0770  0.3361  0.5146
27398W        W43472  12.936  16.917  13.094  0.1174 -0.2803 -0.2569
27399W        W43473   8.144  18.327  12.281 -0.2448 -0.0503  0.0954
27400W        W43474   2.074  18.177   0.711  0.0700  0.0828  0.1238
27401W        W43475  10.212  10.688  14.136 -0.1129  0.3420  0.0031
27402W        W43476  18.128  14.150   3.112 -0.0335 -0.0152 -0.0074
27403W        W43477  15.075  10.927   0.788  0.1371  0.1834 -0.0819
27404W        W43478   5.969  12.356  13.949  0.1046 -0.1571 -0.0166
27405W        W43479   3.921   7.297   0.237 -0.2134 -0.0966  0.1839
27406W        W43480   5.547   1.440  12.457 -0.0808 -0.4148 -0.0655
27407W        W43481  16.862  16.995  14.554  0.0097  0.0655 -0.1724
27408W        W43482   3.792  18.049  15.677  0.0681  0.0662 -0.0635
27409W        W43483   9.294  17.441   0.405  0.0903  0.1179  0.0636
27410W        W43484   4.188  13.157  16.276  0.1172  0.0134 -0.1240
27411W        W43485   9.450   2.571  12.391  0.0703  0.4864  0.3272
27412W        W43486  17.270   3.700   2.166 -0.1501  0.0562 -0.0552
27413W        W43487   9.289   0.896   1.410 -0.0179  0.2124 -0.3049
27414W        W43488   1.842   7.377   0.891  0.1000 -0.2786 -0.1393
27415W        W43489   0.737   2.264   2.639  0.1679 -0.0542  0.0904
27416W        W43490   5.901   3.909   4.189  0.0592 -0.1082  0.3478
27417W        W43491  12.279  17.477  16.170 -0.1067  0.1004 -0.0300
27418W        W43492  14.411  14.352   3.099  0.2366 -0.1028  0.2577
27419W        W43493   1.900   3.717  11.093 -0.0128  0.2502 -0.2079
27420W        W43494  11.755   1.595  16.309  0.1615  0.1329  0.2693
27421W        W43495  16.364   3.097  14.680 -0.3216 -0.1912  0.1543
27422W        W43496  12.057   5.694   4.094  0.2209  0.2900  0.0269
27423W        W43497  16.772   8.557   4.976  0.1296  0.1173  0.1868
27424W        W43498  14.615  12.328   4.240 -0.1569 -0.0340  0.3881
27425W        W43499   3.712   2.923   2.504 -0.0219 -0.1731  0.1554
27426W        W43500  12.454   4.296   3.347  0.1529 -0.2782  0.2983
27427W        W43501  10.291  11.963  16.254  0.0705  0.0010  0.5458
27428W        W43502   1.531   9.039   0.879 -0.0085 -0.1811 -0.0892
27429W        W43503  13.327   5.134   2.766 -0.0547 -0.0446  0.1634
27430W        W43504   4.044  11.768  16.343 -0.0213  0.2509 -0.1158
27431W        W43505  14.246   5.884   0.494  0.1916  0.0221 -0.0408
27432W        W43506  17.242   3.668   1.129 -0.1355  0.0467  0.1554
27433W        W43507   8.079   4.932  11.265 -0.1165 -0.1166  0.0816
27434W        W43508  16.183  14.447   4.549 -0.0989 -0.1294 -0.1835
27435W        W43509  11.451   6.059   1.993 -0.0164  0.2045 -0.4196
27436W        W43510  12.485  15.749  15.021 -0.1144  0.1447 -0.1454
27437W        W43511  17.705  10.606  13.799  0.1204 -0.0616  0.1757
27438W        W43512  10.661   4.750   5.947 -0.4276  0.3595  0.1705
27439W        W43513  12.348   0.072   5.242  0.0768  0.0688 -0.1043
27440W        W43514  17.438   5.215   4.556 -0.1860 -0.2533 -0.0568
27441W        W43515  14.175  11.087  13.593 -0.2344 -0.1116 -0.0477
27442W        W43516   8.000  12.214   0.013 -0.2866  0.1633  0.1880
27443W        W43517  16.742  17.409  12.511 -0.0430 -0.0609  0.0336
27444W        W43518   1.995   6.383   0.859  0.0079  0.0190 -0.0249
27445W        W43519  10.107   3.651  15.504  0.3697  0.1216  0.1873
27446W        W43520   7.030   3.443  14.406  0.0935 -0.1853  0.1191
27447W        W43521   3.235  10.093   3.064  0.2410  0.0722 -0.1663
27448W        W43522  12.208   1.234   0.698  0.0628  0.1448  0.0813
27449W        W43523   1.823  17.751   3.306 -0.0085 -0.0454  0.3087
27450W        W43524   1.506   1.028   5.826  0.0372 -0.3459  0.3581
27451W        W43525   4.678   1.734  12.060 -0.1348  0.1825  0.0755
27452W        W43526   3.840   8.228   2.171  0.1362  0.0744 -0.0422
27453W        W43527  15.733   3.311   0.591 -0.0240 -0.1719 -0.2346
27454W        W43528  16.019   2.409  14.159  0.2318 -0.0066  0.2357
27455W        W43529  10.120  18.182  15.424 -0.1633  0.3296  0.0721
27456W        W43530  14.179  14.846   2.651 -0.1719 -0.0012  0.3720
27457W        W43531   3.984  13.321   1.330  0.1921 -0.0792 -0.1868
27458W        W43532   7.535  13.824   4.419 -0.1947 -0.1818  0.0092
27459W        W43533  11.314   9.265   4.044  0.1904 -0.2100 -0.1834
27460W        W43534  10.604  14.178  15.117  0.1911 -0.0495 -0.0383
27461W        W43535  17.168  15.668   0.615 -0.0453 -0.3306  0.3032
27462W        W43536   2.529   2.157   2.144 -0.1611 -0.6283  0.1976
27463W        W43537   0.635  12.845   4.084 -0.2119  0.1849 -0.0561
27464W        W43538   7.457   5.749   0.488  0.2949 -0.1546  0.1598
27465W        W43539   1.535   4.062   1.425  0.2292  0.4545 -0.1519
27466W        W43540   6.978   4.599   0.602  0.0524 -0.0283 -0.0852
27467W        W43541   3.780   6.862  11.472 -0.1938  0.0215  0.2053
27468W        W43542  14.663   4.718   2.173  0.0273 -0.2588 -0.1354
27469W        W43543   4.208  13.261  10.372  0.0225  0.0049 -0.1686
27470W        W43544  15.592   4.548   1.342  0.2590 -0.2323 -0.1644
27471W        W43545   5.833  16.811   0.395 -0.0679  0.0876  0.0492
27472W        W43546  17.270   9.705   1.565 -0.0658 -0.0463 -0.3456
27473W        W43547   8.806   9.203   5.502  0.0084  0.2527  0.0381
27474W        W43548  15.275   8.329  13.418 -0.3057 -0.2309 -0.1707
27475W        W43549   0.667   6.588   2.303 -0.2390  0.0306  0.0937
27476W        W43550   8.572  16.563   3.345 -0.2338  0.0544  0.4029
27477W        W43551   7.672  13.367  11.336 -0.1853  0.2354  0.0094
27478W        W43552  18.247   8.718   6.013 -0.0745  0.0782  0.2228
27479W        W43553   8.561   4.784  11.097  0.2590 -0.2610  0.1998
27480W        W43554   4.553  13.472  15.125  0.0249 -0.0903 -0.1798
27481W        W43555  14.756  15.550   2.190  0.0523  0.3206 -0.3045
27482W        W43556   6.622   0.198   3.759 -0.2232  0.1423 -0.0207
27483W        W43557   4.948   3.030   5.625 -0.1656 -0.0422 -0.1322
27484W        W43558  12.754  15.304   5.031 -0.0571 -0.1643  0.1054
27485W        W43559   7.737  15.898   4.211 -0.1215  0.2744  0.1397
27486W        W43560  12.441  10.534   5.032  0.1455  0.1467  0.1224
27487W        W43561   9.267   3.083   1.091 -0.4347 -0.1372  0.1857
27488W        W43562   2.712   7.273  12.815 -0.1303 -0.1437  0.1366
27489W        W43563  14.455  11.885  11.556  0.3162 -0.1037  0.0637
27490W        W43564  15.000   0.288   3.422 -0.3195  0.3416 -0.2240
27491W        W43565  18.282  12.470  10.983 -0.4421 -0.1800  0.0644
27492W        W43566  15.335   5.010  15.578  0.0813 -0.2753 -0.0363
27493W        W43567   0.323   8.941   1.183  0.0470  0.1227 -0.0592
27494W        W43568  12.659  17.203  15.957  0.0354 -0.3426 -0.2028
27495W        W43569  16.310   7.415   2.524  0.1652  0.0200  0.1564
27496W        W43570   6.445  17.671  12.995  0.0756  0.0260 -0.2079
27497W        W43571  11.599   6.042   0.233 -0.1218  0.2418  0.0237
27498W        W43572   0.896   6.140  13.623  0.0324  0.2077  0.2057
27499W        W43573   4.654   8.771  13.880 -0.1619 -0.0905 -0.0423
27500W        W43574   9.011   8.512  16.322  0.4015 -0.0796  0.1594
27501W        W43575  13.385  14.637   0.528  0.0425 -0.0756 -0.2215
27502W        W43576  10.876  11.562   1.776  0.1584  0.2664 -0.1978
27503W        W43577  17.677  18.283   0.109  0.2644 -0.3237  0.1401
27504W        W43578   0.550   6.839  13.317 -0.2273  0.0596 -0.1256
27505W        W43579  11.450   2.928  14.327 -0.0514  0.0088  0.0656
27506W        W43580   9.954   2.653  14.616 -0.1727 -0.3646  0.1838
27507W        W43581   8.170   7.679  16.115 -0.0183 -0.3672 -0.1741
27508W        W43582  18.132   2.557   0.684 -0.0675  0.1292 -0.0325
27509W        W43583   7.338  10.745   2.956  0.0454 -0.1656 -0.2349
27510W        W43584   3.722   4.754   5.248  0.1102 -0.2979 -0.0607
27511W        W43585   2.275  10.868   0.980 -0.0772  0.0649 -0.1023
27512W        W43586  14.315   2.798   1.470 -0.1955  0.0573  0.0820
27513W        W43587  14.125   7.254  11.502  0.2557 -0.0224 -0.2966
27514W        W43588  11.632   6.834   2.425 -0.0714  0.0415 -0.0356
27515W        W43589  16.310  12.876  11.968 -0.2166 -0.1071 -0.1898
27516W        W43590   3.663  13.012   4.307 -0.0668 -0.0476 -0.0041
27517W        W43591  10.190   1.218   5.526  0.1361 -0.1843  0.2135
27518W        W43592   0.121  17.648   3.178  0.0730  0.4339 -0.1243
27519W        W43593   0.201  12.401   6.190 -0.0502  0.0249 -0.1551
27520W        W43594  16.863   8.428  12.321 -0.2272 -0.0737 -0.2417
27521W        W43595  14.738  15.044   5.717  0.3790  0.1428  0.0607
27522W        W43596   5.678   0.592   1.683 -0.1322 -0.0719  0.0596
27523W        W43597   2.998   8.261  14.147  0.2194  0.0457  0.0231
27524W        W43598  17.906  14.492   2.217  0.0186 -0.2668 -0.0978
27525W        W43599  11.023  14.561  12.635 -0.2785 -0.3698 -0.0637
27526W        W43600   6.329  16.656   2.967 -0.0200 -0.0447 -0.1358
27527W        W43601   6.363  13.482   5.332 -0.0366 -0.2221  0.1716
27528W        W43602  11.113  16.896   6.184  0.1887 -0.0405  0.0278
27529W        W43603   3.951   6.412   5.502  0.0788  0.0618 -0.0629
27530W        W43604   9.318  11.323  16.099 -0.0073  0.1132 -0.1735
27531W        W43605   6.855  14.824  13.236  0.0411 -0.0923  0.1579
27532W        W43606  14.964  10.616   2.754 -0.1709 -0.1124 -0.1843
27533W        W43607  15.125   7.730   4.666 -0.1789  0.0547  0.1504
27534W        W43608   9.013   6.344  11.661  0.2220 -0.1302  0.1606
27535W        W43609  14.278  15.511   1.865 -0.0970  0.0432 -0.2497
27536W        W43610  10.923   7.679   0.004 -0.0897 -0.1565  0.1132
27537W        W43611   8.158  14.925   1.331 -0.0423 -0.1315  0.0167
27538W        W43612   0.781   0.981   0.478 -0.0559  0.0458 -0.0213
27539W        W43613  14.778  16.131  11.629  0.1251  0.1868  0.1358
27540W        W43614   2.781  13.155   2.238 -0.1984  0.2405 -0.1071
27541W        W43615   3.587  12.673   1.556  0.2258 -0.0377 -0.1111
27542W        W43616   5.896  13.135   5.317 -0.1505 -0.1439 -0.0690
27543W        W43617   4.819   2.829   2.582  0.3673 -0.4100 -0.1857
27544W        W43618  13.781  15.769  11.718  0.3431  0.0021  0.4122
27545W        W43619  15.118   5.494  14.473  0.2144 -0.1019  0.2329
27546W        W43620   6.821   5.962   1.479  0.0384  0.0911 -0.4512
27547W        W43621   4.502   2.630   0.588  0.0366 -0.2993  0.0380
27548W        W43622   0.518   2.563   5.382  0.4028 -0.2556  0.1153
27549W        W43623   5.547   1.267   3.252  0.2414 -0.1034 -0.0795
27550W        W43624  10.315   6.809   2.647 -0.1967  0.0836 -0.1841
27551W        W43625   1.625   1.909  13.701 -0.2201 -0.0650 -0.1516
27552W        W43626   0.623  10.555   1.493 -0.0838 -0.1511 -0.2052
27553W        W43627  10.503   7.275   3.989 -0.2503  0.2640  0.0159
27554W        W43628   7.502   0.856  10.816  0.1336 -0.0380 -0.1349
27555W        W43629   1.699  14.163   4.612 -0.0617 -0.0034  0.0345
27556W        W43630   5.006  11.735  15.900 -0.0127 -0.1157  0.3666
27557W        W43631  16.749   4.212   3.018 -0.0073 -0.1971 -0.1656
27558W        W43632   4.036  17.488  15.780 -0.2730 -0.0782 -0.3371
27559W        W43633  18.198   2.630   1.814 -0.0856 -0.1212 -0.0991
27560W        W43634   8.498  13.046  11.404 -0.2694 -0.2209 -0.2287
27561W        W43635   2.523   7.403   4.121  0.3810 -0.2824 -0.0428
27562W        W43636   5.020   7.060   5.435  0.0199 -0.0378  0.0441
27563W        W43637  14.894   5.036   1.884  0.2253 -0.0909  0.3285
27564W        W43638   4.563   8.339   0.350  0.1968  0.0395 -0.1712
27565W        W43639  13.342   4.690  15.601  0.2185  0.0727 -0.2157
27566W        W43640   1.662   2.684   2.291 -0.0584  0.1396 -0.3687
27567W        W43641  13.103   2.463   2.296  0.1574 -0.1155 -0.3525
27568W        W43642  14.794   9.320  16.038  0.0279 -0.0730 -0.2479
27569W        W43643   9.070   9.361  14.050  0.1188  0.1424  0.3966
27570W        W43644  14.061   2.016  13.226  0.0514  0.0040 -0.1622
27571W        W43645  12.725   4.982  11.317  0.0557 -0.2285 -0.3244
27572W        W43646  17.127  11.774   2.509  0.2025 -0.1524 -0.0693
27573W        W43647  10.534   1.503  11.467  0.0305  0.0975 -0.0620
27574W        W43648   8.006   4.053  12.542 -0.0899 -0.1845  0.1419
27575W        W43649  14.584   6.076  11.964 -0.3978 -0.0218 -0.2062
27576W        W43650  17.606   3.844  11.422  0.1026 -0.1185  0.0499
27577W        W43651  14.403  12.860  13.957 -0.1437 -0.3883 -0.1088
27578W        W43652   8.779  12.792  14.288 -0.0271 -0.0344 -0.0738
27579W        W43653   1.877   8.754  15.988 -0.0458  0.0239  0.1793
27580W        W43654   5.788  16.416  11.871 -0.1591  0.1893  0.0196
27581W        W43655  16.468   1.515   2.058  0.0326  0.1256 -0.0186
27582W        W43656  17.409   6.544   4.162 -0.0257  0.2603 -0.2267
27583W        W43657   7.305   2.285  12.518 -0.0862  0.2044 -0.0680
27584W        W43658  15.977  11.993  12.911 -0.1419  0.3451 -0.1126
27585W        W43659  11.305  11.277   3.968  0.1026  0.0177 -0.3709
27586W        W43660   5.957  17.959   3.881  0.1112  0.0635 -0.0711
27587W        W43661   8.081   1.059  12.331 -0.2109  0.2430  0.0159
27588W        W43662  12.786   0.512   2.475  0.1544 -0.1042 -0.0501
27589W        W43663  14.869   5.171  16.022  0.0732 -0.1983  0.0460
27590W        W43664  10.570  13.332   2.959  0.1610  0.2009 -0.1083
27591W        W43665   5.096   7.176  12.593  0.2398  0.0774  0.1007
27592W        W43666   3.521   0.133   1.718  0.0828  0.3075 -0.0224
27593W        W43667   1.125   5.094   3.548  0.2118 -0.2110  0.3006
27594W        W43668   2.744   0.253  11.897  0.2125 -0.0644 -0.0616
27595W        W43669   7.819  18.148   1.879 -0.0600 -0.1437  0.2963
27596W        W43670  10.531  13.609   3.365 -0.1925 -0.0986  0.4180
27597W        W43671   3.350  16.131   4.577 -0.2854 -0.2390 -0.1069
27598W        W43672  15.138   0.814   0.061 -0.1679  0.0367  0.2153
27599W        W43673   1.164   3.993   2.297 -0.0525  0.1160 -0.1807
27600W        W43674  11.171  17.411  14.358  0.6154 -0.0784  0.3607
27601W        W43675  11.490   6.874  11.402  0.2303 -0.3190 -0.0761
27602W        W43676  12.898   5.607  16.219 -0.1730 -0.2058  0.3155
27603W        W43677  12.334  12.879  11.288  0.2435 -0.0228 -0.1956
27604W        W43678  14.176   8.714  15.581 -0.0112  0.1586  0.0293
27605W        W43679   9.118   1.301   3.581 -0.0628 -0.1844  0.0745
27606W        W43680  17.348   8.972  14.998 -0.0223  0.2208  0.1032
27607W        W43681  13.815   4.577   3.199 -0.3285 -0.0890 -0.0451
27608W        W43682   5.606   7.726   0.025 -0.0580  0.2846  0.0889
27609W        W43683   7.089   2.483  16.111  0.2003 -0.1977  0.1484
27610W        W43684  10.283   1.860   0.608 -0.1010 -0.0889  0.1503
27611W        W43685   0.571   0.045   2.183  0.0022  0.2140  0.1629
27612W        W43686   8.631   0.433  15.874  0.2056  0.2141 -0.0435
27613W        W43687  17.848  17.723  14.660  0.1467 -0.3473 -0.0365
27614W        W43688  12.621  14.626  13.967  0.0205  0.1939 -0.0853
27615W        W43689  13.711  15.674   4.381  0.5145  0.2535 -0.0416
27616W        W43690  16.177   6.616   4.565 -0.3230 -0.2325 -0.1194
27617W        W43691   5.283  14.115   2.463  0.0751  0.0366  0.0960
27618W        W43692   8.384   9.820   5.483  0.0168 -0.1940  0.1048
27619W        W43693  10.971  15.599   3.563  0.1623  0.3058 -0.0091
27620W        W43694  11.388   7.483   4.965  0.2183 -0.0800  0.0490
27621W        W43695  11.877  13.366   6.591  0.0340 -0.1929 -0.2013
27622W        W43696   0.919   2.641  13.390  0.0758  0.1082 -0.0493
27623W        W43697   6.557   8.754   0.319  0.1844  0.1939  0.0865
27624W        W43698  12.236   7.820   1.294 -0.2065 -0.1954 -0.1432
27625W        W43699  17.133  11.372   1.711  0.0019  0.1067 -0.0302
27626W        W43700   1.559  10.316  14.588  0.1199  0.2792  0.0454
27627W        W43701  11.365   8.102   3.499  0.2448 -0.0583  0.0455
27628W        W43702   6.545   1.449  15.301 -0.0281  0.4438 -0.0531
27629W        W43703  12.037  17.776   2.374  0.0273  0.0622  0.0370
27630W        W43704   9.052  14.216   3.259  0.2182  0.2133 -0.1466
27631W        W43705   9.307  11.305  13.907  0.3482 -0.0851  0.0344
27632W        W43706  14.522  11.310  15.732 -0.2967  0.0850 -0.1854
27633W        W43707   4.152  15.023   1.762  0.0243  0.0182 -0.2750
27634W        W43708   3.117  13.136   5.154  0.3984  0.2468  0.1884
27635W        W43709  11.635  11.875   3.884 -0.2830  0.0476 -0.3555
27636W        W43710   3.297   8.820  12.964  0.2664  0.2237  0.0371
27637W        W43711  12.476   2.873  15.455 -0.0276  0.0182  0.0920
27638W        W43712   1.033   6.566   1.407  0.0409 -0.2363 -0.1108
27639W        W43713  12.055  17.860  13.420 -0.1761  0.3497  0.1244
27640W        W43714  15.708   1.539  12.698  0.4117 -0.0507 -0.1107
27641W        W43715   2.249  13.193   5.323  0.2107  0.4184  0.2670
27642W        W43716   6.684  13.583  13.280  0.2065  0.0012 -0.0398
27643W        W43717   4.945   4.751   3.058 -0.1441  0.3741 -0.0341
27644W        W43718   7.226   0.958  13.919 -0.6277  0.1286  0.1457
27645W        W43719  16.946   7.268   2.617 -0.1778 -0.4970  0.5474
27646W        W43720   0.041  13.720   3.832 -0.0373 -0.2280 -0.1579
27647W        W43721   3.898   1.244  13.921 -0.0325 -0.1612  0.0356
27648W        W43722   5.414   0.120  13.120  0.0536 -0.0908  0.1142
27649W        W43723   0.807  15.377  11.668  0.1922 -0.1971 -0.0544
27650W        W43724   6.065  12.546  14.838 -0.1041 -0.1749 -0.1849
27651W        W43725  10.424  15.931  12.863 -0.0151 -0.3983  0.3931
27652W        W43726   7.964   3.966  14.392 -0.2370 -0.0323  0.0525
27653W        W43727  14.374  11.225  14.808  0.3135  0.2165 -0.2013
27654W        W43728   7.932   1.764  16.356  0.0260  0.0679  0.3273
27655W        W43729  11.460  18.082   5.201 -0.0586  0.0082  0.1770
27656W        W43730  11.118   6.777  11.759 -0.2758  0.3735 -0.1190
27657W        W43731   9.833  15.264  15.689  0.0573  0.1722 -0.1092
27658W        W43732   0.509   6.287  12.484 -0.0237 -0.3476 -0.1041
27659W        W43733  16.965  15.626  12.516  0.0903  0.1524 -0.0987
27660W        W43734   8.906   5.621  11.853 -0.0094 -0.0114 -0.1984
27661W        W43735  17.768   9.721  14.087 -0.0199 -0.1743  0.0938
27662W        W43736  16.897   0.037   5.009  0.0580  0.0792  0.0219
27663W        W43737  14.162   3.943  12.471  0.1365  0.1570 -0.1892
27664W        W43738   2.019   0.536  12.162 -0.2094  0.2390 -0.0944
27665W        W43739   6.513  15.730  12.321  0.3041 -0.0988 -0.0415
27666W        W43740  16.619  14.935   0.024  0.2590 -0.0672 -0.3931
27667W        W43741   4.550   4.237  15.122 -0.0139 -0.1576  0.1267
27668W        W43742  12.579  10.872   0.268  0.0474  0.1023 -0.4026
27669W        W43743   7.132   6.618   5.338  0.2284  0.0483 -0.1044
27670W        W43744  14.517  10.676  14.214  0.1382  0.2736 -0.1928
27671W        W43745   1.797   1.015  12.823 -0.0002  0.3789 -0.1426
27672W        W43746   7.593  11.179   0.503 -0.1263 -0.1241  0.1284
27673W        W43747   4.779   6.927   3.973  0.0315 -0.1680 -0.3001
27674W        W43748  12.919  14.323   3.902  0.1794  0.2002 -0.0632
27675W        W43749   0.473  14.944  12.507  0.1578 -0.1731  0.0183
27676W        W43750  16.141  17.843  15.577 -0.0638 -0.0910 -0.3049
27677W        W43751  13.166   4.399   4.036  0.3012  0.0068 -0.0526
27678W        W43752   9.515  11.618  12.555 -0.1549 -0.0408 -0.3338
27679W        W43753  11.775  14.061  13.391 -0.0291 -0.1797  0.3102
27680W        W43754  10.172   7.601  11.478  0.2250  0.0105  0.3417
27681W        W43755   5.806   4.340   3.894 -0.1288  0.1847 -0.0238
27682W        W43756   3.714  17.702   2.217  0.0651  0.2871 -0.1226
27683W        W43757  14.093  11.680   3.567 -0.0786  0.0028 -0.2368
27684W        W43758   9.788  13.578  14.005 -0.0941 -0.2404  0.2043
27685W        W43759  11.276  13.268   0.345  0.1433 -0.3430 -0.1816
27686W        W43760   7.866  12.407   4.917 -0.0042  0.0928  0.1060
27687W        W43761   0.104   3.014   4.599 -0.0586  0.1810  0.1806
27688W        W43762   3.436  13.991   2.210 -0.2923 -0.1097  0.0067
27689W        W43763  10.189  14.798  11.550  0.0178  0.1054  0.0581
27690W        W43764   5.959   2.542   5.177  0.0003  0.1989 -0.1088
27691W        W43765   0.693  14.196   0.433  0.0120  0.0566 -0.0547
27692W        W43766   0.744  16.172   4.653  0.2583  0.1544 -0.3039
27693W        W43767  16.552   2.644  11.449  0.2177  0.0740 -0.0137
27694W        W43768  16.305   0.310   3.087  0.1050  0.2235 -0.0805
27695W        W43769   6.408   4.740   4.130 -0.1600 -0.2358 -0.1896
27696W        W43770  15.961  11.575  11.554 -0.2717 -0.0088 -0.0933
27697W        W43771   3.557  13.450   3.098 -0.0261  0.0107 -0.2218
27698W        W43772  10.043   9.886   5.055 -0.3502 -0.0817 -0.0164
27699W        W43773   5.387  18.090   1.748 -0.0365 -0.1221  0.1546
27700W        W43774   2.942   3.764  12.075 -0.2942  0.2789  0.2909
27701W        W43775   1.897   3.526  14.950  0.0923 -0.3735 -0.0185
27702W        W43776   2.628  10.340   5.754  0.1377  0.1013  0.1046
27703W        W43777  18.305   0.442  13.232  0.1617  0.2097  0.0084
27704W        W43778  15.028   6.355  14.650 -0.3307  0.1288 -0.2655
27705W        W43779   3.395  15.554   4.329 -0.0200 -0.2205 -0.1952
27706W        W43780   5.294  16.630  13.151 -0.0587  0.2272  0.1352
27707W        W43781  13.482   4.503   0.703 -0.1589 -0.4418 -0.3163
27708W        W43782   4.831  15.188  15.888  0.2062  0.2526  0.0721
27709W        W43783   9.165  15.982  13.666  0.0279  0.0220  0.0406
27710W        W43784   3.635   5.032  16.027  0.2337 -0.2634  0.1931
27711W        W43785  17.420   2.784   3.104  0.1795 -0.1871  0.1595
27712W        W43786  17.266  13.679  12.341 -0.1744  0.1682  0.1479
27713W        W43787  18.030   8.856   2.405 -0.2356  0.0605 -0.4345
27714W        W43788   7.685   2.992  13.019  0.2232 -0.0008  0.2338
27715W        W43789   4.978   4.907   4.552 -0.0014 -0.1349  0.0399
27716W        W43790   3.501   1.041   1.533 -0.2149 -0.0764  0.1124
27717W        W43791  15.962   8.963   4.895  0.2203 -0.1162 -0.1632
27718W        W43792   3.959   2.076  13.790  0.0252  0.1162 -0.0975
27719W        W43793  13.149   1.852  12.148  0.2087  0.1790  0.0608
27720W        W43794   4.536   5.516  13.249 -0.0333 -0.1228  0.0646
27721W        W43795   2.234  13.736  14.679 -0.1943 -0.0751  0.1576
27722W        W43796   3.046   4.145  14.925 -0.1624  0.0218  0.0758
27723W        W43797   2.867   1.823  15.867 -0.1954  0.2644  0.1024
27724W        W43798  11.493  17.837  14.691  0.5918 -0.0242  0.0337
27725W        W43799   3.895  13.727   3.384 -0.1055 -0.2606 -0.0670
27726W        W43800  13.224   5.059  14.920 -0.0555 -0.1994  0.3027
27727W        W43801  17.332  10.450  14.558  0.0533  0.2930 -0.3581
27728W        W43802   0.267  13.890  12.800 -0.0050 -0.1475  0.0354
27729W        W43803   4.829  17.189  16.144  0.1043 -0.1303 -0.2920
27730W        W43804   4.915   6.816  15.230 -0.0049 -0.1356  0.1391
27731W        W43805   0.935   2.802  14.198 -0.0671 -0.0980 -0.2379
27732W        W43806   4.210   3.258  13.967  0.0455  0.1794  0.3891
27733W        W43807   1.702   8.162   4.448 -0.4523  0.1044 -0.1785
27734W        W43808   7.696   4.754  14.656 -0.1508 -0.0576 -0.0090
27735W        W43809  12.970  13.050   4.787  0.0923  0.2126 -0.1886
27736W        W43810   3.784   6.502   3.232  0.0279  0.0482 -0.2214
27737W        W43811   8.818  11.467  16.209  0.0700 -0.1378 -0.0245
27738W        W43812   6.872   1.208  15.763 -0.0257 -0.2942 -0.4090
27739W        W43813  11.327   7.688  11.402  0.1649 -0.0336 -0.0740
27740W        W43814   8.271  16.118   0.684 -0.0096  0.1597  0.0335
27741W        W43815   4.993   3.884  16.297  0.1057 -0.3387  0.3243
27742W        W43816   5.005  18.250   4.930 -0.2965 -0.2473 -0.2529
27743W        W43817   8.129   7.895  12.179 -0.0839 -0.0805 -0.0099
27744W        W43818   1.373  12.479  13.292  0.0089  0.0552  0.0876
27745W        W43819   2.196  11.512   2.645  0.0678  0.4951 -0.1598
27746W        W43820   7.655   0.495   2.771  0.1482 -0.0569  0.0333
27747W        W43821  10.701   6.351  16.086 -0.4006 -0.0541  0.0079
27748W        W43822   0.163   4.454   3.180 -0.2495 -0.1757  0.5213
27749W        W43823   2.615   3.766  14.196 -0.1693 -0.0531 -0.2709
27750W        W43824   7.280  13.088   1.382  0.0618 -0.0040 -0.2597
27751W        W43825  12.804  13.940   2.600 -0.1885 -0.1181 -0.0973
27752W        W43826  18.191  10.658  14.723 -0.3577 -0.1523  0.0555
27753W        W43827   8.178  17.442  13.855 -0.0136 -0.0135 -0.0907
27754W        W43828   7.676   2.351  13.836  0.2099 -0.0543  0.2159
27755W        W43829  11.441   8.492   4.862 -0.0105 -0.3910 -0.1960
27756W        W43830   0.025  15.895   4.993  0.0655  0.3503  0.1585
27757W        W43831   6.726   5.065  15.388  0.0902  0.2783  0.2275
27758W        W43832   6.410   8.613  14.681  0.1475  0.2094 -0.0878
27759W        W43833   4.974   4.289   4.515 -0.0004 -0.1327  0.0426
27760W        W43834   9.659   3.375   1.284  0.0433  0.0154 -0.0931
27761W        W43835  11.168  14.165  14.021  0.0217  0.0200 -0.2108
27762W        W43836   0.124  12.127  15.964 -0.0700 -0.2059 -0.0397
27763W        W43837  13.180   3.147   2.957 -0.1184  0.0883 -0.0528
27764W        W43838   3.024   3.393  12.419  0.1430 -0.1111  0.1637
27765W        W43839  12.011   4.671  15.817 -0.0207  0.0026  0.2317
27766W        W43840   9.566   7.976   5.375 -0.1188  0.1997  0.4321
27767W        W43841   6.617   3.192   5.640  0.1299 -0.1838  0.0631
27768W        W43842   6.720   7.353  12.070 -0.1684  0.4058  0.0698
27769W        W43843  11.916   5.631  11.169 -0.0436  0.0522  0.2333
27770W        W43844   1.877  16.155  16.388 -0.0513 -0.1908 -0.0459
27771W        W43845   0.193   8.730  14.996 -0.1699  0.1477 -0.0308
27772W        W43846   1.131   9.132   4.487 -0.1342 -0.0489 -0.3177
27773W        W43847   5.156   2.546   4.431 -0.2885 -0.1816  0.2712
27774W        W43848  17.606   3.999  13.983  0.0588 -0.0433 -0.0091
27775W        W43849   0.786  17.282  15.942  0.0298 -0.2590 -0.3048
27776W        W43850   3.367   6.517   4.351 -0.1819  0.0279 -0.2384
27777W        W43851   7.868  17.239   4.592  0.1932  0.1534 -0.0191
27778W        W43852   0.972   0.255   1.212 -0.0039  0.2391 -0.0608
27779W        W43853   8.890  13.973  14.010  0.1331 -0.1711  0.3181
27780W        W43854   8.058  15.422  13.804 -0.3151 -0.0310  0.1927
27781W        W43855  17.480  17.087  16.336  0.1247  0.1787 -0.3125
27782W        W43856   5.255   5.765  12.192 -0.0193 -0.1162 -0.1301
27783W        W43857  11.403  17.723  11.524  0.1039 -0.2906 -0.2577
27784W        W43858   0.895   4.880   1.603  0.1907  0.3995 -0.2742
27785W        W43859  10.917   7.919   4.679 -0.0133 -0.1226 -0.2942
27786W        W43860  11.025  17.172   4.471  0.3432 -0.0252  0.0516
27787W        W43861   0.398  13.128  12.053  0.1028  0.1095 -0.2793
27788W        W43862  17.025  12.731  15.111 -0.1723  0.0860 -0.1336
27789W        W43863   1.206  13.690   4.071  0.0807 -0.0036 -0.0956
27790W        W43864   7.545   4.954   1.123 -0.1844  0.3060  0.0415
27791W        W43865  13.941   7.176  15.568  0.0829  0.0546 -0.2264
27792W        W43866   0.410  14.622   4.553 -0.0743  0.1415 -0.1265
27793W        W43867   0.849   2.607   5.796 -0.0444 -0.0340  0.6126
27794W        W43868   2.415   3.294   4.761 -0.1389  0.4460 -0.1382
27795W        W43869   2.298  11.080  13.000 -0.0787  0.1007  0.4164
27796W        W43870   5.002  12.302  14.288 -0.1225  0.0760  0.2511
27797W        W43871  10.485   1.054   1.906  0.0687 -0.0431  0.2011
27798W        W43872  12.586   3.127  14.257  0.0278 -0.3512  0.0032
27799W        W43873  14.086   7.079  13.975 -0.1314  0.1234  0.0964
27800W        W43874   1.594  13.179  12.571 -0.4357  0.4140  0.1717
27801W        W43875  13.871  16.452   0.019  0.5674 -0.0536 -0.4643
27802W        W43876  17.487  10.928  11.701 -0.2524 -0.0217 -0.0401
27803W        W43877   7.171   4.171   1.711  0.1084  0.1240  0.0728
27804W        W43878  17.232  14.759   0.497 -0.0827  0.2202  0.0778
27805W        W43879  15.175   3.210   5.649  0.1572 -0.1367  0.2987
27806W        W43880   9.039  11.752   5.356 -0.0514 -0.1070  0.0775
27807W        W43881  11.594   2.173  15.804 -0.0125  0.1723 -0.0077
27808W        W43882  12.515   8.964   0.109  0.0319  0.0800  0.1406
27809W        W43883  16.457   2.899   5.097 -0.0097 -0.1956 -0.1594
27810W        W43884  13.600   0.161   5.846 -0.4151 -0.0848 -0.2464
27811W        W43885  16.168   4.328  11.384 -0.2396  0.0567 -0.3722
27812W        W43886   0.662   8.132   3.162 -0.2074  0.1344  0.2153
27813W        W43887   3.747   2.152   3.229 -0.2047  0.1093 -0.1514
27814W        W43888  14.172  16.636  13.455  0.0093  0.0791  0.0699
27815W        W43889   8.663   3.725  12.310 -0.0945 -0.2218  0.0849
27816W        W43890   0.046  17.296   4.241 -0.0095 -0.1894 -0.4112
27817W        W43891   4.416  16.010   5.595  0.2024 -0.2344  0.2918
27818W        W43892   9.090  12.663   1.458  0.0899  0.0674 -0.2420
27819W        W43893  11.304  18.111  15.741  0.0323  0.2968  0.2333
27820W        W43894   4.067   4.390  13.513 -0.0393 -0.2671 -0.1857
27821W        W43895   8.254   2.151   3.592  0.1589 -0.2867 -0.0138
27822W        W43896   4.189   4.139  14.723  0.1514 -0.1971 -0.1044
27823W        W43897  12.127   5.345  13.848  0.2090  0.0806 -0.1703
27824W        W43898  10.039  14.255  11.651  0.0734 -0.2405 -0.1511
27825W        W43899  10.599  12.890  14.130 -0.3013 -0.2457  0.0986
27826W        W43900  11.904   2.919   1.467  0.3180 -0.0814  0.2492
27827W        W43901  14.917   4.628  14.902 -0.0454 -0.0957 -0.2443
27828W        W43902  15.243  17.935  12.939 -0.1500 -0.0060  0.2539
27829W        W43903   7.256  12.967   0.358 -0.1578  0.1424  0.0315
27830W        W43904  17.614   6.670   3.147  0.0055  0.2148 -0.0130
27831W        W43905   5.640   8.112   3.781  0.0844 -0.0453  0.5047
27832W        W43906   9.947   7.719   0.318 -0.0264 -0.2635  0.0571
27833W        W43907  17.330  13.005   1.693 -0.1637 -0.0350 -0.2243
27834W        W43908  15.539   2.446   0.948 -0.5101  0.0222 -0.1779
27835W        W43909   5.220   5.950   1.480 -0.4450 -0.1697  0.2847
27836W        W43910   1.125  11.456  12.046 -0.1737  0.1855 -0.0880
27837W        W43911   2.597  17.822  16.173  0.1813 -0.1792 -0.2200
27838W        W43912  15.964   0.515   5.535  0.0379  0.0612 -0.1404
27839W        W43913   0.281   4.475   1.048 -0.0222  0.1959 -0.0542
27840W        W43914  16.470   6.243  15.753 -0.0450 -0.2546 -0.1147
27841W        W43915  17.118  14.039   2.664 -0.1608 -0.0484 -0.1657
27842W        W43916  12.222   7.959   5.213 -0.2806  0.0211 -0.1591
27843W        W43917  10.807   7.908  12.800  0.2251  0.1532 -0.0795
27844W        W43918   5.992   4.134  15.200 -0.3603  0.3117 -0.1593
27845W        W43919  13.156   4.223   2.807  0.1045  0.1868 -0.0718
27846W        W43920  16.771  13.088   1.447 -0.1818 -0.2016 -0.1733
27847W        W43921   8.867   4.381  10.571  0.3599  0.1512 -0.1117
27848W        W43922   7.105   2.198   1.297 -0.4514  0.0253 -0.2469
27849W        W43923   7.956  13.600   2.247  0.4617 -0.2010  0.2327
27850W        W43924  11.007   0.655   5.075 -0.3092 -0.3684  0.0509
27851W        W43925   6.990   5.624  14.444 -0.1662 -0.0581  0.0021
27852W        W43926  10.154  10.092   2.804  0.2127  0.2445  0.2742
27853W        W43927   0.431   6.280  15.070  0.1249 -0.0853  0.0539
27854W        W43928  18.124   3.393  13.928 -0.0699 -0.1006 -0.0972
27855W        W43929   9.613   3.786  11.808  0.0697  0.2761 -0.3685
27856W        W43930  15.967   2.044   3.311  0.2092 -0.2001  0.2306
27857W        W43931  11.775   5.387   3.431 -0.0939  0.1787 -0.2643
27858W        W43932   3.683   1.002  15.363  0.4492  0.1445  0.0960
27859W        W43933   6.193  13.478  15.036  0.1610  0.3187  0.2072
27860W        W43934  11.269   3.926   1.818  0.0755  0.2269  0.2174
27861W        W43935  10.099   4.726   4.551  0.3441 -0.0616  0.2101
27862W        W43936  16.197   7.254   1.864 -0.0489 -0.0166  0.0418
27863W        W43937   5.150  12.356  15.633 -0.3522 -0.3043 -0.3480
27864W        W43938   5.446   7.174   5.219 -0.3698 -0.0542  0.1949
27865W        W43939   1.338   6.565   5.393 -0.0907  0.0432  0.3332
27866W        W43940   2.566   9.314   4.119  0.1741 -0.1238  0.3649
27867W        W43941   1.747   2.293   3.747  0.4497 -0.2637  0.2330
27868W        W43942   1.146   9.994  11.328  0.1128  0.1355  0.1032
27869W        W43943   1.397   0.047   1.134  0.1129  0.0443 -0.1977
27870W        W43944  16.488   7.913   2.646  0.1278 -0.2065 -0.1204
27871W        W43945   9.557  11.317   2.523  0.1327  0.0676  0.0068
27872W        W43946   2.418   5.370   3.229 -0.0072 -0.2173 -0.3024
27873W        W43947  11.933   8.316   3.555  0.1754 -0.3446  0.3609
27874W        W43948  13.765  13.911  14.793 -0.2160 -0.0447 -0.2460
27875W        W43949  11.404   5.395  14.733 -0.2257 -0.2728  0.0603
27876W        W43950   8.378   0.967  11.930 -0.0316  0.1045  0.1887
27877W        W43951  15.549  14.396  15.926 -0.1108  0.0708 -0.2942
27878W        W43952  16.534  14.984  14.257 -0.4937  0.2048 -0.2393
27879W        W43953   7.615   4.453   2.492 -0.0451 -0.3571 -0.1557
27880W        W43954  17.896  15.959  12.864 -0.1857 -0.0022 -0.1202
27881W        W43955   6.525   5.539   1.540 -0.1189  0.0403  0.0526
27882W        W43956   3.232  11.137   5.507  0.1565 -0.1588  0.1186
27883W        W43957   9.375   4.094   3.746 -0.0305 -0.0062  0.5350
27884W        W43958   7.942  16.191  11.592 -0.1061 -0.0678 -0.1901
27885W        W43959   5.519  12.358  14.230 -0.3962  0.2460  0.3698
27886W        W43960  15.277  17.026   3.047 -0.1436  0.2699 -0.0568
27887W        W43961   9.021  15.752  15.661  0.3591  0.0489  0.3539
27888W        W43962  16.456  10.591  13.211 -0.3097 -0.0702 -0.1317
27889W        W43963   4.123  14.372   1.612  0.0186  0.0002 -0.3144
27890W        W43964   8.602  15.396  15.709  0.0914 -0.1337 -0.4125
27891W        W43965  17.839  14.927   0.287  0.2096 -0.3115 -0.1042
27892W        W43966  11.391   7.128  12.846  0.0492  0.1840 -0.3278
27893W        W43967  11.917   1.905  13.522 -0.0616 -0.0547 -0.2205
27894W        W43968   4.214  16.817   4.222 -0.1373  0.1797 -0.0030
27895W        W43969  17.159   3.004   3.949  0.0907 -0.1791  0.1912
27896W        W43970   0.644  14.911   1.015 -0.2801  0.3332  0.0599
27897W        W43971  10.162   6.872  12.306 -0.1992 -0.3879 -0.2151
27898W        W43972  11.473   3.299   4.470 -0.0937  0.1345  0.0596
27899W        W43973  17.129   5.080  14.133 -0.3642  0.1292  0.2750
27900W        W43974   5.259  16.822  15.362  0.3988  0.5197  0.0026
27901W        W43975   4.362  14.519  13.834  0.4246 -0.2779 -0.2678
27902W        W43976  13.803  10.098   1.594  0.1440  0.2525  0.0478
27903W        W43977   1.378  12.072  14.333 -0.0394 -0.1486 -0.4108
27904W        W43978   2.729   6.499   3.561  0.1395  0.2659 -0.3534
27905W        W43979  15.738  10.097   5.549  0.3364 -0.0526  0.3033
27906W        W43980  14.910   1.402  11.227 -0.0708  0.2130 -0.2014
27907W        W43981  14.730  10.719  13.606 -0.1169 -0.0616  0.1272
27908W        W43982  11.948  18.325  12.080  0.3898  0.0521  0.0937
27909W        W43983   9.886   5.251   0.008  0.0038  0.1929  0.0794
27910W        W43984   6.777  11.413   0.056  0.1252  0.0280  0.0918
27911W        W43985  15.519  16.487   0.944  0.3446 -0.2711 -0.0331
27912W        W43986   8.369  11.432  13.714 -0.1773 -0.2749 -0.1845
27913W        W43987  12.895   8.689  13.653  0.2397 -0.0130  0.2504
27914W        W43988   1.514  16.962   4.557  0.1798  0.1528  0.1529
27915W        W43989  10.902   7.118  13.915  0.1072  0.1959  0.1485
27916W        W43990   1.445  16.943  16.287  0.2502  0.2524 -0.0623
27917W        W43991   2.248   8.647   2.191  0.1247 -0.0654 -0.0293
27918W        W43992  12.073  14.771   5.462 -0.0491 -0.2337 -0.3750
27919W        W43993  16.641  12.340  13.919 -0.0100  0.3738  0.0285
27920W        W43994   4.488  16.530  11.614 -0.1422  0.1296 -0.1108
27921W        W43995  13.755  12.517  13.704  0.1064 -0.2371  0.1900
27922W        W43996   5.222  17.769   4.973  0.1482  0.2290  0.1459
27923W        W43997   1.895  14.999  13.107 -0.1530  0.1961 -0.1018
27924W        W43998   5.321   2.879   3.490  0.0910 -0.1792 -0.0329
27925W        W43999   6.045  11.737   5.537  0.0683 -0.1927 -0.1361
27926W        W44000   0.703   1.603  12.525 -0.4068  0.1594 -0.1660
27927W        W44001  16.181   0.253  15.691  0.2229 -0.0227  0.0079
27928W        W44002  14.808  15.425  15.393  0.2205  0.0210 -0.3359
27929W        W44003   3.603  17.057   0.244  0.1366 -0.0341  0.1714
27930W        W44004  11.481  16.947   1.116  0.3671  0.2392  0.0244
27931W        W44005   9.958  10.582  13.000 -0.0928 -0.0996  0.2001
27932W        W44006   0.523  17.567  15.033  0.1116 -0.0703  0.1011
27933W        W44007   8.299  11.358  12.319  0.1138 -0.3723  0.0031
27934W        W44008   3.542   9.864   2.445  0.4478 -0.2275  0.3509
27935W        W44009   5.219   7.649   0.415 -0.0220 -0.0611  0.1600
27936W        W44010   8.131  15.851   0.036 -0.3109  0.4059 -0.2245
27937W        W44011  11.718  17.775   4.243 -0.1938 -0.0313  0.2512
27938W        W44012  12.938   9.449  15.842 -0.1609  0.1922 -0.2217
27939W        W44013   0.865  10.962   3.527  0.1234  0.2227  0.0277
27940W        W44014  10.058  16.510   2.286 -0.0647 -0.0215  0.0443
27941W        W44015   7.569   9.463  12.030 -0.3505  0.2287  0.0243
27942W        W44016  13.631   3.394  12.470 -0.1203 -0.2054 -0.1111
27943W        W44017   3.194  13.122   3.003  0.1150 -0.2939 -0.0064
27944W        W44018   1.308  14.345   4.821  0.1588 -0.2754  0.0647
27945W        W44019   8.830  11.956   3.946 -0.2770 -0.0248  0.0140
27946W        W44020   7.851  10.512  13.689 -0.2513 -0.0966 -0.0364
27947W        W44021   8.837  15.893  11.881 -0.2164 -0.1336  0.1110
27948W        W44022  11.970  15.852  12.788 -0.1926  0.1388 -0.0633
27949W        W44023   2.559   6.044   3.100  0.1014  0.0712  0.2766
27950W        W44024  17.530  14.377  11.582  0.0049 -0.0442 -0.1740
27951W        W44025  15.735   7.737   0.944 -0.2506  0.0239  0.1662
27952W        W44026  16.904  13.784  12.669  0.2070 -0.1775 -0.0340
27953W        W44027  16.319   4.416  12.991 -0.0416  0.3368 -0.2529
27954W        W44028  14.783   4.117   5.212  0.1932  0.4527  0.0662
27955W        W44029   8.943  13.274  12.745  0.3302 -0.3276 -0.0604
27956W        W44030   7.892  13.461   0.891  0.0764  0.2318 -0.2732
27957W        W44031   3.823  15.053  13.312  0.0196 -0.0116  0.0076
27958W        W44032   2.139  17.991  12.483  0.3237  0.3012 -0.0504
27959W        W44033  11.947  11.939   4.335  0.0483  0.0289  0.2056
27960W        W44034   4.872  14.894  13.181  0.0648 -0.3806  0.1677
27961W        W44035   1.097   8.719   2.199 -0.0019 -0.1887  0.2569
27962W        W44036  14.511   0.362   0.569 -0.3112  0.1288 -0.0748
27963W        W44037  14.778   3.693  13.841 -0.1196  0.0861  0.0459
27964W        W44038  13.203   0.813  13.616 -0.2069 -0.0103  0.0763
27965W        W44039  13.476   5.192   1.805 -0.1258  0.2648 -0.2092
27966W        W44040   9.399   5.102   0.659 -0.3734 -0.2266 -0.2225
27967W        W44041  10.472  15.471  12.995 -0.2264 -0.1259 -0.3550
27968W        W44042   3.122   6.104   3.721 -0.0076  0.1483 -0.0993
27969W        W44043   5.652   0.175   1.407 -0.0175  0.0686 -0.1492
27970W        W44044   9.162   3.647   3.191  0.4142  0.1787  0.4942
27971W        W44045   5.336  13.799  15.328 -0.0624  0.1986  0.0731
27972W        W44046   4.668  11.028   0.303 -0.1982  0.4848 -0.1007
27973W        W44047  14.874  15.319  12.431 -0.0754  0.1414  0.0815
27974W        W44048  15.068   2.768  13.245  0.2335  0.0404 -0.0331
27975W        W44049  12.624  16.301   0.899  0.0532 -0.1156  0.0615
27976W        W44050   2.878  11.590  15.686 -0.2608  0.1636 -0.1802
27977W        W44051  13.342   6.285  13.712  0.2365  0.1659 -0.1268
27978W        W44052  14.441  10.205   5.020 -0.3104 -0.0730 -0.1381
27979W        W44053  10.466   7.261  13.728 -0.2553 -0.0469  0.0141
27980W        W44054   9.597  11.663   2.052 -0.1065 -0.5083  0.5477
27981W        W44055   3.578   1.288   5.218  0.0848  0.1810 -0.0343
27982W        W44056  11.295  11.389  14.902  0.1994  0.0041  0.1874
27983W        W44057  11.622   6.123  13.788  0.0893 -0.4417 -0.2876
27984W        W44058  12.009  10.145   0.199 -0.0990 -0.1565 -0.0433
27985W        W44059  11.436  18.172  11.959 -0.4341  0.1528  0.2711
27986W        W44060   9.692   9.614   0.136  0.0552  0.1543  0.1830
27987W        W44061   7.350   6.190  15.021  0.5577  0.1333 -0.1798
27988W        W44062   1.768   4.834  11.894 -0.0624  0.1483 -0.2593
27989W        W44063   1.132  17.522   2.593 -0.0129  0.1298  0.0761
27990W        W44064   8.783   9.945  15.001  0.0056 -0.0359  0.0825
27991W        W44065   2.695  11.264  13.499  0.3577 -0.0056  0.0367
27992W        W44066   6.852   9.649   5.073  0.1063  0.1074  0.1188
27993W        W44067  17.955  16.540   2.668  0.0481  0.0709  0.2318
27994W        W44068  13.050   7.275  12.380 -0.2323 -0.2399  0.0701
27995W        W44069   8.261  12.579  13.104  0.0248 -0.5019  0.1149
27996W        W44070  12.943   9.170  16.333 -0.2193  0.1091  0.0814
27997W        W44071  17.647  13.394  16.254 -0.1284  0.2836 -0.3446
27998W        W44072   0.335  16.780   4.979  0.0605 -0.0879 -0.0155
27999W        W44073  12.821  18.007   0.130  0.2680  0.1060 -0.1472
28000W        W44074   1.263   8.347   6.250 -0.3310 -0.1809  0.1327
28001W        W44075   7.492  10.107  15.732  0.3346  0.3419  0.1448
28002W        W44076   1.572   8.465   1.516 -0.0290  0.2633  0.0905
28003W        W44077  15.681   1.245   0.665 -0.2160  0.0307  0.1218
28004W        W44078   6.909   2.664  10.412  0.1318  0.0078  0.0755
28005W        W44079   2.633   4.079   2.609 -0.0122  0.0629 -0.0655
28006W        W44080  13.430  14.486   4.953 -0.0344 -0.3771 -0.0309
28007W        W44081   7.048   6.364  12.802 -0.0259  0.2353  0.2840
28008W        W44082   9.316  12.806  14.197  0.3943  0.0033 -0.1565
28009W        W44083   7.222   5.921   0.947 -0.0663  0.0918  0.0057
28010W        W44084  15.880   0.350   3.378  0.1212 -0.0796  0.0515
28011W        W44085  15.377   5.093  16.124 -0.2904  0.2118  0.2498
28012W        W44086   4.315  17.868  15.690 -0.2570  0.2603  0.1758
28013W        W44087   0.675   4.140   3.492  0.0778 -0.1177  0.1678
28014W        W44088  10.110   7.131  11.604  0.2750 -0.2044  0.2776
28015W        W44089  12.383   7.079   3.009 -0.0541 -0.0181 -0.0464
28016W        W44090  13.915   8.901  14.301 -0.2154  0.0916  0.2768
28017W        W44091  13.024  12.740  15.440  0.2459  0.1333 -0.1340
28018W        W44092   6.884  10.400   3.363  0.0185  0.0083 -0.0668
28019W        W44093   3.372   1.221  16.330 -0.2729 -0.1146 -0.1404
28020W        W44094  10.737   4.646   2.101  0.1875  0.0402 -0.0979
28021W        W44095   2.124  14.528   1.776  0.0255  0.1773  0.0216
28022W        W44096   0.026  11.222  11.943  0.1784  0.2615 -0.1964
28023W        W44097   1.519  10.011  13.301 -0.1162  0.4021  0.0921
28024W        W44098   4.001  14.759   6.228  0.2484 -0.2998  0.0001
28025W        W44099   6.711   9.139  11.640  0.1356 -0.1427  0.1269
28026W        W44100   2.892   7.355  11.492  0.1784 -0.0647 -0.2027
28027W        W44101   5.042   9.112  13.833 -0.2215 -0.1678 -0.2649
28028W        W44102  11.992  17.260  11.164 -0.0866 -0.0458 -0.2285
28029W        W44103  10.193  15.615   3.653  0.2167  0.1940 -0.0328
28030W        W44104   1.661   6.836   2.392  0.1510  0.1497  0.0004
28031W        W44105   9.808   7.334  15.446 -0.2224  0.0840 -0.3075
28032W        W44106  14.407   1.319   2.433  0.0379 -0.0209 -0.0956
28033W        W44107   2.621  13.534  14.225  0.3111  0.0602  0.4302
28034W        W44108  16.869   9.497   3.635  0.0094  0.0990  0.1038
28035W        W44109   7.377   6.775  12.681  0.1275  0.3537  0.1134
28036W        W44110   6.150   7.878  14.196 -0.3061 -0.1736  0.0801
28037W        W44111   2.582   1.495   4.403 -0.1838  0.3961 -0.2168
28038W        W44112  12.833  12.551   2.705  0.0205 -0.0655  0.0827
28039W        W44113  14.314   1.952   5.438 -0.3936  0.2207 -0.0554
28040W        W44114  16.781   2.922   0.664  0.0759  0.3257  0.1214
28041W        W44115  15.351  15.100   2.641  0.0506  0.0640 -0.1058
28042W        W44116  16.573  14.123  14.986  0.0557  0.1758 -0.1429
28043W        W44117  11.816  10.401   0.776 -0.2349 -0.0038 -0.0027
28044W        W44118  17.592  13.495  13.580 -0.4375 -0.0768  0.0400
28045W        W44119   9.846   2.785   3.091  0.0964  0.1297 -0.0858
28046W        W44120   3.717  15.528  14.650  0.0813  0.1575 -0.0920
28047W        W44121   7.640   0.270  15.800  0.1563  0.2393 -0.0442
28048W        W44122  15.497   1.035  12.408 -0.2820  0.2882 -0.1128
28049W        W44123  17.997  12.967  15.273 -0.0743  0.0972 -0.0835
28050W        W44124   4.608   0.755   1.377 -0.4239 -0.0070  0.1697
28051W        W44125  11.665   8.113   0.877  0.0968  0.0407 -0.1910
28052W        W44126  16.649   5.192  14.842 -0.1124  0.0706 -0.1360
28053W        W44127   4.171   7.930   4.726 -0.0191 -0.0203 -0.0031
28054W        W44128  12.082   6.098   4.948  0.0833  0.0638  0.3120
28055W        W44129  13.943  10.801  12.012 -0.0612 -0.2280 -0.1420
28056W        W44130   3.828  10.601  11.773  0.1267 -0.6273 -0.3379
28057W        W44131  11.517  15.908  12.350 -0.2198 -0.2655 -0.0289
28058W        W44132   9.427   9.050   4.672 -0.0976 -0.4458 -0.2004
28059W        W44133  17.990   2.834   0.140  0.0081  0.0043  0.2014
28060W        W44134  18.233  16.250   0.821  0.0307 -0.2187 -0.2079
28061W        W44135  14.452  10.163   2.113 -0.1716  0.1388  0.3433
28062W        W44136   6.349   3.258  12.712  0.0932  0.1381 -0.2465
28063W        W44137   9.473   7.522  12.679 -0.3543  0.2391  0.1458
28064W        W44138   8.929   7.816  11.839  0.2542  0.2336  0.1928
28065W        W44139  12.315  14.680  15.988 -0.0394 -0.1857  0.4652
28066W        W44140  17.719   3.614   5.249 -0.1670 -0.1909  0.0332
28067W        W44141   8.335   8.750   0.655  0.0788  0.0832  0.0545
28068W        W44142   7.193  15.005   2.331  0.0790 -0.0662  0.1519
28069W        W44143  17.989   7.829  15.130 -0.4103 -0.2356 -0.1200
28070W        W44144  12.846  14.831  12.654  0.2359 -0.2165 -0.6518
28071W        W44145  13.145   5.788  11.454  0.1282  0.0549  0.0985
28072W        W44146   7.728   1.170   4.844  0.2242  0.0678 -0.2550
28073W        W44147   1.607  12.686   1.742 -0.0264  0.1845 -0.3194
28074W        W44148  10.984   7.029   4.839  0.2053  0.0679 -0.2546
28075W        W44149   4.537   8.512  11.606 -0.2184 -0.0673 -0.1357
28076W        W44150   1.922   1.895   5.839  0.1428 -0.1755 -0.1110
28077W        W44151   0.845  11.395   3.237  0.4491  0.3660 -0.0249
28078W        W44152   0.291  15.159  13.834  0.2548 -0.5514  0.1316
28079W        W44153  14.196   8.279  11.773 -0.1018  0.0880  0.1378
28080W        W44154   9.962  11.346   5.514 -0.0237  0.2799  0.0296
28081W        W44155  14.852   3.932   3.274 -0.2074 -0.1230  0.3003
28082W        W44156   8.253   6.900  16.207  0.2404  0.0360 -0.0696
28083W        W44157  11.448   2.869  15.772 -0.2327  0.1436 -0.0414
28084W        W44158  13.862   4.538   5.348 -0.2950  0.3747  0.0658
28085W        W44159   1.199   7.262  11.266 -0.0229  0.1934 -0.4454
28086W        W44160  17.593   4.020   5.491 -0.0710 -0.3707  0.0892
28087W        W44161   9.823  13.178  11.360 -0.3165 -0.0144  0.2147
28088W        W44162   5.616  16.402   4.668 -0.0360  0.1581  0.0683
28089W        W44163  15.652  11.847   1.287  0.1317  0.2257 -0.1191
28090W        W44164   1.210  13.146   3.386  0.1684  0.2467  0.2734
28091W        W44165   5.062  14.305   4.298  0.0486 -0.2301 -0.0071
28092W        W44166  15.024   6.756   3.119  0.2400 -0.1927  0.1427
28093W        W44167  12.026   8.452   3.069 -0.0646  0.3843  0.1105
28094W        W44168   6.946  14.438  11.307 -0.1562 -0.1508 -0.0099
28095W        W44169  12.444  15.330   4.530 -0.1971  0.0476  0.3205
28096W        W44170  14.343  10.915  12.719  0.1394  0.1942  0.2352
28097W        W44171   4.962  16.545   4.134 -0.1784  0.0456 -0.1179
28098W        W44172   6.453  15.148   4.231  0.0948 -0.0925  0.3163
28099W        W44173   3.140  16.852   0.933  0.2843 -0.4908  0.0638
28100W        W44174   3.295  17.697   5.169  0.1022  0.3408 -0.0282
28101W        W44175   6.608   7.890   3.313  0.0849 -0.3428 -0.1341
28102W        W44176   4.119  12.724   1.361 -0.0265 -0.5543 -0.1393
28103W        W44177   1.525   9.536  12.166 -0.7389 -0.0481 -0.1707
28104W        W44178  12.310   9.150   3.666 -0.1125  0.0478 -0.2453
28105W        W44179  13.525  17.955   5.514  0.1497 -0.0129 -0.1009
28106W        W44180  14.491   0.225  12.085 -0.2194  0.0449 -0.0528
28107W        W44181  18.309  16.506   3.550  0.0800 -0.2868  0.3021
28108W        W44182  15.937  15.859  13.287  0.0170 -0.2269  0.0153
28109W        W44183   1.270   8.249  11.494  0.1273 -0.0786 -0.1491
28110W        W44184  15.877   1.103   1.596 -0.0660 -0.1586  0.2492
28111W        W44185   5.960   8.436  11.561  0.0907 -0.1977  0.1926
28112W        W44186   2.849   5.767  16.017 -0.0255 -0.0566 -0.2177
28113W        W44187  12.892   5.371   0.305 -0.3188  0.1250  0.0168
28114W        W44188   7.320   6.548   3.070 -0.0246  0.1656 -0.0739
28115W        W44189   3.170  11.014  16.362 -0.2847 -0.0879  0.1896
28116W        W44190   3.006   7.478  13.211 -0.0491  0.0369  0.1340
28117W        W44191  10.666  17.084   0.118 -0.0040  0.2759 -0.1458
28118W        W44192   4.851  15.784   3.692 -0.0077 -0.0736  0.1541
28119W        W44193   9.727   6.199  16.073  0.3830  0.1108 -0.2114
28120W        W44194  11.509   9.012  16.151  0.0680  0.1752 -0.0177
28121W        W44195   8.635   9.866  16.370  0.1308  0.0012  0.0737
28122W        W44196   7.860   3.985  13.172  0.1184 -0.2181 -0.1849
28123W        W44197  11.024   8.231   5.081  0.3327 -0.0317  0.1910
28124W        W44198  15.396   0.756   0.559 -0.1758 -0.1050  0.0555
28125W        W44199  16.223   3.612  13.095 -0.1265  0.0843 -0.1850
28126W        W44200  14.334   4.450   3.446  0.1197 -0.1563 -0.0858
28127W        W44201   0.550  13.250   2.184 -0.2146  0.3233  0.1137
28128W        W44202   9.004  18.300   4.794  0.0453 -0.1967 -0.2083
28129W        W44203   6.102  16.029  12.337  0.1033 -0.1152 -0.0969
28130W        W44204  17.385  11.314  12.040  0.2540 -0.1079  0.0174
28131W        W44205   3.008  14.297   4.173  0.2003  0.0353 -0.0365
28132W        W44206  16.867   0.451   1.225 -0.2114  0.1397  0.0178
28133W        W44207  13.746   3.135   2.195  0.0771  0.1743 -0.0411
28134W        W44208  17.276   2.623   2.659  0.0713 -0.0643  0.0450
28135W        W44209   1.468   4.318  13.103 -0.0736  0.1144  0.0827
28136W        W44210   0.921  17.059  13.176  0.3753  0.1371  0.0642
28137W        W44211  16.894  17.978   5.378 -0.1830  0.1291 -0.0859
28138W        W44212   0.584  16.462  14.905  0.2162 -0.2651 -0.2834
28139W        W44213  17.271   1.439   2.767 -0.2799 -0.0759 -0.2312
28140W        W44214  10.685  10.912  12.018  0.3156  0.1957  0.1198
28141W        W44215  12.496  15.263  11.668 -0.0962  0.1908 -0.4037
28142W        W44216   0.742   4.251  14.137  0.0498 -0.0543  0.1107
28143W        W44217  13.516  17.789   6.374  0.3750  0.0100 -0.0533
28144W        W44218  12.785   9.373   1.336  0.1350  0.2099  0.0514
28145W        W44219   3.691  18.165   5.851  0.1498  0.0202  0.2272
28146W        W44220   3.286   5.255   3.808 -0.1322 -0.0194  0.1612
28147W        W44221   9.400   7.918  15.348 -0.1677 -0.1261 -0.0206
28148W        W44222   2.995   7.681   2.888 -0.1762 -0.0304  0.0627
28149W        W44223   5.854   3.913   1.026 -0.1531  0.3878  0.2303
28150W        W44224  15.889   8.295   4.545 -0.3536 -0.0894 -0.0649
28151W        W44225   9.871   5.707   3.218  0.2096 -0.1968  0.1698
28152W        W44226  14.292   6.738  12.285  0.2395  0.0242  0.0207
28153W        W44227  17.471   4.594   0.293 -0.2049  0.2039 -0.0155
28154W        W44228  10.430  10.917   2.969 -0.1728  0.0616  0.1364
28155W        W44229   6.424   4.564  10.246 -0.0729  0.0171 -0.2659
28156W        W44230  17.444   7.131   4.789 -0.0941  0.2495  0.1013
28157W        W44231  12.496  10.438  12.107  0.1814  0.0082  0.1044
28158W        W44232  17.002  17.905  13.080  0.0760  0.1638 -0.0580
28159W        W44233  11.113  16.999  11.176  0.1368  0.1714 -0.4117
28160W        W44234   1.250   1.760  15.806  0.2028  0.0990 -0.0159
28161W        W44235  13.563  13.904   3.660  0.3711  0.4588  0.3380
28162W        W44236  12.474   6.516  14.485  0.1817 -0.2004 -0.2328
28163W        W44237   3.796   0.069  15.354 -0.1589  0.1137  0.0978
28164W        W44238   5.416   1.756   4.847 -0.1664 -0.0435  0.0364
28165W        W44239   2.918  16.931  16.008 -0.1326  0.1387  0.2560
28166W        W44240   8.880  16.844  15.031 -0.2717 -0.0443  0.1208
28167W        W44241  11.015   9.884  12.863  0.0553 -0.0752  0.2044
28168W        W44242   6.359   0.619  11.159  0.5761  0.2594 -0.2938
28169W        W44243   1.521   7.320   4.809  0.1546  0.2344  0.3520
28170W        W44244  10.393  10.078  13.868  0.0420 -0.4765  0.2234
28171W        W44245   4.130   5.243  13.384  0.2652  0.3959  0.0027
28172W        W44246   8.793   7.967   3.680  0.1730  0.0117  0.1072
28173W        W44247   6.083  13.671   0.481 -0.1100 -0.2667 -0.0959
28174W        W44248  14.512  16.601   0.706 -0.2186  0.4250 -0.0006
28175W        W44249   3.749  15.029   0.579 -0.2274 -0.3087 -0.1101
28176W        W44250  11.932  14.382  15.926  0.1006  0.0544  0.2603
28177W        W44251   8.330  16.855   4.010  0.0253  0.3171 -0.2354
28178W        W44252   5.592  11.599   1.376 -0.2110  0.0204  0.0095
28179W        W44253  16.355  11.339   3.818  0.0393 -0.2253 -0.0542
28180W        W44254   1.644  12.774  11.801  0.2619 -0.1239  0.0862
28181W        W44255  10.644   5.133   2.156 -0.1747 -0.1022 -0.3028
28182W        W44256   2.379   2.684  15.177 -0.0032  0.0722 -0.2670
28183W        W44257  17.767   2.777   4.658 -0.0915 -0.1581  0.1117
28184W        W44258   4.430   9.836   3.622  0.0754  0.3067 -0.0413
28185W        W44259  15.966   3.953   1.975 -0.0356 -0.0218 -0.0829
28186W        W44260   0.488  11.480  12.941  0.1792  0.1133  0.1258
28187W        W44261  17.929  17.186  13.876 -0.1728 -0.1973 -0.1604
28188W        W44262  13.787   3.385  12.967  0.2068  0.0398 -0.2106
28189W        W44263   0.854   0.526   4.463 -0.0437 -0.0365 -0.0717
28190W        W44264  15.485   2.958   2.168 -0.1304  0.1644  0.0718
28191W        W44265   4.519  12.818  12.143 -0.2202 -0.5014  0.0805
28192W        W44266   2.699   1.590   2.544 -0.1194 -0.1828 -0.3327
28193W        W44267   1.628   2.402  13.895 -0.0151  0.2430  0.2337
28194W        W44268  16.753  15.439   6.186  0.0740 -0.0780  0.2206
28195W        W44269   1.824   5.759  14.882 -0.2089 -0.1448  0.1876
28196W        W44270   3.980  10.617   5.097  0.0343  0.1341 -0.0563
28197W        W44271   7.714  10.251   5.819  0.2574 -0.0936 -0.2493
28198W        W44272  12.469  15.928   0.002 -0.1179 -0.2085  0.2892
28199W        W44273  14.502   4.219   2.349  0.1598  0.2108  0.3070
28200W        W44274  15.891   1.615   3.994  0.1328  0.0598  0.1648
28201W        W44275   5.015  12.740   2.691  0.2300 -0.3025 -0.4174
28202W        W44276   0.116   0.516   0.992 -0.0476 -0.1191 -0.1143
28203W        W44277   3.466  16.529  14.031  0.0511 -0.0321  0.0998
28204W        W44278  15.255  11.477   1.556  0.3189  0.0800 -0.0713
28205W        W44279  12.882   8.251   4.097  0.1244  0.0527 -0.0753
28206W        W44280   2.782  14.180   0.104 -0.3916 -0.1872 -0.0316
28207W        W44281   2.525  16.309  14.965 -0.1043  0.1733 -0.0552
28208W        W44282  14.892   5.865   4.978 -0.1275  0.2308 -0.3640
28209W        W44283  15.557   7.112  14.451 -0.0999  0.0146  0.3372
28210W        W44284  16.266   5.560   0.597 -0.0615 -0.0978 -0.0960
28211W        W44285  14.694  13.346   5.592  0.1212 -0.1157  0.1828
28212W        W44286  12.262  11.492   3.268 -0.2571  0.2108 -0.1484
28213W        W44287   4.820   0.366  11.451 -0.1587 -0.1874 -0.0804
28214W        W44288  17.693   0.490   5.368  0.1697 -0.0608 -0.4302
28215W        W44289  16.060   1.650  14.496 -0.0211 -0.0570  0.0856
28216W        W44290  10.997   8.836   4.855 -0.2497 -0.3820 -0.3032
28217W        W44291   0.495   3.060  15.607 -0.2818 -0.0569  0.0470
28218W        W44292   5.215   2.994  12.928  0.0249 -0.1590 -0.1746
28219W        W44293  14.208   3.328   3.317 -0.0879  0.1364 -0.2718
28220W        W44294  15.833   2.301   2.875  0.0881 -0.0077 -0.0419
28221W        W44295   0.573  10.665  12.961 -0.0263  0.0261  0.0540
28222W        W44296  15.682  11.313   2.101 -0.3189 -0.1295 -0.2138
28223W        W44297  16.225   0.255   0.593  0.0657 -0.0042 -0.4274
28224W        W44298  11.292   1.942   4.831  0.3624 -0.4960 -0.2308
28225W        W44299  11.164  10.497   3.233 -0.0379  0.0767  0.3871
28226W        W44300   5.557  11.325  11.794  0.2286  0.0485 -0.2882
28227W        W44301   8.723   2.573   1.669  0.4072  0.0684  0.3369
28228W        W44302  15.763   5.947   3.362  0.0880  0.2098  0.2473
28229W        W44303   8.226   3.875   2.558 -0.1287 -0.3871 -0.4018
28230W        W44304   2.213   4.982   4.595 -0.2910  0.1671  0.1171
28231W        W44305   7.368   5.429  11.921  0.0686  0.2017  0.0855
28232W        W44306   9.692  10.041   1.824 -0.0691 -0.1227 -0.1771
28233W        W44307  12.097   0.483  12.016  0.1783 -0.0302  0.0013
28234W        W44308  13.802  17.603   4.888 -0.0356  0.0673 -0.0554
28235W        W44309  15.732  16.083   3.048 -0.1933 -0.0224 -0.0469
28236W        W44310  13.763  15.054  14.245 -0.1951  0.1072 -0.0109
28237W        W44311  14.330   7.528  15.985 -0.2274  0.0466  0.0046
28238W        W44312   6.545   1.983   2.376  0.1778  0.2947  0.1193
28239W        W44313  14.936  13.880  15.559  0.0754 -0.0292  0.0949
28240W        W44314   5.062   6.271  15.434  0.0354 -0.2638 -0.0191
28241W        W44315   6.564   8.621   2.192  0.0312 -0.1263  0.0206
28242W        W44316  18.170  17.048   1.464  0.1087  0.1440  0.1818
28243W        W44317  15.233  13.258  15.574  0.2725 -0.3082 -0.2690
28244W        W44318  12.152  12.360   3.492 -0.1676  0.0513  0.0085
28245W        W44319  10.683  16.504   4.469  0.2834 -0.1499 -0.0756
28246W        W44320  10.754   6.996  13.050  0.0366  0.2680 -0.1463
28247W        W44321  12.612  10.972   1.746 -0.0137  0.3112 -0.0544
28248W        W44322  17.431   3.815  12.184 -0.3645  0.0161 -0.2659
28249W        W44323   4.457  12.439   1.067  0.0091 -0.1309 -0.2340
28250W        W44324  18.220  17.744  10.717  0.1191  0.0923 -0.1775
28251W        W44325   7.934  17.399  14.776  0.1138  0.0995 -0.0257
28252W        W44326   7.608   7.177   2.601 -0.0248 -0.4043 -0.2402
28253W        W44327  12.619   6.458   4.430  0.1227  0.0598  0.1080
28254W        W44328  11.662  13.957   0.265  0.2160 -0.3647 -0.2370
28255W        W44329  12.280   1.830   2.460 -0.3095 -0.0731 -0.0707
28256W        W44330   7.201   1.057   5.120  0.0479  0.0546 -0.0597
28257W        W44331   0.258  17.415  12.331  0.3466 -0.0145 -0.1186
28258W        W44332  10.909  15.320   5.208  0.1649  0.2271 -0.0945
28259W        W44333   4.952   7.216  16.017 -0.1016 -0.0241  0.5214
28260W        W44334   7.073   1.197  14.446 -0.0117 -0.0238  0.0008
28261W        W44335  12.101  15.851  14.039  0.2726  0.0954  0.1213
28262W        W44336  15.919   0.912  14.032  0.2481 -0.0499 -0.0883
28263W        W44337  12.636  14.401  12.825 -0.2954 -0.2524 -0.4361
28264W        W44338  12.395   4.620  15.525  0.1351 -0.1779 -0.0581
28265W        W44339  11.341   3.639  14.025 -0.1185  0.0172 -0.0112
28266W        W44340   4.722   9.147  12.053  0.2007 -0.0579  0.1583
28267W        W44341  12.015  13.981   0.673  0.2798  0.3141  0.0155
28268W        W44342  16.782   5.393   3.889 -0.1351  0.2023 -0.0351
28269W        W44343   0.161  16.594   2.112  0.3939  0.0439  0.0937
28270W        W44344  14.855   0.241   1.542 -0.1289  0.3111  0.2007
28271W        W44345   0.435   6.126  11.717 -0.0649  0.0537 -0.0879
28272W        W44346  15.945  14.011  15.627  0.1164  0.1553 -0.1237
28273W        W44347  14.292  11.658  13.758  0.2501  0.1705  0.0640
28274W        W44348  13.398  10.114  11.894  0.0044 -0.0076 -0.3532
28275W        W44349  15.169   6.891  13.520  0.1895  0.0487  0.2420
28276W        W44350   4.276   5.761  15.141  0.3413 -0.0703 -0.2705
28277W        W44351   6.773  10.696  13.743 -0.2500  0.0250 -0.0397
28278W        W44352  17.662   7.861  14.082  0.1518 -0.0507  0.2387
28279W        W44353   6.585   8.972   3.091  0.1079 -0.4064 -0.0926
28280W        W44354   7.121  18.303  14.408 -0.1145 -0.2066  0.1092
28281W        W44355   1.800  10.989  15.238 -0.2824 -0.3119 -0.1518
28282W        W44356  16.954   5.456   1.221 -0.1641  0.2027 -0.3337
28283W        W44357   4.904  17.413  10.687  0.2424 -0.0545 -0.1762
28284W        W44358   7.367  14.186   0.463 -0.1953  0.0974 -0.1608
28285W        W44359   3.333   4.068  15.307 -0.3866  0.0665 -0.2705
28286W        W44360   5.494   5.574  13.367 -0.3818 -0.2837  0.1277
28287W        W44361  17.160   0.167   1.547  0.1723 -0.0606  0.0740
28288W        W44362   1.210  16.663   1.675 -0.4824  0.1830  0.3411
28289W        W44363  10.220  10.258   3.412  0.0683  0.0162 -0.2487
28290W        W44364   3.740  15.019  14.565  0.1316 -0.4035 -0.0275
28291W        W44365   6.515  14.815   4.827  0.0746  0.2030 -0.0977
28292W        W44366  17.773  11.709   0.452 -0.1463  0.0701  0.3844
28293W        W44367   6.950   2.724  13.444 -0.1476 -0.1942 -0.1511
28294W        W44368  18.276   2.941   2.739 -0.3523 -0.0007 -0.2721
28295W        W44369   5.347  16.163  11.966  0.0631  0.1405 -0.1387
28296W        W44370   6.025  17.863  13.196  0.2111  0.1469 -0.2642
28297W        W44371  10.508   9.461  14.353 -0.0811 -0.0124 -0.2625
28298W        W44372   5.430  13.361   4.136  0.3062  0.3072  0.0710
28299W        W44373  12.596  11.124  12.829  0.5129  0.0508 -0.0287
28300W        W44374   1.171  15.796   0.526  0.3121  0.3083 -0.0368
28301W        W44375  13.533   6.829   0.983 -0.0583  0.3413  0.4195
28302W        W44376  15.302   4.352   1.803 -0.1379  0.0618  0.0453
28303W        W44377  14.094   2.266   0.847 -0.1827  0.1958 -0.1024
28304W        W44378   4.766   3.878  13.678  0.1994  0.0303 -0.2399
28305W        W44379   6.696   0.232  11.204 -0.2715  0.2055 -0.1219
28306W        W44380   6.161  16.421   2.564 -0.0654  0.1731  0.1861
28307W        W44381  10.805  16.341   4.894  0.0510 -0.2625 -0.2827
28308W        W44382   8.663   5.184   1.926  0.2125  0.3097 -0.0640
28309W        W44383   0.672  13.981   2.280  0.1593 -0.2392  0.2453
28310W        W44384  14.002   0.861   3.325  0.1822 -0.1725  0.2619
28311W        W44385  14.295  14.286   2.503 -0.1974 -0.0635  0.1271
28312W        W44386   0.094  17.912  14.834  0.1246  0.0952 -0.0900
28313W        W44387   5.423  13.463  12.393  0.3444  0.2190 -0.2249
28314W        W44388   8.281  12.388  14.519 -0.0471  0.4591 -0.0547
28315W        W44389  11.553  14.822   0.226 -0.1428 -0.1805  0.1798
28316W        W44390  13.217  17.254  13.880 -0.2071  0.0957 -0.0078
28317W        W44391  16.292  12.538  15.470 -0.1046  0.1800 -0.0779
28318W        W44392  10.680   1.254  12.480  0.1737  0.0063  0.0016
28319W        W44393  16.827   4.963   6.276 -0.1460  0.0133  0.0212
28320W        W44394   7.638  16.007  11.995 -0.0554 -0.0465  0.1090
28321W        W44395   2.697   7.432   0.975 -0.0252 -0.2128  0.3189
28322W        W44396  14.812   6.515   0.964  0.1456 -0.1075  0.1467
28323W        W44397  17.116   4.722  13.000  0.2717  0.2454  0.1048
28324W        W44398   7.084   8.187   5.001  0.2669 -0.0488  0.1543
28325W        W44399  15.241   4.057  12.829  0.0708 -0.0851  0.0620
28326W        W44400  12.651  10.471  14.612 -0.1459 -0.0955 -0.2570
28327W        W44401   9.771  13.725  11.432 -0.1397  0.0458  0.0989
28328W        W44402   5.693   3.603  13.968 -0.0943 -0.0640  0.0232
28329W        W44403   2.684   3.213   2.478  0.0199  0.1820  0.0232
28330W        W44404  16.101   2.886  14.242  0.1613 -0.4007 -0.0461
28331W        W44405  13.119  10.435  13.082 -0.0207 -0.1742 -0.0116
28332W        W44406   7.894   9.962   4.056 -0.3650 -0.2763 -0.3533
28333W        W44407  14.330  10.848   3.907 -0.0571  0.1661  0.1085
28334W        W44408   8.914   8.834   2.696  0.0616 -0.0041 -0.1228
28335W        W44409  11.034   7.482   2.961 -0.0396 -0.1962  0.0991
28336W        W44410  15.130   1.555   4.447  0.1372 -0.0926  0.0177
28337W        W44411  10.159  10.006  11.832 -0.0172 -0.0225 -0.0537
28338W        W44412   4.672   6.552  14.701 -0.0688 -0.2166 -0.0551
28339W        W44413   1.684   3.096   1.389  0.0158 -0.1599  0.0297
28340W        W44414   1.928  11.215  13.361  0.0672  0.1231  0.0912
28341W        W44415  15.599   2.283  11.686  0.1057 -0.0270  0.0485
28342W        W44416  17.084   3.960   5.714  0.0690 -0.0964 -0.1768
28343W        W44417  13.769  14.148   0.304 -0.1308  0.3430 -0.2622
28344W        W44418  12.215   7.970  12.626 -0.0629  0.2312  0.0991
28345W        W44419  10.953  11.428   4.562  0.0538  0.0746  0.1421
28346W        W44420   4.217  15.269   4.572  0.0123  0.1031  0.2617
28347W        W44421  11.730  15.568   0.620 -0.1364 -0.3478  0.4488
28348W        W44422  12.900   8.701   4.436  0.1991  0.1091  0.2005
28349W        W44423   2.937  11.046   2.397 -0.3179  0.1234 -0.0920
28350W        W44424   0.833   2.024  11.801 -0.3009 -0.1260  0.0624
28351W        W44425  13.323   3.759  12.574 -0.0680 -0.1521 -0.3203
28352W        W44426   3.975  12.354   1.605  0.0438 -0.0533  0.1632
28353W        W44427  13.691   3.809  15.669  0.1964 -0.0606 -0.3293
28354W        W44428   3.963  14.560  13.437  0.4780 -0.0500  0.2008
28355W        W44429  13.134   3.684   2.790  0.0009 -0.0928  0.1331
28356W        W44430   1.136   5.121  12.909  0.1302  0.1032 -0.0095
28357W        W44431   0.821   7.235  12.133 -0.0621 -0.3485 -0.0064
28358W        W44432   6.191  15.804  11.371  0.2975  0.0616  0.2022
28359W        W44433  11.181   2.153   5.301  0.0004 -0.1222  0.0512
28360W        W44434  18.331   2.738   6.204  0.1638 -0.0689  0.0086
28361W        W44435  15.622   2.011   2.482 -0.0074  0.0098  0.5692
28362W        W44436   1.590  12.431  14.558  0.2741  0.0976  0.0597
28363W        W44437  15.029   7.910   2.448 -0.1342  0.0975 -0.1040
28364W        W44438   9.310  17.875   3.201  0.2821 -0.1683  0.1042
28365W        W44439  13.890  10.690   4.075  0.2225 -0.1333 -0.0217
28366W        W44440   0.651   8.552   4.652 -0.0468  0.0931  0.2010
28367W        W44441  13.080  15.932   5.041 -0.0448 -0.0623  0.0098
28368W        W44442  14.756   9.418   3.511  0.0183 -0.0136 -0.0543
28369W        W44443  11.834   9.767  13.040  0.4735 -0.0732  0.1269
28370W        W44444   0.805   2.386  11.460 -0.2201  0.0377 -0.1820
28371W        W44445   7.469  10.666   4.301 -0.2328 -0.0664  0.1030
28372W        W44446  16.472   2.086   2.273  0.0053  0.0629  0.4252
28373W        W44447  16.805   9.187  16.201 -0.3030 -0.0431  0.1042
28374W        W44448   2.938   6.342  15.068  0.0336 -0.2411  0.0320
28375W        W44449   6.342   1.778   0.216 -0.0599  0.1065 -0.2814
28376W        W44450   8.162   9.668   1.686  0.0265 -0.1436 -0.3317
28377W        W44451   7.675   0.327   4.742 -0.4453  0.3128 -0.4674
28378W        W44452  14.216   9.921  14.050 -0.0383 -0.0751  0.1953
28379W        W44453  16.561  10.365   3.200  0.0709 -0.1683 -0.3807
28380W        W44454  15.946   3.045   0.963  0.3355 -0.2503 -0.2832
28381W        W44455  12.329  12.698   1.423 -0.2902  0.2148  0.1570
28382W        W44456  15.695   1.042   3.854 -0.0686  0.0277 -0.0714
28383W        W44457  10.282  10.237   5.749 -0.5995  0.1059  0.1559
28384W        W44458   1.861   6.758   6.001 -0.2007  0.0930  0.1885
28385W        W44459  15.564   5.524   3.181 -0.1506 -0.0787 -0.0478
28386W        W44460   3.139   0.919  13.325  0.0691  0.2922  0.1298
28387W        W44461  15.868  16.260   1.946  0.2030 -0.1939 -0.1559
28388W        W44462   5.373   5.780  13.831 -0.2762  0.0363  0.4118
28389W        W44463  13.810  16.427  12.665 -0.1135 -0.3921  0.1632
28390W        W44464   7.099  16.050   2.872  0.0472 -0.0261  0.1211
28391W        W44465  13.453   0.536   1.395 -0.0342 -0.0079  0.4137
28392W        W44466   7.512  15.244  14.386 -0.0922  0.3307 -0.1718
28393W        W44467   5.202   8.858  16.249  0.2407 -0.1561  0.2513
28394W        W44468  16.998   0.900  16.023  0.0198 -0.0899 -0.0498
28395W        W44469  15.174  17.551   1.625 -0.0260 -0.2041  0.0817
28396W        W44470  15.608   7.815  15.786 -0.1240 -0.0202 -0.1897
28397W        W44471  12.544  11.210  12.105  0.2258  0.2028  0.2254
28398W        W44472  12.503   6.566  13.529 -0.0845 -0.4721  0.0137
28399W        W44473  13.632  17.939   1.904 -0.1661 -0.0071 -0.2872
28400W        W44474  13.559   0.097   5.201 -0.4576  0.0738  0.4345
28401W        W44475  10.651  15.209   1.876  0.0404  0.0207 -0.0909
28402W        W44476   6.872   8.700  14.584 -0.2401 -0.0310  0.0311
28403W        W44477   6.783   9.574   4.453  0.2033  0.2225 -0.2054
28404W        W44478   9.221  10.519  15.035  0.3717  0.2237  0.1712
28405W        W44479   3.904   3.136   4.708  0.2274  0.0662  0.0455
28406W        W44480  16.220   7.304  14.146 -0.0476 -0.0232  0.1605
28407W        W44481   7.412  12.435  15.676  0.1734 -0.1291  0.0080
28408W        W44482   5.371   6.166   3.510 -0.0211 -0.5017 -0.1638
28409W        W44483  10.952  14.516   3.166 -0.0937 -0.2372  0.0477
28410W        W44484  17.094  15.020   4.263 -0.0013  0.0199 -0.4141
28411W        W44485  13.004   3.289   4.879 -0.1830  0.1167 -0.1103
28412W        W44486   1.739   8.645  14.378  0.0998 -0.0976 -0.3222
28413W        W44487   8.670   6.167  15.031 -0.0895 -0.0316 -0.0269
28414W        W44488  16.370   4.757  15.247 -0.2029  0.2985 -0.0187
28415W        W44489  11.314  14.344   0.304  0.0661  0.2606  0.0625
28416W        W44490  13.602   3.447   4.098  0.1889 -0.2794  0.2227
28417W        W44491   6.761   1.011  14.046  0.1918  0.0115  0.0870
28418W        W44492   8.647  16.025  15.854  0.0374 -0.2310  0.1584
28419W        W44493  15.284   9.425   5.008 -0.2835  0.3066  0.2168
28420W        W44494  15.203   9.582  11.369 -0.0664  0.1559 -0.1314
28421W        W44495  10.141  15.233  11.810  0.2051  0.0606  0.2570
28422W        W44496   8.671  10.795   3.520 -0.1492 -0.0600 -0.0621
28423W        W44497   7.766  16.044  12.484  0.0782 -0.1067 -0.0283
28424W        W44498   8.830   0.859   3.761  0.0152 -0.0254 -0.0692
28425W        W44499   6.132   4.237   0.280  0.0920  0.1947  0.1487
28426W        W44500   2.581  14.807   3.150 -0.0139  0.1426  0.0273
28427W        W44501   7.313   8.012   3.120  0.1516 -0.3575 -0.1611
28428W        W44502  16.360   5.291  11.543  0.0603 -0.0755 -0.0815
28429W        W44503  12.544  17.099   1.311 -0.1070  0.3816  0.1586
28430W        W44504   7.014   6.421   4.864  0.0227  0.2600 -0.0598
28431W        W44505   4.817  12.138  14.956  0.0346 -0.1672 -0.0028
28432W        W44506  15.314   5.544   6.225  0.0005  0.2126 -0.1352
28433W        W44507   3.802   1.496   1.497 -0.0462 -0.1724 -0.3760
28434W        W44508   9.416  13.684   2.686  0.0355 -0.0281  0.1168
28435W        W44509   0.814  17.162  14.332  0.0148  0.0812  0.1504
28436W        W44510   2.577  11.439  14.520 -0.1650  0.0797 -0.0954
28437W        W44511   3.777  13.000   5.270 -0.0875 -0.1415 -0.0698
28438W        W44512  16.619  15.014   2.628  0.3158 -0.2885  0.2541
28439W        W44513   3.537  15.658  11.761 -0.1258 -0.3581  0.1331
28440W        W44514   4.924  15.365  13.043 -0.1126  0.2035 -0.1303
28441W        W44515  18.243  14.781   5.906 -0.4318  0.3186  0.0176
28442W        W44516  15.012   2.312   4.138  0.0201  0.2394  0.0184
28443W        W44517  17.722  10.072  12.224  0.0922 -0.0839 -0.2363
28444W        W44518   4.198   0.460   6.378 -0.0500  0.1019 -0.0099
28445W        W44519   5.826   3.801   5.450  0.1554 -0.1047  0.0466
28446W        W44520  15.869   0.580   0.118 -0.1586  0.0266 -0.1430
28447W        W44521  18.117   4.279   1.087 -0.0969  0.0841 -0.2951
28448W        W44522  14.716  11.594   4.762 -0.0535 -0.1172 -0.3137
28449W        W44523   6.465  10.993  11.871 -0.0743 -0.3088 -0.2122
28450W        W44524   8.726   4.544   0.436  0.2346 -0.1004  0.1761
28451W        W44525  16.871  16.063   1.073  0.0492  0.3402 -0.1225
28452W        W44526   8.058   9.865  14.539  0.1779  0.1331  0.0148
28453W        W44527   2.579  10.637  15.430 -0.1525  0.2444  0.2506
28454W        W44528  11.246  10.254  11.468 -0.2684  0.2374 -0.2272
28455W        W44529  10.159  17.814   0.456  0.2035  0.1121  0.1253
28456W        W44530   0.053   9.523  11.630 -0.4971  0.0969 -0.3496
28457W        W44531  15.803  14.452  15.315  0.1939 -0.1610 -0.3465
28458W        W44532  11.431  15.134   0.779  0.1170  0.0590 -0.2565
28459W        W44533  13.428   3.522   0.678 -0.4257  0.0729  0.0084
28460W        W44534   0.146   7.685   4.430  0.1017  0.3623  0.2198
28461W        W44535  17.737   4.527   2.190  0.0377  0.3232 -0.2012
28462W        W44536  13.182   2.708  14.083  0.0901 -0.2082 -0.2056
28463W        W44537   0.237  16.014  14.778  0.0447 -0.1346  0.3251
28464W        W44538   3.655   8.586   2.455  0.0236 -0.1488  0.5913
28465W        W44539   0.675   9.463  15.066  0.0024 -0.1304 -0.0010
28466W        W44540  11.991   7.579   4.759 -0.1938  0.0864  0.0955
28467W        W44541   7.992   9.405  16.060 -0.0856 -0.0138 -0.0901
28468W        W44542   4.307   0.782   3.888  0.0544 -0.1532 -0.0633
28469W        W44543   5.396   2.331   5.323  0.1492  0.0854  0.2686
28470W        W44544  13.920  12.439  15.524  0.1279 -0.0095 -0.0832
28471W        W44545   4.989  15.359   1.162 -0.2098 -0.1079 -0.1063
28472W        W44546  15.964   3.812  15.440 -0.0112 -0.1993 -0.0927
28473W        W44547  11.271   0.321   0.610  0.0062  0.2394 -0.1718
28474W        W44548  16.928   3.007  14.763  0.1019 -0.0343 -0.2192
28475W        W44549   5.226   5.516   2.601 -0.3638 -0.0875  0.0374
28476W        W44550   8.239   5.653   9.814  0.2359 -0.0477  0.5313
28477W        W44551  14.077  16.462   0.917 -0.1383 -0.0625  0.1528
28478W        W44552   7.023   8.267  12.381 -0.5333 -0.0546  0.0014
28479W        W44553   1.122   2.298   0.231 -0.0933  0.1838  0.2914
28480W        W44554   5.326   6.092   4.105  0.0903 -0.1851 -0.1670
28481W        W44555  12.123   3.878   9.952 -0.1097 -0.1110  0.1817
28482W        W44556   5.252  12.505  13.844 -0.4141 -0.1614  0.2397
28483W        W44557  11.512  14.606   3.057 -0.1742  0.0547  0.1016
28484W        W44558  12.324  11.851  12.799  0.0688 -0.1884 -0.0712
28485W        W44559   6.422   1.972   5.540 -0.1248  0.0996 -0.0012
28486W        W44560   0.294   2.307   4.597  0.1565  0.1108  0.1517
28487W        W44561  16.792   1.816  11.250  0.0810  0.1040  0.0041
28488W        W44562  17.217   1.335   6.295  0.5592 -0.0218  0.1063
28489W        W44563  10.739  16.370  15.394 -0.0099 -0.1866  0.1448
28490W        W44564   0.939  12.970   4.679  0.1378  0.1012 -0.0021
28491W        W44565   6.606   0.139   1.927  0.0902 -0.3026  0.2327
28492W        W44566   4.739  15.592  11.451  0.3568 -0.0397 -0.1097
28493W        W44567   2.596   1.035   5.184  0.1856  0.0167  0.1215
28494W        W44568  12.701   2.703  11.267  0.0180 -0.2096 -0.2491
28495W        W44569   8.383   9.033   3.325 -0.0021  0.1932 -0.3948
28496W        W44570   8.056  10.162  15.685 -0.0277  0.1992 -0.2618
28497W        W44571  13.172   8.185  14.996 -0.0748  0.3519 -0.0572
28498W        W44572  15.931  11.552   3.635  0.1311 -0.1463  0.1136
28499W        W44573   8.044   4.719  13.692 -0.1148  0.1632  0.0859
28500W        W44574   1.666   3.047   6.339  0.0152  0.0665  0.2303
28501W        W44575  16.257   6.815  16.271  0.0334  0.1116  0.3108
28502W        W44576  11.642   8.104  15.948  0.2275 -0.1110 -0.0082
28503W        W44577  12.953   0.023  15.220 -0.2087  0.1417  0.1496
28504W        W44578   6.412  17.870  13.989 -0.0694 -0.1176  0.1911
28505W        W44579  14.313   1.583   1.440  0.0124  0.1111  0.2077
28506W        W44580  15.078  10.303   3.781  0.2287 -0.1189  0.0436
28507W        W44581  15.090   7.026   3.585 -0.0078  0.1816 -0.1420
28508W        W44582  13.048  14.345   0.927  0.1719 -0.0476  0.0625
28509W        W44583  14.937   1.116   5.281  0.1618 -0.2201  0.2185
28510W        W44584   7.939   2.313   0.623 -0.4704  0.1338 -0.0177
28511W        W44585  14.135  10.290   2.502  0.1916  0.0394 -0.0983
28512W        W44586  15.884   2.724   3.840  0.0775 -0.2078  0.0901
28513W        W44587   0.094  16.707   1.119 -0.2643  0.1652 -0.1430
28514W        W44588   6.483  11.123   5.103 -0.2894 -0.1784  0.1529
28515W        W44589  13.665  14.933   4.931 -0.2020  0.0365 -0.1084
28516W        W44590   8.552   4.736  10.540  0.1199  0.0248  0.0284
28517W        W44591   0.629  18.029  15.164  0.2545  0.1718 -0.3012
28518W        W44592  15.046   9.666   1.871  0.1876  0.1484  0.1629
28519W        W44593   7.296   7.487   0.350 -0.1161  0.2932  0.2049
28520W        W44594  11.158  10.864   1.491  0.2360 -0.3275 -0.1426
28521W        W44595   6.561   3.441  15.424 -0.2205 -0.3487 -0.2652
28522W        W44596   6.945  12.835  16.360 -0.0880  0.2476  0.0399
28523W        W44597  14.036  12.868   1.200  0.2488  0.2555 -0.1145
28524W        W44598  14.220  12.529   2.007 -0.0088  0.3044 -0.0555
28525W        W44599  10.571  11.800  14.074 -0.1871 -0.1956 -0.3276
28526W        W44600   5.090  13.418  12.796  0.2861 -0.2160 -0.3390
28527W        W44601   6.044   5.488  16.202  0.2628 -0.2106  0.0941
28528W        W44602  13.246   3.682  15.444 -0.5972 -0.1640 -0.4892
28529W        W44603  12.043   5.848  13.904  0.1362 -0.1689  0.3008
28530W        W44604  11.430  14.293   4.724  0.2533 -0.0016  0.1576
28531W        W44605  10.320  10.741   4.893 -0.3379  0.2413  0.1023
28532W        W44606   7.800  11.555   2.335 -0.2796 -0.1215  0.0213
28533W        W44607   2.795   7.334   4.573  0.2362 -0.2301 -0.3772
28534W        W44608  10.841   5.766   3.709  0.1090  0.0157 -0.0338
28535W        W44609  15.611   4.569   2.262 -0.1463  0.0139 -0.0778
28536W        W44610   6.979   5.930   2.320  0.3574  0.4262 -0.1042
28537W        W44611  16.438   9.177  14.773  0.1343  0.4014  0.1234
28538W        W44612  12.510   0.879   2.913  0.4151 -0.4068 -0.1995
28539W        W44613   6.472   2.654  13.494 -0.1979 -0.3945  0.1660
28540W        W44614   8.903  11.785   6.230  0.2063  0.0527  0.2008
28541W        W44615  10.375   7.031   2.189 -0.0964  0.0035 -0.2557
28542W        W44616  10.337  16.526  11.503  0.1270 -0.1710  0.0987
28543W        W44617  13.620   1.138  13.317 -0.2433  0.2501  0.2138
28544W        W44618  17.907  10.455  11.488  0.0051 -0.2118  0.4763
28545W        W44619   5.315   8.979   1.164  0.0654  0.1001 -0.1308
28546W        W44620   2.197   8.155   4.614 -0.0565 -0.2309  0.0179
28547W        W44621   3.675  12.014  11.064  0.1115  0.3882 -0.2907
28548W        W44622  11.872   9.976  12.573 -0.2265  0.1093 -0.2401
28549W        W44623   2.866   5.819  14.126 -0.3668 -0.2036 -0.2973
28550W        W44624  16.138   7.128  10.908 -0.3254 -0.0113 -0.5193
28551W        W44625  15.604  17.898   3.263 -0.0989  0.1542  0.2565
28552W        W44626   1.245  11.368   2.653 -0.1690  0.2517 -0.1270
28553W        W44627  14.487   1.741  13.184  0.0080 -0.1010  0.4059
28554W        W44628   7.976  15.735   0.663  0.0840  0.2193 -0.0427
28555W        W44629   9.402  13.250  15.770 -0.0274 -0.0661  0.4194
28556W        W44630   0.199  15.145   5.440 -0.1704  0.0996 -0.0337
28557W        W44631   0.476  12.175   4.684  0.1410  0.1479  0.1323
28558W        W44632   5.076  13.054   5.746  0.0741  0.1331 -0.4098
28559W        W44633  15.977  17.430  13.220  0.3088 -0.1733 -0.1497
28560W        W44634   9.536  18.334  12.724 -0.0559 -0.4717 -0.0740
28561W        W44635  12.029   9.016   2.658  0.0074  0.2360 -0.2237
28562W        W44636   2.269  10.162   4.788  0.2540  0.0736  0.1954
28563W        W44637   5.611   2.164   4.327 -0.1002  0.2560 -0.0929
28564W        W44638   3.530   7.730  14.814 -0.0317  0.0485  0.2534
28565W        W44639  15.029  15.123  15.007  0.1384  0.1064 -0.0637
28566W        W44640  16.185  16.520   2.738  0.2419  0.0770 -0.0884
28567W        W44641   4.826   6.367  11.700 -0.0650  0.1562 -0.3384
28568W        W44642   7.972  17.846   2.748  0.0999 -0.2566  0.0356
28569W        W44643  15.276  15.500   0.043 -0.0234  0.3433  0.2704
28570W        W44644   5.917  17.623  13.912  0.1679  0.1980 -0.1186
28571W        W44645   7.676   9.670  13.851 -0.0973 -0.0966 -0.2756
28572W        W44646  12.097   7.507  15.604  0.1224  0.0358 -0.0893
28573W        W44647  12.429  18.048  13.117  0.1464  0.0864 -0.0160
28574W        W44648  12.326   8.736  14.769  0.0902  0.0302 -0.0548
28575W        W44649   3.081   9.027   3.343  0.0044 -0.1086  0.1739
28576W        W44650  17.763  15.507   0.257 -0.0468 -0.0781  0.2655
28577W        W44651   2.123  16.965   3.862  0.1773  0.2361 -0.0660
28578W        W44652   7.361   3.497  13.929  0.0987  0.3504  0.2519
28579W        W44653  16.951  15.263   3.287  0.0186  0.1842 -0.0894
28580W        W44654   8.525  13.521  14.772 -0.1364  0.3174  0.2028
28581W        W44655  13.754  17.862  15.482  0.2635  0.1369 -0.3046
28582W        W44656   6.724  14.169   0.913 -0.0018  0.0259  0.1020
28583W        W44657  12.793  16.436  11.851  0.1425 -0.0266 -0.3002
28584W        W44658  12.653  12.345  15.620  0.1118 -0.2476 -0.0872
28585W        W44659  12.535  16.006   3.242  0.1943  0.1050 -0.0007
28586W        W44660  15.016   4.250   2.268  0.1733 -0.2323 -0.1177
28587W        W44661   7.069  15.475  14.909  0.2515 -0.2959  0.1283
28588W        W44662  13.470  16.868  14.587 -0.1361  0.0674 -0.0279
28589W        W44663   1.879  14.628   2.794 -0.0945 -0.3653  0.0423
28590W        W44664   9.225   8.502  14.664 -0.0329 -0.2407  0.2644
28591W        W44665   0.011   1.507  15.832  0.2592 -0.1617  0.1763
28592W        W44666   4.187  17.835   2.105  0.0943 -0.3676 -0.0578
28593W        W44667   6.060   1.042  11.068 -0.2355  0.4697  0.3331
28594W        W44668  13.332  16.613  13.211 -0.0401  0.0416  0.2164
28595W        W44669  13.552   7.026  14.848 -0.0236  0.1819 -0.2846
28596W        W44670  13.836  11.086   4.935  0.0668  0.0209 -0.0297
28597W        W44671   3.982   1.414   2.604 -0.0967 -0.2838 -0.0885
28598W        W44672   1.148   7.497  13.835  0.1123  0.0622 -0.0931
28599W        W44673  12.351  12.252  11.998  0.1694  0.1733  0.2340
28600W        W44674  11.448   2.586  15.117  0.0290 -0.3579  0.3370
28601W        W44675   5.631  13.596  12.838  0.2888  0.0531 -0.2137
28602W        W44676  12.728   4.925   0.733  0.0185  0.0453  0.3211
28603W        W44677   9.025   6.132  13.309  0.0958  0.0477 -0.0165
28604W        W44678  10.941   4.863   3.272 -0.0524 -0.0388  0.0019
28605W        W44679   2.298  15.185   3.695  0.3369 -0.1667 -0.2951
28606W        W44680   0.428   0.749  12.372 -0.1557 -0.0576  0.0200
28607W        W44681   4.955  17.860   3.447  0.0287  0.0382 -0.3093
28608W        W44682  17.661  13.799   4.679  0.1489  0.0055  0.0676
28609W        W44683   2.579  17.597  12.953 -0.3982 -0.1162 -0.2475
28610W        W44684   6.627   5.645   4.972 -0.1317  0.0596  0.0414
28611W        W44685   7.062   9.429   2.516  0.3074 -0.0013  0.0095
28612W        W44686   7.806   6.623   4.612 -0.0987  0.0057  0.1945
28613W        W44687   0.600  16.451  13.826  0.0109 -0.0981  0.2295
28614W        W44688   4.147   8.951   3.845  0.0737 -0.1917  0.2294
28615W        W44689  11.811  17.992  11.602  0.1744  0.0459 -0.0015
28616W        W44690  14.099   5.910  15.373  0.3280  0.1775 -0.2959
28617W        W44691  10.530  11.300   4.886  0.0486 -0.3228  0.0480
28618W        W44692  16.437   2.054   5.245  0.1341  0.1999 -0.1982
28619W        W44693  15.875  14.355  14.852 -0.0723  0.1667  0.1109
28620W        W44694   3.300  14.403   0.909  0.2296 -0.2771 -0.5174
28621W        W44695  18.037  14.912   4.955 -0.0293  0.2047 -0.0211
28622W        W44696   1.532   7.192   3.331 -0.0485 -0.2337  0.2907
28623W        W44697   7.763  10.355  16.183 -0.0426 -0.1890 -0.1601
28624W        W44698   4.506  16.577  12.596  0.3686  0.0934  0.1483
28625W        W44699  14.042  11.323  15.543  0.3588  0.0791  0.0473
28626W        W44700  11.717  13.196  15.315 -0.3642 -0.0107  0.1875
28627W        W44701  10.248   9.279   0.645 -0.1040  0.1553  0.1341
28628W        W44702  18.091  13.864  14.266  0.2883 -0.1276 -0.0639
28629W        W44703  14.778  12.729   4.508 -0.2105  0.1618  0.0250
28630W        W44704  11.350   0.398  11.253 -0.1514  0.0905 -0.0500
28631W        W44705  17.503   9.820   5.247  0.1901  0.1869 -0.4076
28632W        W44706  12.361   6.102  16.362  0.2297 -0.0779 -0.0744
28633W        W44707  15.357   1.958   4.122 -0.0578 -0.0745  0.1579
28634W        W44708   4.855   2.145   2.817  0.1500 -0.0159 -0.0941
28635W        W44709  11.176   0.756  12.001  0.0085  0.0307  0.1216
28636W        W44710   4.658  13.893   0.000 -0.1577  0.1505 -0.0533
28637W        W44711  12.866  11.818  14.078 -0.1468 -0.2414  0.1351
28638W        W44712   9.249   1.046   2.757 -0.0307 -0.2852  0.2072
28639W        W44713  10.595  10.180   2.501  0.0849 -0.0787  0.1864
28640W        W44714   0.888  16.312   1.665 -0.2271  0.2319  0.0894
28641W        W44715  14.189  10.957   1.763 -0.0714 -0.3108  0.0251
28642W        W44716  15.398   0.382   0.244  0.0712  0.0848 -0.5184
28643W        W44717  13.491   2.448   1.629 -0.1094 -0.0765 -0.2939
28644W        W44718   1.154   1.691  13.816  0.3913  0.2498 -0.0718
28645W        W44719  16.786   4.823   0.931  0.2719  0.2908 -0.0050
28646W        W44720  12.954  10.074  12.041 -0.2801 -0.1141  0.2051
28647W        W44721   2.913   3.758  15.959 -0.0684  0.2880 -0.2991
28648W        W44722  15.174   6.645   3.868  0.4157  0.1436  0.3867
28649W        W44723   7.396  12.915  12.453 -0.2680 -0.0375 -0.0031
28650W        W44724  11.010  10.353  12.606 -0.2619 -0.1665  0.1034
28651W        W44725   7.962  17.572  15.847 -0.1494  0.2924  0.1156
28652W        W44726  14.569   1.505   4.360  0.5347  0.0532  0.1771
28653W        W44727   8.725   3.400   4.217  0.0105 -0.2545  0.7131
28654W        W44728   5.576   8.406  15.229  0.2426 -0.0572 -0.1727
28655W        W44729   0.459   8.362  11.413 -0.1209  0.2540 -0.0130
28656W        W44730  18.163   9.533  15.157 -0.0395  0.1158  0.0233
28657W        W44731  15.215   7.403   1.583 -0.6435 -0.0137  0.2057
28658W        W44732   7.285  16.286  10.987 -0.2318  0.0675 -0.0445
28659W        W44733  11.764   6.722   3.626 -0.0237 -0.0666  0.1039
28660W        W44734   6.136   9.064  13.389 -0.0174  0.3811  0.2301
28661W        W44735  16.266   5.597  12.080  0.0279  0.3192  0.0920
28662W        W44736  16.157  15.830  12.638  0.5347 -0.1501 -0.1296
28663W        W44737  18.163  11.519  12.297  0.5620  0.0040  0.1151
28664W        W44738  15.157   7.601  15.648 -0.0186 -0.2015  0.2819
28665W        W44739   2.927  11.774  12.528 -0.1183 -0.2301 -0.0796
28666W        W44740   9.467   4.381  14.415 -0.2660  0.1820  0.3683
28667W        W44741  11.097  17.135   0.867  0.0724  0.1728 -0.2735
28668W        W44742  12.410   7.367  12.909 -0.1324  0.2063  0.3422
28669W        W44743  14.778   2.110   6.113  0.0282  0.0175 -0.1304
28670W        W44744   6.537   8.996   4.315 -0.5040  0.0258 -0.0880
28671W        W44745  15.980  16.539   0.227 -0.1651  0.0496  0.1590
28672W        W44746   5.241  17.831  15.471 -0.1225  0.2416 -0.0414
28673W        W44747   0.976  14.882  15.825 -0.2065 -0.0108  0.0264
28674W        W44748  15.285   5.533   5.369 -0.1297 -0.0249  0.0323
28675W        W44749   0.444  13.394   5.394 -0.1807 -0.1488  0.0668
28676W        W44750  16.668   2.619   0.262 -0.0655  0.1410 -0.0551
28677W        W44751   6.131   4.765  11.551  0.0469  0.2300 -0.0219
28678W        W44752  18.033  13.785  16.082 -0.0445  0.0877 -0.0499
28679W        W44753  14.422  14.103  11.706  0.0613 -0.1426  0.0753
28680W        W44754   6.417   3.119   4.828 -0.0216  0.0716 -0.1135
28681W        W44755   9.699   4.017  15.305 -0.1280  0.2056  0.3512
28682W        W44756   2.151   6.659   2.455  0.1565  0.0622  0.1416
28683W        W44757   2.706  11.995   5.306 -0.1310 -0.2152  0.0199
28684W        W44758   6.356  13.241  10.986  0.1535 -0.2217  0.1243
28685W        W44759  15.364   3.056   0.313 -0.1272  0.1168  0.0408
28686W        W44760  11.086  11.773  15.647 -0.3191  0.0347  0.0812
28687W        W44761   3.227   1.199   3.871 -0.0874  0.2354 -0.0079
28688W        W44762   8.333   7.485   3.210 -0.3113 -0.3871 -0.0272
28689W        W44763  16.116   6.845  12.376  0.1231  0.0335 -0.2990
28690W        W44764   4.667   5.454   0.494  0.0180 -0.0222  0.0039
28691W        W44765   8.663   8.812   3.854  0.1655 -0.2431 -0.1387
28692W        W44766   0.836   6.756   2.743 -0.0828 -0.0731  0.3422
28693W        W44767  16.085   8.858  14.208 -0.0929 -0.0293  0.1633
28694W        W44768  14.541  13.043  16.100 -0.0255 -0.3041 -0.0902
28695W        W44769  14.262  12.181   5.543 -0.1857 -0.1194  0.0860
28696W        W44770  14.950  16.623   0.392  0.1162 -0.0482 -0.2549
28697W        W44771   1.925   3.374   0.466 -0.0474  0.3961 -0.0927
28698W        W44772  11.909  10.972  13.338  0.0345  0.0339 -0.0624
28699W        W44773  12.282  11.777   1.124  0.1066 -0.0174 -0.0792
28700W        W44774   5.279  10.879  13.236  0.0768  0.0662  0.1448
28701W        W44775   4.458   1.545   3.898 -0.4564  0.2117  0.2642
28702W        W44776   5.605  11.709   3.116 -0.1037 -0.1109  0.2951
28703W        W44777   6.195  12.214   4.275  0.0764 -0.0098  0.2504
28704W        W44778   1.689   7.039  11.977  0.1917 -0.1095 -0.2189
28705W        W44779  17.695  15.045  12.358  0.0161 -0.2024 -0.2655
28706W        W44780   7.741   6.022  14.264  0.2039 -0.3583  0.0500
28707W        W44781   9.759   5.743  11.474 -0.0347 -0.0680 -0.3020
28708W        W44782   1.957  10.042   2.730 -0.1130 -0.0153 -0.0555
28709W        W44783  18.127   4.886   3.845  0.1268 -0.1576  0.0589
28710W        W44784   6.053  10.969  15.040 -0.2367 -0.0942  0.1964
28711W        W44785   5.924   8.445   4.025 -0.0157 -0.0587  0.1212
28712W        W44786   9.533  16.571  11.926 -0.0778  0.2044  0.2472
28713W        W44787   3.672   9.812   4.450  0.0637  0.2245  0.1102
28714W        W44788   3.504   8.439  14.080 -0.1109  0.1111  0.1514
28715W        W44789   9.836  16.254   3.251  0.0621  0.0825  0.2973
28716W        W44790   6.681  14.926  11.435 -0.3188  0.2408 -0.0969
28717W        W44791  14.775   9.813  13.347  0.1554 -0.0179 -0.1961
28718W        W44792   0.655  16.320   2.163  0.3338  0.1293 -0.0578
28719W        W44793  14.729  15.068   0.879 -0.0459  0.1681  0.0804
28720W        W44794  11.194   5.396  16.009 -0.2444  0.4184  0.0358
28721W        W44795   1.604   7.658   5.196 -0.0773 -0.2636 -0.1202
28722W        W44796  16.533  10.791   3.567 -0.3742  0.0171  0.1914
28723W        W44797  11.993  17.806  12.902 -0.3351  0.2463  0.1287
28724W        W44798   5.989   8.918   3.705 -0.2345 -0.1610  0.0375
28725W        W44799  16.721   0.578   1.752 -0.0978 -0.1595 -0.0253
28726W        W44800   5.127  13.328   3.397 -0.3470 -0.0350 -0.0413
28727W        W44801   0.760  10.788   2.985  0.0391 -0.0795 -0.2741
28728W        W44802  17.170   4.741  12.482 -0.0038  0.1836 -0.1183
28729W        W44803  17.160   0.721  13.967 -0.1084  0.3470  0.1122
28730W        W44804  13.427  10.903   3.311  0.2867 -0.0140 -0.0079
28731W        W44805  15.869   1.850  13.249  0.0814 -0.2232 -0.2941
28732W        W44806  11.574   5.487   4.274 -0.0610  0.1312 -0.0271
28733W        W44807   7.630   2.013  12.873  0.1960  0.4143  0.1199
28734W        W44808  10.489   7.857   0.339 -0.0271  0.1126 -0.0856
28735W        W44809   4.387  18.216   4.747  0.1188 -0.4483  0.4220
28736W        W44810  10.973  13.732  12.641 -0.0870  0.2640 -0.0849
28737W        W44811  14.465  10.209  13.308 -0.4180  0.0350 -0.3032
28738W        W44812   0.407  15.944   0.022  0.0159 -0.2712  0.1604
28739W        W44813  16.464   9.638  14.937 -0.0607 -0.0815 -0.3311
28740W        W44814  11.712  14.861   1.832 -0.0578  0.1584  0.2369
28741W        W44815   7.676  17.844  14.971  0.0312 -0.0163  0.0163
28742W        W44816  10.278  18.230  13.948 -0.2205  0.2164  0.0704
28743W        W44817   3.304   4.082   4.640  0.1513 -0.0509  0.1604
28744W        W44818  17.963  13.077  12.713  0.1829 -0.0561  0.5510
28745W        W44819   1.596   1.927   1.900 -0.0525  0.0087  0.2035
28746W        W44820  11.793   1.627  15.117 -0.2919  0.0464  0.2299
28747W        W44821   4.732  12.973   1.913 -0.0551  0.2601  0.1254
28748W        W44822   9.900  16.323  15.944  0.1064  0.1344  0.2550
28749W        W44823  15.791  17.278   6.022 -0.1913 -0.1768  0.2870
28750W        W44824   9.410  10.523  15.552  0.0482  0.0225  0.1681
28751W        W44825  17.440   5.347   5.602  0.1450  0.2007 -0.2342
28752W        W44826  17.180   6.318  16.023 -0.3427 -0.0693 -0.2001
28753W        W44827   6.720   1.938   1.913  0.0126 -0.1669 -0.2022
28754W        W44828  11.809   5.772  14.750 -0.1428 -0.1502 -0.0787
28755W        W44829  10.215  13.818  12.503 -0.0839  0.4459  0.0935
28756W        W44830   7.759   1.580   1.391  0.1807  0.1825  0.2636
28757W        W44831  10.925  15.972   0.950  0.0975 -0.1193 -0.0519
28758W        W44832  11.802   9.220   3.803  0.3604  0.0314 -0.1607
28759W        W44833  10.905  15.230   2.402 -0.0111  0.0487  0.0824
28760W        W44834   3.556  17.928  15.287 -0.0010 -0.0144 -0.0670
28761W        W44835   5.356   1.013  12.151 -0.0266 -0.0303 -0.1050
28762W        W44836   4.729   1.961  13.519  0.2927  0.2629 -0.4900
28763W        W44837   8.916   1.127  14.268 -0.1333  0.2420  0.2054
28764W        W44838  17.410  17.285  13.750  0.2153  0.2488 -0.0755
28765W        W44839  18.159   1.401  15.323 -0.0971 -0.1778 -0.0726
28766W        W44840  13.088   6.195  10.729 -0.1881  0.1795  0.1633
28767W        W44841  13.260   5.218  13.003  0.2096 -0.1615 -0.0077
28768W        W44842  11.194   2.432   5.741 -0.5368  0.1655 -0.2104
28769W        W44843   7.833   8.483   2.295  0.0925 -0.0018 -0.2070
28770W        W44844  10.532   9.432  15.652  0.1616 -0.0188 -0.1807
28771W        W44845   0.466  14.878   1.673  0.3976  0.0503 -0.1907
28772W        W44846   5.753  14.045  13.463  0.1429  0.2922 -0.0969
28773W        W44847  14.169   2.959  11.404 -0.1001  0.2627  0.1728
28774W        W44848  17.108   6.176  15.104 -0.2422 -0.1641 -0.3549
28775W        W44849  14.644   5.788   1.430 -0.0521  0.1930 -0.1267
28776W        W44850   1.507   8.591   5.783  0.0254 -0.2312 -0.1586
28777W        W44851  11.262  14.546  12.210 -0.0995  0.3463 -0.0640
28778W        W44852  16.133   2.326  12.537  0.1036  0.0690 -0.2678
28779W        W44853   0.386  17.476  16.212 -0.0887 -0.1599 -0.2945
28780W        W44854   7.419  11.650   4.138 -0.0504 -0.0806  0.1576
28781W        W44855   5.046   7.555   4.613 -0.2001  0.0225 -0.1209
28782W        W44856  12.976   8.846   5.893  0.0938 -0.1076  0.1222
28783W        W44857  17.798   3.750   2.627 -0.0063 -0.0617 -0.0774
28784W        W44858  15.937   8.630  16.271  0.1046 -0.0897 -0.1541
28785W        W44859   8.643   8.227   0.878 -0.0733  0.0021 -0.0365
28786W        W44860   5.540  14.156   4.343 -0.0409  0.1981 -0.2007
28787W        W44861  14.784   2.204  16.331  0.2694  0.1095  0.3177
28788W        W44862  15.508   6.941   2.968 -0.1256  0.1659 -0.1880
28789W        W44863  11.766   2.119   2.521 -0.0228  0.0087  0.0032
28790W        W44864  11.761   7.785   3.465  0.2268 -0.1855 -0.1949
28791W        W44865  10.256   3.357   0.167  0.0694  0.2021 -0.1828
28792W        W44866   5.926  12.567  12.100 -0.0549  0.1982 -0.0078
28793W        W44867  11.950  12.046  15.090 -0.0035  0.4157  0.3973
28794W        W44868  14.730  14.669   3.295 -0.2403 -0.3979  0.1040
28795W        W44869  10.339  13.397   0.297 -0.0152 -0.0416  0.1079
28796W        W44870  15.803   2.995   4.951 -0.1001  0.3425 -0.5036
28797W        W44871  17.938   3.364   3.452 -0.0676  0.1407  0.2111
28798W        W44872   1.586  16.840  10.811 -0.2552 -0.0209  0.0672
28799W        W44873   0.895   6.149   4.546  0.1838 -0.0534 -0.1201
28800W        W44874  16.609  13.645  13.121  0.0291  0.0650  0.0403
28801W        W44875   6.941   3.503  12.647 -0.3586 -0.2014  0.0674
28802W        W44876   4.491  17.162  14.810 -0.1305 -0.2627 -0.2463
28803W        W44877   2.712   2.629   1.125 -0.0638 -0.3018  0.4139
28804W        W44878   6.358   7.912   0.259  0.1969  0.1810 -0.1714
28805W        W44879  15.837  11.352   5.840 -0.0724  0.1974 -0.3119
28806W        W44880   9.712   9.900  14.575  0.1073  0.0416 -0.0930
28807W        W44881   0.283   3.709  12.261  0.0555  0.1903  0.3878
28808W        W44882   5.702  15.150  15.897  0.3027 -0.0089  0.1003
28809W        W44883   5.044  17.979  12.837 -0.0930 -0.2468  0.1145
28810W        W44884   3.532  14.986   1.050 -0.0734 -0.1799 -0.1234
28811W        W44885   6.304  14.799   2.367  0.0143 -0.1217 -0.0080
28812W        W44886  17.036   2.155   4.453 -0.0531  0.0263  0.2669
28813W        W44887   1.338   8.031   1.563 -0.0818  0.0216  0.0327
28814W        W44888   3.326  11.234  15.507 -0.2626  0.0613  0.2617
28815W        W44889  12.632  12.760  11.865  0.1271  0.0435 -0.2292
28816W        W44890   5.504   5.532   1.681  0.2302  0.0463 -0.0560
28817W        W44891   7.215  11.857   6.131  0.0484  0.0300 -0.0345
28818W        W44892   6.991   0.836  12.856 -0.3119 -0.2605 -0.0859
28819W        W44893   6.507  11.517  11.726 -0.1506  0.0468  0.1068
28820W        W44894  14.416   7.075  14.874 -0.1631  0.3376  0.0746
28821W        W44895   4.816   4.839  12.026  0.0423 -0.1311  0.0016
28822W        W44896  14.692   5.897   2.380  0.0288  0.0489 -0.2810
28823W        W44897  10.255   8.414   5.765 -0.0123  0.4925 -0.3539
28824W        W44898  10.037  15.623   5.739 -0.1394  0.2037 -0.0634
28825W        W44899  16.859  15.328  16.140 -0.1158 -0.2049  0.0891
28826W        W44900  10.050   3.460  11.545 -0.2615  0.3468  0.2571
28827W        W44901  11.463   1.580   4.064 -0.1406 -0.1837  0.1699
28828W        W44902   8.097   8.650  16.134  0.3040  0.0115  0.0108
28829W        W44903   2.210   9.604   5.001 -0.1609 -0.0260 -0.1002
28830W        W44904   9.048  10.625   5.458 -0.0845  0.0568 -0.1672
28831W        W44905   9.216   9.595   0.931 -0.4370  0.1084 -0.0247
28832W        W44906   4.186   4.920  14.317 -0.0544  0.2030 -0.2023
28833W        W44907   2.356   3.367   1.089 -0.1328 -0.0547  0.2563
28834W        W44908  11.194  14.710   0.616 -0.0928  0.1049  0.0630
28835W        W44909   4.592   5.633   5.806  0.1184  0.3090  0.0887
28836W        W44910  18.175   7.841   6.592 -0.0566  0.0256 -0.0683
28837W        W44911   4.052   3.409  15.187  0.0099  0.1755  0.0773
28838W        W44912  17.486  14.992  13.933 -0.0690 -0.0879 -0.0260
28839W        W44913   2.903  15.457   0.059 -0.1380  0.0398 -0.2293
28840W        W44914   3.413   0.826   4.260  0.0872  0.1754 -0.3681
28841W        W44915  15.845  14.145  12.831 -0.0558 -0.0163  0.1167
28842W        W44916   5.862   5.087   6.316  0.0941  0.4383  0.3849
28843W        W44917  15.114  12.573   5.633 -0.1287  0.0589  0.0496
28844W        W44918   5.961  10.288  12.179  0.1634  0.0241 -0.1380
28845W        W44919   1.787  16.776  13.220 -0.0182  0.2735 -0.1176
28846W        W44920  17.970   2.392  15.478 -0.0483  0.3510  0.0977
28847W        W44921   6.741   0.947   2.757  0.0927 -0.2178  0.0536
28848W        W44922   6.461   8.505  12.721  0.2260  0.1711 -0.1597
28849W        W44923   2.529  12.039   4.437 -0.1277 -0.1948  0.2050
28850W        W44924  11.546   2.238  12.322  0.0533 -0.2345  0.1603
28851W        W44925  16.534  14.288   3.264 -0.0277 -0.0093 -0.1594
28852W        W44926   7.316   8.904   4.749 -0.1260 -0.0280  0.0185
28853W        W44927   3.663  15.474   2.402  0.0676  0.0649 -0.0817
28854W        W44928  12.409   0.614   1.437 -0.0205  0.0987  0.1477
28855W        W44929  13.933   2.094  11.971  0.0652 -0.0181 -0.2526
28856W        W44930  17.547   1.397   5.860 -0.1218  0.0697 -0.1145
28857W        W44931   3.036  17.848   3.547 -0.1789 -0.0763 -0.0698
28858W        W44932  12.695  14.865   5.193 -0.1181  0.0742  0.1419
28859W        W44933   1.540  11.640   0.276 -0.4119  0.0998  0.1953
28860W        W44934   3.560   5.051  12.463  0.3188  0.1951  0.0916
28861W        W44935   7.724  13.811  14.499 -0.2960 -0.1710  0.1876
28862W        W44936  17.332   8.274  12.349  0.4894  0.0513  0.0353
28863W        W44937   2.142  16.017   1.145  0.1746 -0.0812  0.2215
28864W        W44938  17.375   5.383   3.630  0.0979  0.0155 -0.1568
28865W        W44939   4.069   2.726  13.682  0.1295 -0.0303 -0.1116
28866W        W44940  14.311   2.394  16.078  0.0598 -0.0070 -0.0478
28867W        W44941   0.811   7.963  11.703 -0.0915 -0.1425 -0.0244
28868W        W44942   6.358   6.694  14.888  0.0665 -0.2377 -0.0686
28869W        W44943   5.413  14.960  14.404  0.0394  0.1218 -0.1583
28870W        W44944   0.897  14.568   3.496 -0.2900  0.0897 -0.0919
28871W        W44945   1.066  15.514  11.088  0.0181 -0.4309 -0.2009
28872W        W44946  15.334  13.956  13.306  0.1608 -0.3206  0.0840
28873W        W44947   8.134   2.440  15.730 -0.0773 -0.1175 -0.2161
28874W        W44948  13.514   8.566   2.349  0.1454  0.1317 -0.0942
28875W        W44949   3.217  10.480  14.160  0.2290  0.0739 -0.1611
28876W        W44950   4.266  16.126   2.251  0.1778 -0.0971  0.2113
28877W        W44951  11.191  10.666   0.106 -0.1553 -0.3548 -0.2914
28878W        W44952  14.815  15.020   6.223  0.1285  0.1536 -0.2618
28879W        W44953   5.655   9.998   5.025 -0.1807  0.0091  0.3235
28880W        W44954   1.535   9.952  14.241  0.0202 -0.2309  0.0479
28881W        W44955   9.181   6.560   4.121  0.2817  0.0337 -0.0874
28882W        W44956  13.101   3.571   1.079  0.0180 -0.0247 -0.2176
28883W        W44957   2.996   7.077  13.470 -0.0802 -0.1105  0.2001
28884W        W44958   7.800  10.296  12.284  0.0342  0.1460 -0.0091
28885W        W44959  10.249   8.566  13.552 -0.0052 -0.3593  0.1835
28886W        W44960   4.907   2.400   1.365 -0.1753 -0.3784  0.0372
28887W        W44961  13.031   5.424   0.802 -0.0408 -0.0282  0.1016
28888W        W44962   8.289   4.952  12.110  0.0245 -0.1335  0.0578
28889W        W44963  12.053   8.867   0.571 -0.2173  0.0543 -0.0283
28890W        W44964   7.008   3.915   3.522 -0.1415 -0.0135  0.0604
28891W        W44965  16.202  11.435  14.551  0.2390 -0.0873 -0.0590
28892W        W44966  14.240  17.248  15.053  0.0736 -0.2135 -0.0151
28893W        W44967   0.029   3.904  14.697 -0.0257  0.0449  0.2475
28894W        W44968  17.359   8.314  13.798 -0.1948  0.1551 -0.0031
28895W        W44969  12.941   8.145  13.564  0.0881 -0.3767 -0.1776
28896W        W44970  12.309  13.742   4.595  0.1158  0.0918  0.2164
28897W        W44971  13.730   9.252  14.672  0.0623 -0.2225 -0.1530
28898W        W44972   4.738   0.809  13.336  0.0132  0.2146 -0.3175
28899W        W44973   4.117   6.362  14.303 -0.3470 -0.1641 -0.3945
28900W        W44974  17.056   7.352  13.964  0.1200 -0.1354 -0.1683
28901W        W44975  13.365   5.494   5.332 -0.0405 -0.1927  0.1204
28902W        W44976   6.366  16.176  14.613  0.2837  0.0633 -0.4491
28903W        W44977   0.512   5.723   3.434 -0.0741  0.0287 -0.0820
28904W        W44978   4.786  12.344  13.059 -0.0092 -0.0198 -0.1113
28905W        W44979   8.391  17.146   6.099  0.0492 -0.2809  0.0147
28906W        W44980  17.286   2.621   5.051 -0.0594 -0.1795 -0.0402
28907W        W44981   0.047   9.857  14.828  0.1141 -0.2865 -0.0021
28908W        W44982   6.500   2.734   3.351  0.1408 -0.2361 -0.0714
28909W        W44983   4.237  10.202   0.764  0.1301  0.2131 -0.0117
28910W        W44984  14.751  15.673   4.401 -0.2744  0.0644  0.1080
28911W        W44985  14.750  17.027   0.883  0.0353  0.1033 -0.0385
28912W        W44986  10.711   1.955   2.956 -0.3528  0.0040 -0.0305
28913W        W44987  13.024   5.007  12.605  0.0139  0.0944 -0.2519
28914W        W44988  13.700   4.414   4.035  0.0116  0.0853 -0.0186
28915W        W44989  10.492   8.218  12.208  0.1077  0.0177  0.0262
28916W        W44990   2.168  11.404   4.133 -0.1800  0.0268  0.0782
28917W        W44991   1.679  15.716   3.065 -0.0092 -0.0820 -0.4107
28918W        W44992   2.372  16.368   2.977 -0.0300 -0.0738  0.2092
28919W        W44993   5.039  14.830  15.405  0.0564  0.0095 -0.0623
28920W        W44994  14.513   1.612   3.340 -0.1075  0.0830  0.2072
28921W        W44995   7.099   7.342  15.719 -0.0588  0.0074  0.0669
28922W        W44996  17.577  15.512   4.385 -0.0662 -0.3950  0.0061
28923W        W44997   4.834  17.649  14.157 -0.0814  0.1904  0.0143
28924W        W44998   3.075   0.960   3.427  0.2521 -0.0525 -0.0186
28925W        W44999  15.373  10.979  11.764  0.0726 -0.0066  0.1344
28926W        W45000  16.731  16.773  14.068 -0.2241  0.2611  0.1191
28927W        W45001   2.037   5.249   2.914  0.1703 -0.1167 -0.4009
28928W        W45002   0.149  12.705  14.668 -0.3112  0.0406  0.3744
28929W        W45003   6.067  13.756  11.933 -0.0071 -0.3130  0.3597
28930W        W45004   1.262   9.674   1.732 -0.2451 -0.2979  0.3971
28931W        W45005  12.800   5.025  14.586  0.1088  0.1206  0.0223
28932W        W45006   8.089   0.061   3.512 -0.1389  0.5016  0.4127
28933W        W45007   7.175   2.853   5.029  0.0789 -0.1340  0.0297
28934W        W45008  16.614  18.143  13.277 -0.1003 -0.4149 -0.3473
28935W        W45009  14.082   8.087  11.320 -0.0040  0.1696 -0.1225
28936W        W45010   5.917   7.650   4.624  0.1693 -0.1212 -0.0131
28937W        W45011  10.836   9.690  15.022  0.2588 -0.2447  0.2023
28938W        W45012   5.381   7.617  14.396  0.0717  0.3203  0.0101
28939W        W45013   0.060   7.085  14.168 -0.2083  0.1815 -0.0249
28940W        W45014   2.672  14.526   4.654  0.0886  0.2094 -0.0542
28941W        W45015   3.235   3.844   5.979 -0.1105  0.0060  0.0084
28942W        W45016  18.016   1.054   4.658 -0.0784  0.0192  0.3275
28943W        W45017   7.325  13.412  12.227 -0.1089 -0.0632 -0.2975
28944W        W45018  12.270   4.831   3.998 -0.1927 -0.0313  0.1191
28945W        W45019  13.610   1.305   6.002 -0.2882  0.1224  0.1079
28946W        W45020   1.550   9.431   2.191 -0.0757  0.1758 -0.1966
28947W        W45021   5.463  17.482   5.373 -0.0888 -0.1138  0.1901
28948W        W45022   7.935  14.785  12.941  0.0339 -0.3205  0.3944
28949W        W45023  14.345  15.878   5.794  0.2530  0.2064 -0.2421
28950W        W45024  14.173  17.024   4.253 -0.0602 -0.0392 -0.1558
28951W        W45025   3.222   5.422  15.899 -0.0582 -0.1311  0.0555
28952W        W45026  16.802   8.133   3.203  0.1029  0.2932 -0.1867
28953W        W45027   5.931  15.223   1.038  0.1391  0.0859 -0.0674
28954W        W45028   8.211   8.739  14.667  0.1646  0.0580  0.0350
28955W        W45029   2.034  13.625  13.595  0.0214  0.1579  0.2625
28956W        W45030  13.120   7.841  16.071 -0.0371  0.2454  0.1202
28957W        W45031   0.330  15.963   0.797 -0.1251 -0.1103  0.1901
28958W        W45032   8.981   0.412  15.503  0.3442 -0.2917 -0.1054
28959W        W45033  10.241   4.491   3.716 -0.2221  0.0871 -0.3505
28960W        W45034   4.047   3.033   2.079  0.0250  0.3220 -0.3138
28961W        W45035   5.079  14.599   5.549 -0.2226  0.1277 -0.0771
28962W        W45036  12.927  14.760  13.192 -0.2519 -0.1501 -0.0887
28963W        W45037   5.777  16.151  14.550  0.2247  0.1560  0.0664
28964W        W45038  11.500   5.916   1.453  0.4474 -0.2813 -0.1428
28965W        W45039  12.743   5.532  11.318  0.1228  0.1182 -0.3737
28966W        W45040   8.473  14.874  13.307  0.2346 -0.1372  0.0364
28967W        W45041   3.058   2.259   4.460 -0.1174  0.0525 -0.3754
28968W        W45042  15.887   9.934   0.321  0.0013 -0.1095  0.1675
28969W        W45043  13.465  15.577  15.939 -0.0860 -0.2937  0.3063
28970W        W45044   0.468  14.308   2.600  0.1579 -0.2658 -0.3608
28971W        W45045  13.439   6.131   3.977  0.0630  0.1454  0.4283
28972W        W45046  13.871  13.039  11.774 -0.2109  0.0129  0.2900
28973W        W45047   2.885   0.276   5.376 -0.1407  0.1187  0.0141
28974W        W45048  15.861  17.839   1.319  0.0208 -0.3592  0.2033
28975W        W45049  11.499   9.061   1.420  0.0999  0.0068  0.1073
28976W        W45050  13.699   4.306  13.112  0.0534  0.2825 -0.2014
28977W        W45051   5.593   1.427   5.298  0.0452  0.1641  0.1078
28978W        W45052  14.517   3.999  12.831 -0.1364  0.0647  0.0591
28979W        W45053  13.762  18.028   0.341 -0.3000 -0.2074  0.2509
28980W        W45054   2.132   1.002  12.408  0.3379 -0.2094 -0.3654
28981W        W45055  13.316   1.005  12.327  0.1008  0.2292 -0.1141
28982W        W45056   0.362   1.899   0.723 -0.7765  0.1868 -0.1325
28983W        W45057   0.361   7.423   5.244  0.0952 -0.2110 -0.3537
28984W        W45058   5.867  12.781   0.193  0.0166 -0.0686 -0.1482
28985W        W45059   3.789  16.151   4.820  0.4068  0.0502  0.2398
28986W        W45060  13.000   3.204  16.346  0.2501  0.1169  0.0958
28987W        W45061  10.152  13.003  11.809  0.2978 -0.1577 -0.0341
28988W        W45062   2.484   7.925   2.772  0.0868  0.1708 -0.0776
28989W        W45063  14.862  10.395   0.713 -0.0683  0.2687  0.0491
28990W        W45064  16.372   8.377  16.057  0.1390  0.3604 -0.1288
28991W        W45065   9.535  15.767   1.410 -0.0749  0.2359  0.1201
28992W        W45066   9.458  10.504  13.611  0.1705  0.2106  0.0516
28993W        W45067   5.655  10.243  15.243 -0.3457  0.2036  0.0362
28994W        W45068  10.537   2.074  11.483 -0.0303 -0.0427 -0.0200
28995W        W45069  10.938  16.461  15.912  0.3493  0.0287 -0.0387
28996W        W45070   4.970  14.641  12.329  0.0245  0.0331  0.3286
28997W        W45071   3.955   7.306   1.992 -0.2169  0.1287 -0.0747
28998W        W45072  10.108  17.648  15.165  0.0699  0.0635  0.2757
28999W        W45073   7.397   5.965   1.400  0.1962  0.3884 -0.0526
29000W        W45074  12.910   2.007  15.384 -0.0159  0.0042 -0.0742
29001W        W45075  12.975  12.170   2.431 -0.1175  0.0777 -0.2062
29002W        W45076   9.354   0.984   5.772  0.2975 -0.1270 -0.0400
29003W        W45077  15.787   8.403   5.057 -0.0267 -0.2545  0.2613
29004W        W45078   2.573  16.312  14.445 -0.2326  0.0505  0.0077
29005W        W45079   2.011   7.152   2.646 -0.0196  0.1214 -0.0540
29006W        W45080  18.215   8.549  15.735  0.0339  0.0666 -0.0375
29007W        W45081  17.611   4.598  16.163  0.3347 -0.0702 -0.2117
29008W        W45082  15.301  15.616   3.009  0.2973  0.4622  0.0658
29009W        W45083   5.296   6.208  16.010  0.1233  0.3532  0.0249
29010W        W45084   6.897   2.141   2.713  0.0557 -0.0835 -0.4009
29011W        W45085   6.871   8.395   1.145 -0.0445  0.1424  0.1331
29012W        W45086   4.114   4.852   4.414 -0.1461 -0.0001 -0.1296
29013W        W45087   9.207   7.369   2.788  0.1951 -0.2188 -0.0565
29014W        W45088  15.217  14.787  13.683 -0.0207  0.1614  0.3284
29015W        W45089  12.458   8.584   0.666 -0.1459  0.1320  0.0813
29016W        W45090  15.547  18.057  11.778 -0.0600  0.0154 -0.1932
29017W        W45091  10.568  12.306   5.605 -0.0420 -0.3086  0.1142
29018W        W45092  12.196  18.326  11.681 -0.1548 -0.1414 -0.1647
29019W        W45093   1.088   5.477   5.672 -0.1604 -0.0359  0.2585
29020W        W45094  12.669   8.850   3.463  0.2894 -0.0768  0.2542
29021W        W45095  14.704   0.535   2.887  0.0074 -0.0416  0.0738
29022W        W45096  10.024   8.729  15.013 -0.2049  0.2878  0.0630
29023W        W45097   5.935  11.448   0.556 -0.0888  0.3409 -0.0961
29024W        W45098  16.445   9.099   2.554 -0.3535 -0.1920 -0.1163
29025W        W45099  11.831   1.490   3.726 -0.0776  0.0598 -0.0529
29026W        W45100   6.366   1.918  12.526 -0.3435  0.0839  0.0333
29027W        W45101  14.563   2.122  15.161 -0.1621 -0.0584  0.0687
29028W        W45102   7.540   7.356  15.552 -0.1912 -0.0041  0.0448
29029W        W45103  13.238  15.970  15.743 -0.0713  0.0310  0.1142
29030W        W45104  13.338   5.106   4.270 -0.1019 -0.1477 -0.0079
29031W        W45105  14.414  14.011   0.288 -0.4323 -0.2102  0.1540
29032W        W45106   2.397   4.447  14.682  0.1649 -0.1533 -0.0402
29033W        W45107  12.876   6.533  13.878 -0.1060  0.1117 -0.3060
29034W        W45108  16.345  13.481   4.381  0.2225 -0.4044 -0.1951
29035W        W45109   7.147   4.788  11.126 -0.0378 -0.1457  0.1926
29036W        W45110   6.140   1.771  13.835  0.2884 -0.0538  0.1771
29037W        W45111   9.715  14.949  11.941  0.0501 -0.3536  0.0510
29038W        W45112   5.232   0.704   1.593 -0.1066  0.0524 -0.0171
29039W        W45113  13.400   9.664  15.228  0.1887  0.0648  0.1787
29040W        W45114  15.213  13.024  14.720  0.2652  0.2749 -0.1229
29041W        W45115  13.378   5.798  10.946 -0.0827  0.2301 -0.0299
29042W        W45116   9.341  12.420   2.406 -0.2240 -0.1993 -0.1986
29043W        W45117   5.806   2.544  14.122  0.0163 -0.0135 -0.0846
29044W        W45118   6.377  13.922  11.518 -0.0373 -0.0667 -0.1750
29045W        W45119  11.757   2.775  13.872 -0.1587  0.0449 -0.1412
29046W        W45120   9.491   5.168   4.782 -0.2305 -0.1298 -0.1393
29047W        W45121   3.599  11.468  14.188  0.1830  0.0551  0.3626
29048W        W45122   4.725  11.041   3.349  0.1784 -0.2282  0.1294
29049W        W45123  15.511   4.027  13.338 -0.0070  0.0991 -0.1615
29050W        W45124   3.165   0.739   1.118 -0.1928  0.4324  0.0450
29051W        W45125   4.438  16.645   3.578  0.2112 -0.0094 -0.2711
29052W        W45126   6.432  10.066  14.819 -0.2052 -0.0110  0.3245
29053W        W45127  18.078  10.261   1.998  0.2044  0.1785  0.2207
29054W        W45128  11.154  12.375  12.742  0.3643  0.0193 -0.0104
29055W        W45129   1.394  10.107   2.049 -0.1043  0.2053  0.0889
29056W        W45130   4.764  17.058  15.235  0.0592 -0.1131  0.0494
29057W        W45131   6.224   3.615   1.051 -0.1701  0.4059  0.1204
29058W        W45132  14.180  13.266  12.085  0.0880 -0.1224  0.2004
29059W        W45133   8.204   2.949  14.161 -0.1741  0.0503  0.1565
29060W        W45134   9.933   2.170   4.544  0.0241 -0.2587  0.1241
29061W        W45135   7.855   1.069   1.328 -0.1724  0.3375 -0.0740
29062W        W45136  12.350  15.953   1.064  0.0457 -0.3027  0.0010
29063W        W45137   2.648   5.397   2.181 -0.0362 -0.0148 -0.2615
29064W        W45138   3.841   2.422  14.866 -0.1106 -0.3439  0.1434
29065W        W45139   1.627  15.379   2.458  0.0002  0.0558 -0.0473
29066W        W45140  17.475   1.772  15.260 -0.0134 -0.1999 -0.1389
29067W        W45141  13.977   2.740   4.982 -0.2155 -0.0691 -0.1013
29068W        W45142  13.439  15.753  12.570 -0.0201  0.1146 -0.0287
29069W        W45143  12.378   0.724  13.806 -0.0903 -0.1126 -0.2054
29070W        W45144   0.748  17.185   1.536  0.0787  0.2055  0.2594
29071W        W45145  17.959   3.217   5.449 -0.3335  0.1935  0.1862
29072W        W45146  12.636  12.859   5.799  0.1938  0.1872 -0.1656
29073W        W45147  14.809   0.788   4.868  0.1401 -0.1200 -0.0889
29074W        W45148   2.710   6.560  15.785 -0.0312 -0.0943 -0.1842
29075W        W45149   9.710  18.156  15.034 -0.0663 -0.0743 -0.0373
29076W        W45150  17.870  10.203  14.473 -0.2002 -0.3326  0.1431
29077W        W45151  15.568   3.019   5.468 -0.1449  0.0179  0.2898
29078W        W45152  12.984   3.981  12.900  0.1992  0.0369  0.0970
29079W        W45153   6.739  12.655  13.568  0.1144  0.0964 -0.1206
29080W        W45154  11.146  16.119   0.460  0.1378 -0.2479  0.1822
29081W        W45155   2.817   6.955   1.203 -0.0719 -0.2638  0.1208
29082W        W45156   8.385  14.335   3.092  0.0810  0.0807 -0.1938
29083W        W45157   3.779   2.395  14.098 -0.0656  0.1606  0.0592
29084W        W45158   9.303  15.369  15.846 -0.0981 -0.2193 -0.0521
29085W        W45159  12.577   3.218   0.199  0.2586 -0.2405 -0.0324
29086W        W45160   3.943   2.664   4.353 -0.0498 -0.0951 -0.2900
29087W        W45161  12.017  10.033  15.124 -0.2626 -0.1444 -0.2645
29088W        W45162  10.126   1.562   1.474  0.0326 -0.0222  0.1947
29089W        W45163  10.791  11.251   2.195  0.2243 -0.0082 -0.0546
29090W        W45164   0.114  12.895   4.010 -0.0537  0.2266 -0.3497
29091W        W45165   8.517   9.612   4.584  0.1117  0.5206 -0.0509
29092W        W45166   2.714  16.604   0.721  0.1198 -0.1740  0.0468
29093W        W45167  10.775   2.959   3.450  0.0386 -0.0011 -0.2445
29094W        W45168   5.579  12.141  15.684 -0.1120  0.1486 -0.1392
29095W        W45169   8.542  11.628   4.162 -0.3580 -0.1417 -0.1689
29096W        W45170   7.525   5.534  14.137 -0.2540 -0.0962  0.2108
29097W        W45171   5.219  11.653   5.018  0.2061 -0.1787  0.0025
29098W        W45172  14.589   4.057  12.023 -0.1693 -0.0981 -0.2144
29099W        W45173   9.058  11.922  15.551 -0.0535  0.1408  0.0038
29100W        W45174   8.285  16.048  11.936 -0.1097  0.1325  0.0868
29101W        W45175  16.705   5.759  11.694  0.0677  0.1499 -0.1537
29102W        W45176  14.361   3.391   4.654  0.1328 -0.0774  0.2521
29103W        W45177  14.314  16.529   3.357 -0.1928  0.1032 -0.2190
29104W        W45178   3.852   2.055  14.524  0.2032  0.1708  0.0521
29105W        W45179   3.026   9.110   0.908 -0.0007  0.2420 -0.2031
29106W        W45180  10.602  13.210   0.920 -0.1530  0.1835 -0.4169
29107W        W45181   7.967   4.954  12.787  0.1455 -0.1044 -0.2632
29108W        W45182   1.363  17.845   3.005  0.1682 -0.2020  0.2639
29109W        W45183   5.902  14.932   5.509 -0.1883 -0.2291  0.0557
29110W        W45184  14.476  13.391   3.877  0.3298 -0.0899  0.1790
29111W        W45185   7.043   4.403   1.061 -0.0126 -0.1101  0.2889
29112W        W45186  14.596   3.760  13.260  0.0442  0.1328 -0.1666
29113W        W45187   6.087  14.451  16.334 -0.0189  0.0286 -0.0999
29114W        W45188   0.185  14.078  14.172  0.1890  0.2202 -0.1598
29115W        W45189   8.025   3.325   0.462 -0.2715 -0.1167 -0.4028
29116W        W45190   2.545  16.496   5.332  0.2931  0.0529  0.1916
29117W        W45191  11.305   2.592  11.411 -0.0535  0.1476  0.0844
29118W        W45192   8.179  15.790  15.918  0.0992  0.1431  0.0174
29119W        W45193  12.090   0.466  15.475 -0.0294 -0.2653 -0.1828
29120W        W45194   5.820  10.730  13.542  0.1536  0.2588 -0.1386
29121W        W45195   9.166  14.345  11.806 -0.0732 -0.1926 -0.3405
29122W        W45196   0.888  13.001  11.422 -0.2109 -0.1156  0.0303
29123W        W45197  14.013   8.857   0.236  0.0333  0.0752  0.0381
29124W        W45198   0.605   5.259   1.059 -0.2463 -0.0625  0.0336
29125W        W45199   7.682   0.887  14.937 -0.0388 -0.1896 -0.1526
29126W        W45200   0.190   2.597   4.190  0.4101 -0.1163 -0.0737
29127W        W45201   1.110  12.737   3.050  0.1551 -0.1916  0.2322
29128W        W45202   9.062  17.869   5.126 -0.0519  0.3729  0.1161
29129W        W45203  15.234   9.778   4.660 -0.2357  0.0164  0.0900
29130W        W45204   6.210  10.888  12.272 -0.1767  0.4493 -0.5711
29131W        W45205   4.757  17.772  12.330 -0.2900  0.1508  0.2474
29132W        W45206   7.905   5.774   2.847 -0.0523  0.1637 -0.1078
29133W        W45207   3.886   1.317   3.141  0.1309  0.5073  0.1725
29134W        W45208   9.647   1.209   3.616 -0.1255  0.0075  0.0461
29135W        W45209   1.683   3.406  13.789 -0.1537  0.1258 -0.2400
29136W        W45210  11.725  10.980   3.744  0.1050 -0.1207  0.0576
29137W        W45211   1.929  12.994  13.075  0.0986 -0.0704  0.0571
29138W        W45212   5.112  11.038  14.745 -0.3678  0.0500 -0.0367
29139W        W45213   7.578   0.174  15.281  0.0312  0.3027 -0.0357
29140W        W45214  11.133  16.997   5.284 -0.1786 -0.4795 -0.2431
29141W        W45215  13.917  15.352   4.696  0.1518  0.0658 -0.1983
29142W        W45216  13.006   7.116  13.971 -0.0535 -0.3093  0.0817
29143W        W45217   1.938   2.013  14.094 -0.0263  0.2036  0.1237
29144W        W45218   8.017  18.024  12.698  0.1841  0.1758  0.0922
29145W        W45219  18.223  15.271   0.477 -0.0562  0.0811 -0.1669
29146W        W45220  16.013   5.650   2.648 -0.1748 -0.0156  0.0701
29147W        W45221  14.287   1.301  11.577  0.0513  0.4287  0.0379
29148W        W45222   3.329  16.627  11.156 -0.0025  0.0284 -0.1058
29149W        W45223   9.261  11.805   4.900 -0.1692  0.0321 -0.4514
29150W        W45224   1.322   4.824   4.860 -0.1700  0.1482 -0.2312
29151W        W45225  17.169   4.834   5.189  0.3624 -0.1457 -0.3062
29152W        W45226   1.503   4.257  12.602  0.0994  0.0230 -0.2553
29153W        W45227   6.562   3.311   4.366  0.0782 -0.1388 -0.3900
29154W        W45228   3.546   9.332   2.576  0.1271 -0.3163  0.1973
29155W        W45229  12.865   6.686  14.827  0.0190  0.1816  0.1109
29156W        W45230  13.508   6.021   4.450  0.0187  0.1370  0.3036
29157W        W45231   1.781   2.010  10.667 -0.1212  0.1909  0.0856
29158W        W45232   8.080  12.093  11.799  0.0211  0.0919 -0.2432
29159W        W45233  12.636  10.748   2.529 -0.1386  0.0577  0.0208
29160W        W45234   1.366  12.241   1.717 -0.1071 -0.1408 -0.2314
29161W        W45235  14.568  17.884   5.047 -0.0010 -0.1374 -0.0175
29162W        W45236   9.956  17.194   3.688 -0.0860 -0.0381 -0.0897
29163W        W45237  13.297  10.134   2.312 -0.0987 -0.0358  0.1833
29164W        W45238  14.176  15.692  10.334  0.0797  0.0330 -0.0238
29165W        W45239  15.145   9.190  11.736 -0.3016  0.2318 -0.0374
29166W        W45240   7.561  12.039  12.619  0.0332  0.2138 -0.3027
29167W        W45241   7.174   1.637   3.888  0.0495 -0.1949 -0.2581
29168W        W45242   5.791  16.494  15.493 -0.1678 -0.3493  0.0225
29169W        W45243  16.194  12.174   5.072 -0.2078  0.0757 -0.1040
29170W        W45244  11.269  14.660   3.905 -0.2770  0.2911 -0.0972
29171W        W45245  12.911  15.265   0.732  0.2097  0.1329 -0.0088
29172W        W45246  14.118  13.487  14.734 -0.0903  0.0083 -0.3861
29173W        W45247  11.674   0.027  14.875 -0.0392  0.5048  0.0559
29174W        W45248   7.561  17.599  14.514 -0.0640  0.1053  0.0213
29175W        W45249   4.922   9.786  11.226 -0.1412 -0.0333 -0.3277
29176W        W45250  11.147   1.149   5.341 -0.2193  0.0011  0.1130
29177W        W45251   9.411  17.096  12.021  0.1855 -0.1001  0.0262
29178W        W45252  10.579  12.654   3.733 -0.1962  0.1162 -0.2659
29179W        W45253   9.459   6.986   0.105  0.0215  0.0770 -0.0338
29180W        W45254   8.597   3.930  16.181 -0.0437 -0.0288 -0.0586
29181W        W45255  12.183  12.977   1.907  0.1135  0.0875 -0.1109
29182W        W45256   9.640  10.576   6.220 -0.0389  0.0246 -0.0294
29183W        W45257  13.878   5.451   1.526 -0.0184 -0.0126  0.0568
29184W        W45258  15.002  12.367  14.409 -0.0430  0.1144  0.2383
29185W        W45259  10.407   5.513   0.861 -0.1055  0.0801  0.0298
29186W        W45260  12.454   9.094   0.630  0.4547 -0.0507  0.0699
29187W        W45261  14.244   5.774   2.772 -0.0176  0.1110 -0.0689
29188W        W45262   1.371   0.420  14.898  0.2186  0.1810  0.1785
29189W        W45263   6.717   2.670  13.008  0.1589  0.1328 -0.1895
29190W        W45264  16.558   6.615  14.775  0.1266  0.1192 -0.0332
29191W        W45265   4.322  12.803   0.207 -0.0827 -0.1455  0.0109
29192W        W45266   2.708   7.264  11.936  0.1165  0.0742 -0.3215
29193W        W45267   8.978   2.470  13.233  0.1681  0.1180 -0.0962
29194W        W45268   9.725  10.776  14.316 -0.0910  0.0333  0.1542
29195W        W45269  15.340  10.543   0.539  0.3795 -0.0453 -0.1405
29196W        W45270   9.898  16.605   5.427  0.0044  0.2521  0.1913
29197W        W45271   6.299   5.273   0.301  0.3037 -0.0484  0.3753
29198W        W45272  14.018  10.048   1.154  0.2541 -0.0551 -0.0447
29199W        W45273  18.097   8.608   2.002 -0.2134 -0.0889 -0.0173
29200W        W45274   4.313  13.452  11.590 -0.1174  0.5368  0.1080
29201W        W45275   7.436   6.815  10.184 -0.0365  0.0162  0.0218
29202W        W45276   1.011  14.084  15.346  0.0441  0.2607  0.3527
29203W        W45277   2.826  14.605   2.711  0.0754  0.0612 -0.2243
29204W        W45278  15.228   0.724  14.481 -0.0400 -0.1210 -0.2272
29205W        W45279  17.509   9.115   0.122  0.1973 -0.0095 -0.0061
29206W        W45280   7.436   2.823  11.002 -0.1495  0.1646 -0.1941
29207W        W45281  11.157  17.575  13.860  0.0291 -0.0655  0.1532
29208W        W45282  14.029  16.773   4.684 -0.3271  0.1408 -0.0664
29209W        W45283   6.662  17.559   1.207  0.0553 -0.1063 -0.3654
29210W        W45284   9.480   9.855   1.305  0.0190 -0.0837 -0.0997
29211W        W45285  11.416  12.141   1.009  0.2373  0.1846  0.1162
29212W        W45286   5.289   9.533   5.030 -0.0833  0.1525  0.1764
29213W        W45287   3.599  10.582  12.835 -0.0456 -0.0462  0.4613
29214W        W45288  13.264   5.336  13.962  0.0419 -0.1286  0.0536
29215W        W45289   4.379  10.939   4.758 -0.0758  0.2598  0.1889
29216W        W45290   3.310  17.269  16.143  0.1460  0.0359  0.2007
29217W        W45291   0.074  17.056  16.132 -0.2460  0.3511 -0.0929
29218W        W45292  14.970   6.980   5.299 -0.2005 -0.0715  0.1176
29219W        W45293  12.988   4.552  11.295 -0.0311 -0.0564 -0.0873
29220W        W45294   0.601   0.963   3.080 -0.0018  0.0194 -0.2918
29221W        W45295  17.258  11.374  11.566 -0.2104  0.0300 -0.0506
29222W        W45296   1.860   1.191   5.167  0.0352  0.2107  0.0454
29223W        W45297   9.817   1.090   4.655 -0.0703  0.1638  0.0491
29224W        W45298   6.048   3.437   0.549  0.1190  0.2116 -0.1482
29225W        W45299   9.287  15.816  11.351  0.1965  0.3544  0.0134
29226W        W45300   3.433   8.211  14.679  0.0928  0.0588  0.1586
29227W        W45301   0.026  16.453  15.605  0.2235  0.3636 -0.0743
29228W        W45302   0.128  13.027  15.828  0.1189 -0.1941  0.1618
29229W        W45303   5.910   7.870  11.605 -0.2612  0.3040 -0.0060
29230W        W45304   2.760  15.780   0.492  0.0351  0.0375 -0.0381
29231W        W45305   5.617  15.959  11.185  0.0904 -0.0866  0.1657
29232W        W45306   5.013  10.946  15.946  0.1750  0.0915 -0.0034
29233W        W45307   6.758   3.017  12.594  0.0461  0.2631  0.3405
29234W        W45308  17.788  15.150   3.852 -0.1934 -0.3340 -0.1238
29235W        W45309  16.404   3.271   0.834 -0.2227  0.1704  0.0200
29236W        W45310   7.595   1.672  10.545 -0.0193 -0.1602  0.0747
29237W        W45311  13.588   9.989   5.534  0.1035 -0.1969  0.1886
29238W        W45312  12.889   2.111  13.458  0.1224  0.1022 -0.0491
29239W        W45313   8.681   2.772  12.852 -0.1527 -0.3118 -0.1555
29240W        W45314   1.298   1.776  11.907  0.0254 -0.1644 -0.0042
29241W        W45315   6.086   7.524   0.098  0.3277  0.3028 -0.0424
29242W        W45316   3.188   0.334  11.707  0.0952  0.2677  0.3587
29243W        W45317  14.516  13.695   6.522 -0.3278 -0.2252  0.3780
29244W        W45318   7.442   9.421  16.024 -0.1862 -0.0407  0.0464
29245W        W45319   5.655   1.099  16.370  0.1022 -0.0344  0.0171
29246W        W45320   4.428  17.305   0.977 -0.1381 -0.0148 -0.1880
29247W        W45321   0.213   7.537  13.771 -0.0451  0.1632  0.1681
29248W        W45322  15.496   4.989   3.261  0.2204  0.0555 -0.0410
29249W        W45323   0.290  10.061   6.386 -0.1969  0.1053  0.1372
29250W        W45324  11.937   8.184   6.109 -0.0805  0.1521 -0.1134
29251W        W45325   1.128   9.143  12.381  0.1362 -0.2598 -0.0839
29252W        W45326  17.984   3.237  15.755 -0.0060 -0.2277  0.1914
29253W        W45327   4.242   7.599   0.004 -0.0717 -0.1270  0.2355
29254W        W45328   3.239  17.542  15.307  0.0843 -0.2317  0.2147
29255W        W45329   0.040   0.163   6.017  0.2039  0.1977  0.1614
29256W        W45330  14.803  11.697  12.310 -0.1902  0.0622  0.1692
29257W        W45331  11.579  11.473   4.372 -0.2999 -0.1218  0.3277
29258W        W45332  11.373   5.133   3.252 -0.2964 -0.4295 -0.1028
29259W        W45333   9.837   3.802   5.992  0.0715  0.1463 -0.0616
29260W        W45334  17.810   3.116  13.670 -0.2441  0.1150  0.0280
29261W        W45335  15.076   4.056  14.387 -0.0627  0.1781 -0.1200
29262W        W45336  17.432  17.319   2.920  0.4654  0.1564 -0.1223
29263W        W45337   8.348   8.038   5.686 -0.2473  0.0530 -0.0246
29264W        W45338   6.617   5.762   3.988  0.0588 -0.0505 -0.0696
29265W        W45339  11.064  17.252   3.943  0.0273  0.1798  0.1036
29266W        W45340  10.432  17.919   3.950  0.1437  0.5501 -0.1984
29267W        W45341  18.165  15.810   1.114 -0.1086 -0.0374  0.1227
29268W        W45342  11.684  14.454   4.313  0.1566 -0.0594 -0.2155
29269W        W45343  17.225  12.457   2.674 -0.2911 -0.1505  0.0951
29270W        W45344  17.068  12.458   4.477  0.0277 -0.1095 -0.0224
29271W        W45345  14.251   3.448  14.698 -0.3756  0.0503  0.3457
29272W        W45346  14.010  12.718  14.393 -0.3061 -0.0771 -0.0003
29273W        W45347   6.835  13.718   1.769 -0.0738  0.0111 -0.0702
29274W        W45348   9.885   5.993  11.878  0.1090  0.0014  0.0325
29275W        W45349  10.201  13.248  16.206  0.0078 -0.3271  0.1505
29276W        W45350   5.384  14.690   4.918 -0.0893  0.1021 -0.0653
29277W        W45351  10.599  12.588  11.755  0.0120 -0.0858  0.1062
29278W        W45352   2.270   4.617   0.860 -0.1878  0.3859 -0.2306
29279W        W45353   5.691   1.345   3.808  0.1705  0.2826 -0.0642
29280W        W45354  14.681   0.079   2.770 -0.0873 -0.0923  0.0829
29281W        W45355   9.931   5.602   2.013 -0.0121  0.3701  0.2435
29282W        W45356   6.083  13.137  14.130  0.1149  0.1854  0.0972
29283W        W45357  12.093   5.709   4.575 -0.0431  0.3183  0.2803
29284W        W45358   8.592   6.475   2.581  0.1834 -0.3742 -0.2464
29285W        W45359  18.090  10.230  12.838 -0.1977  0.0080  0.3239
29286W        W45360   3.036  14.319  15.666 -0.0242 -0.1434 -0.1038
29287W        W45361  14.132   7.272   0.537  0.0952 -0.1589  0.3279
29288W        W45362  16.332   1.980   4.206 -0.3238  0.0766  0.0270
29289W        W45363   8.940   3.177   4.705 -0.3366  0.2308  0.4273
29290W        W45364   3.618   1.219  12.025 -0.0910  0.0188  0.2662
29291W        W45365   4.042  13.272   3.234 -0.1823  0.1019 -0.0418
29292W        W45366   5.466  18.083   4.647  0.0545  0.2432 -0.1231
29293W        W45367   9.728   3.519  16.195  0.1369 -0.1215 -0.4143
29294W        W45368  11.881  15.875  15.431  0.3146 -0.1981 -0.4101
29295W        W45369  15.132  16.135   3.219 -0.3634 -0.4740  0.1530
29296W        W45370   1.641  11.624   1.475  0.1919  0.1216  0.1448
29297W        W45371   3.790  15.648  15.650  0.1143 -0.1207 -0.1227
29298W        W45372  10.987   9.237  15.846  0.1089  0.0381 -0.1810
29299W        W45373   8.421   8.397   3.833 -0.0485  0.1734 -0.1037
29300W        W45374   3.769   1.782  16.035 -0.0574  0.0642 -0.2072
29301W        W45375  10.403  15.291   5.075  0.2513  0.0377  0.1008
29302W        W45376   4.487   0.017  11.708  0.0414  0.0360  0.5725
29303W        W45377   1.186  17.575  16.135  0.0756  0.1887  0.1375
29304W        W45378   3.535   8.186  15.833 -0.3513 -0.2034  0.1143
29305W        W45379   2.704   8.712   0.022 -0.0620 -0.1062 -0.1081
29306W        W45380   3.134   6.936  15.113  0.1481  0.5289  0.0886
29307W        W45381   5.569  14.540  14.656 -0.2438 -0.0360 -0.0921
29308W        W45382   4.647  15.566   4.696 -0.0242  0.4811  0.1350
29309W        W45383  16.795   0.901   5.536  0.1170  0.2864 -0.0123
29310W        W45384   3.860  11.038   1.092  0.0499  0.2720  0.1734
29311W        W45385  15.900   2.808  13.337  0.1687  0.0156  0.0464
29312W        W45386   7.990   4.861   4.113  0.1065 -0.0708 -0.0436
29313W        W45387   2.189   4.909   5.269 -0.1196 -0.1505 -0.0114
29314W        W45388  11.364   3.247   2.746  0.1572 -0.2729 -0.1421
29315W        W45389  16.723  13.177   0.820  0.1459 -0.0887 -0.0537
29316W        W45390   5.615  14.038   2.859 -0.1274 -0.2226 -0.1780
29317W        W45391   5.566   5.619  12.682  0.0070  0.0578 -0.0716
29318W        W45392   0.217   5.455  14.593  0.3068 -0.0991  0.3219
29319W        W45393  11.608   8.763   0.179  0.0528 -0.1938  0.0642
29320W        W45394  13.177   3.173  14.306  0.0158 -0.3610 -0.0603
29321W        W45395   1.813   9.130   5.930 -0.1769  0.2518  0.0961
29322W        W45396   4.864  13.125   2.423  0.0899 -0.2392  0.1709
29323W        W45397  11.565  16.954  13.384 -0.1182 -0.2954 -0.0286
29324W        W45398   5.721   3.686  14.769 -0.1731 -0.1177  0.4147
29325W        W45399  18.175  11.247  12.686  0.0359  0.0829  0.0717
29326W        W45400   2.235  17.133  11.937 -0.0344 -0.1680  0.0191
29327W        W45401   0.585  10.200  13.075 -0.1357 -0.0669 -0.1800
29328W        W45402  14.813  14.731  14.540  0.2571  0.0421 -0.0579
29329W        W45403  17.219  11.330  15.726 -0.0991  0.2639  0.1397
29330W        W45404   6.618  11.360   1.445  0.2456 -0.0962 -0.0180
29331W        W45405   8.551   0.722  14.507  0.2718 -0.2259  0.0262
29332W        W45406   0.729  14.705   2.906 -0.1156  0.1239  0.0923
29333W        W45407   5.354  12.798   2.184  0.1483  0.5770  0.1654
29334W        W45408   0.034  18.325   2.188  0.1173 -0.0296  0.4739
29335W        W45409  12.348  13.523   6.441 -0.1316 -0.0130  0.0814
29336W        W45410  13.609   2.149   1.232  0.0807  0.0774  0.0188
29337W        W45411   9.378  12.012  12.278  0.0024  0.1209  0.0762
29338W        W45412   9.266  11.294  11.668 -0.1183 -0.2987 -0.0525
29339W        W45413   6.191  15.688  11.939  0.1450  0.0273  0.1227
29340W        W45414   3.030   4.777   3.558 -0.4111  0.1127 -0.1911
29341W        W45415   8.992   2.972   0.278 -0.2271  0.2108 -0.2478
29342W        W45416   9.938  10.741   0.612  0.1676  0.0503 -0.0592
29343W        W45417   7.692  16.661  15.512  0.3272  0.0843  0.0114
29344W        W45418   4.632   1.957   4.097  0.1358 -0.0955 -0.3104
29345W        W45419   7.177   7.212   1.816 -0.0405  0.0586 -0.1646
29346W        W45420  11.321  17.944   3.543 -0.3268  0.1330  0.2311
29347W        W45421  14.208  10.199   3.587 -0.0715 -0.4363 -0.0694
29348W        W45422  14.668  17.598   2.756  0.0634  0.0246  0.0795
29349W        W45423   0.466  13.612  11.894 -0.0882  0.0511 -0.1571
29350W        W45424   1.770   6.715  14.837  0.3269  0.0110  0.1640
29351W        W45425   0.122  10.649   1.451 -0.1527 -0.2236 -0.2540
29352W        W45426   9.550   5.509  12.353  0.2819 -0.0253  0.1498
29353W        W45427   8.108  10.556  14.946 -0.4738  0.0646 -0.2395
29354W        W45428  18.041   7.437  13.813  0.0608  0.0550  0.2062
29355W        W45429   8.638   1.980  11.210 -0.1177  0.0470  0.0895
29356W        W45430  16.568   5.880   0.778  0.1827 -0.0156 -0.2643
29357W        W45431   6.896  17.611   1.688  0.3131  0.0792  0.1719
29358W        W45432   2.933   9.350  12.551  0.4002  0.0844 -0.1201
29359W        W45433   4.693  16.356   1.924  0.0520  0.1556  0.0838
29360W        W45434   2.429  11.807   4.941 -0.2871 -0.1777 -0.2144
29361W        W45435  13.711   2.865   2.608 -0.0397 -0.0336  0.1764
29362W        W45436   2.439  10.753  14.749  0.0274  0.3800  0.1132
29363W        W45437  15.494   8.003   2.736 -0.2018 -0.2810 -0.0302
29364W        W45438  12.587   1.032   1.110 -0.0146  0.2024 -0.3214
29365W        W45439   4.044  15.312  14.299 -0.0475 -0.1645 -0.1223
29366W        W45440   4.550  13.972  14.015  0.5525 -0.2478  0.1046
29367W        W45441  16.154   8.013   4.926  0.0422 -0.1651 -0.1927
29368W        W45442  16.023   0.327   1.039 -0.1842 -0.2014  0.0951
29369W        W45443   6.998   7.285   1.372 -0.1542  0.2634 -0.0189
29370W        W45444  15.134   5.754   2.567  0.1594  0.0201  0.0867
29371W        W45445   5.395   2.814   5.033 -0.0202  0.2158 -0.0601
29372W        W45446   3.549  16.447   3.366  0.0739 -0.1967  0.0883
29373W        W45447  10.685  10.807  12.591 -0.2306  0.1364 -0.0173
29374W        W45448   1.600  11.221  13.769 -0.4416 -0.1232  0.2566
29375W        W45449   9.218   4.382  13.068  0.0350  0.0847 -0.0814
29376W        W45450  16.758   9.620  11.609  0.0559 -0.2443 -0.0871
29377W        W45451  13.295   6.045  11.854  0.2288  0.0544 -0.1007
29378W        W45452  17.699   2.538  12.511  0.0787 -0.0989 -0.4890
29379W        W45453   4.022  17.513  16.354  0.1723 -0.1755 -0.0334
29380W        W45454   9.430  15.212  16.319  0.0326 -0.1039 -0.1858
29381W        W45455  18.246   9.762  15.916  0.1183 -0.0837  0.2764
29382W        W45456   9.335   6.967   3.671  0.0720  0.3355 -0.1196
29383W        W45457  12.997   6.540   2.825 -0.0523 -0.2792 -0.0065
29384W        W45458   7.111  14.835  11.718 -0.0295 -0.1556 -0.0398
29385W        W45459  16.642  13.757   4.825  0.2954 -0.2942 -0.0818
29386W        W45460   1.372  15.259   6.040  0.2294 -0.2466 -0.0150
29387W        W45461   4.984   1.274   2.757  0.0115  0.1049  0.0174
29388W        W45462  11.168   6.756  13.072  0.3269  0.0075  0.2585
29389W        W45463   8.644  11.612  14.866  0.1134  0.1686 -0.0957
29390W        W45464   8.440   3.085   3.975 -0.2863 -0.1190  0.0262
29391W        W45465   5.517  13.762   2.181 -0.0611 -0.2925 -0.2264
29392W        W45466   8.010   2.711   2.388 -0.0609  0.0110  0.2060
29393W        W45467  14.591  18.041  12.257  0.3389  0.1616 -0.0383
29394W        W45468  11.652   7.036  13.445  0.4114 -0.0644  0.5109
29395W        W45469   6.504   3.994   2.304  0.0358  0.3234 -0.1302
29396W        W45470  13.819   2.238  15.910 -0.1296 -0.2488  0.2627
29397W        W45471   1.174   8.621   4.473  0.3031 -0.2446 -0.2493
29398W        W45472   4.460  16.091   3.658  0.2910  0.1546 -0.3248
29399W        W45473   8.670   0.965  13.221 -0.0877 -0.1105 -0.0217
29400W        W45474   5.899   7.387  10.360 -0.2646  0.3425  0.2503
29401W        W45475  11.856  13.393   1.198  0.0197 -0.0712 -0.3617
29402W        W45476  15.326   0.031  15.759  0.0589 -0.0007 -0.3803
29403W        W45477   8.274  10.772   5.258  0.1195 -0.2510 -0.0344
29404W        W45478  16.468   2.743   5.612  0.2821  0.4312  0.0896
29405W        W45479  10.670   2.406  15.519  0.1681 -0.0574  0.1318
29406W        W45480   2.429  13.590  11.542 -0.1363  0.2179  0.0013
29407W        W45481   2.080  15.101   5.413 -0.3095  0.0982  0.1965
29408W        W45482  16.072   7.133  14.694  0.0462  0.3288 -0.0146
29409W        W45483  10.078  15.905  16.309 -0.0114 -0.0633  0.1081
29410W        W45484   0.707   5.532  15.658  0.1637 -0.0050 -0.2727
29411W        W45485   1.416   2.771  13.208 -0.1286 -0.0366 -0.1681
29412W        W45486   5.071  16.919   4.432 -0.0101 -0.1524  0.0029
29413W        W45487  17.268   8.051  14.865  0.1975 -0.0195  0.4350
29414W        W45488   5.713   9.236   4.509  0.0072  0.0595 -0.0844
29415W        W45489   2.887  10.784  14.465  0.0828  0.2097 -0.0952
29416W        W45490   9.752   5.706  15.134 -0.0959  0.0543  0.2253
29417W        W45491   1.398   0.761   4.446 -0.2108  0.0944 -0.1047
29418W        W45492   8.134   9.970  16.174  0.1904 -0.0004  0.0552
29419W        W45493  10.953   4.013  16.168 -0.1819 -0.0276  0.1113
29420W        W45494  11.268   5.457   4.955 -0.2100  0.0257  0.0710
29421W        W45495  17.387  14.718   2.196 -0.0286  0.0775 -0.0448
29422W        W45496  18.019  16.214   3.189  0.1102 -0.1946  0.0575
29423W        W45497   7.366  16.820  14.334  0.1103 -0.0958  0.2120
29424W        W45498  11.488  16.766   2.090 -0.0442  0.0636  0.0764
29425W        W45499   7.625   2.943   0.336  0.2741 -0.3579 -0.0061
29426W        W45500   9.786  17.620   2.696 -0.1270  0.0901 -0.3343
29427W        W45501   4.897  11.919   1.515  0.2887  0.0462 -0.3212
29428W        W45502  18.311  14.724   0.390  0.0783 -0.1021 -0.0584
29429W        W45503  10.508   2.985  15.487 -0.3667  0.1515  0.0246
29430W        W45504   0.212  15.242   4.039  0.5397 -0.2063 -0.5134
29431W        W45505  17.861  14.353   1.664  0.2627 -0.3279 -0.1348
29432W        W45506  12.044  17.291  14.335 -0.1036 -0.0683 -0.0837
29433W        W45507   7.543   9.954  14.274 -0.2412 -0.1127 -0.2616
29434W        W45508  10.931   0.118  11.374  0.0034 -0.2106 -0.1209
29435W        W45509  17.788   5.887  10.733  0.1131  0.0844 -0.3152
29436W        W45510  15.410   2.733   1.298 -0.2019 -0.4321 -0.3321
29437W        W45511   3.633   0.135   5.462 -0.1530  0.1668  0.1567
29438W        W45512  12.595   1.031  14.683  0.0625 -0.4427  0.2103
29439W        W45513  16.570  10.151  15.247  0.0463  0.0755 -0.0978
29440W        W45514   9.255   8.126   3.885  0.1388  0.0746  0.1920
29441W        W45515  11.074   6.541   3.062  0.0710 -0.1128 -0.0276
29442W        W45516   0.132  10.149   4.418  0.2308  0.1168 -0.0999
29443W        W45517   1.055  16.670   6.381  0.5085 -0.3277 -0.0740
29444W        W45518  12.712  12.874   1.744  0.0555  0.1331 -0.1831
29445W        W45519   9.351   2.066  15.291  0.1315  0.0322  0.1215
29446W        W45520  17.033   7.839   4.512 -0.0075 -0.0639  0.1001
29447W        W45521   6.872  12.795  12.669  0.3541 -0.4674  0.1935
29448W        W45522  12.013   6.723   0.991 -0.3017 -0.2383  0.3966
29449W        W45523  13.327  18.147  13.039 -0.1308 -0.1619  0.0065
29450W        W45524  14.395   9.043  16.382 -0.0100 -0.0619 -0.1938
29451W        W45525   6.263  12.201  12.109  0.0831  0.3291 -0.0631
29452W        W45526  15.889   7.095  15.399  0.1386  0.0246 -0.0082
29453W        W45527   8.385   1.759  11.537 -0.1331  0.3718 -0.1402
29454W        W45528   2.622  12.609   4.590 -0.1193  0.1582  0.0802
29455W        W45529   1.403  16.148  12.294  0.2654  0.1979  0.1149
29456W        W45530   2.153   7.582   1.280 -0.1367  0.0329 -0.0504
29457W        W45531  13.996  15.744  12.616 -0.0739  0.2858  0.1367
29458W        W45532   9.750  13.793  12.267 -0.0110  0.0933  0.2221
29459W        W45533  10.394   7.469  14.684  0.0359  0.0376  0.1513
29460W        W45534   9.512   8.738  15.874  0.0358  0.1497  0.2624
29461W        W45535  14.532  16.058   3.478 -0.1196  0.0529 -0.1005
29462W        W45536  15.042  14.223  15.985 -0.1550 -0.1213  0.1074
29463W        W45537   2.785   3.419  14.664  0.2699 -0.0158 -0.2664
29464W        W45538   2.387   3.524  16.014  0.0234 -0.3200 -0.3806
29465W        W45539   7.405   4.372  11.656  0.3118 -0.0329  0.1751
29466W        W45540   1.694   3.975  15.104  0.0440  0.0481  0.2421
29467W        W45541  17.991  13.692   2.920  0.2280  0.0103 -0.1180
29468W        W45542   5.689   3.493   3.173  0.1169  0.0445 -0.3017
29469W        W45543   8.260  16.354  13.024 -0.2843  0.0834  0.1597
29470W        W45544   0.756  12.308   3.495  0.0815  0.0314  0.3600
29471W        W45545  10.667   7.497   4.810 -0.4886 -0.1815 -0.3145
29472W        W45546  15.316   2.215   1.335 -0.1220 -0.1786 -0.1249
29473W        W45547  13.997  18.059   3.452  0.2146 -0.0481  0.2366
29474W        W45548   7.908  10.584   0.282  0.0972  0.3043  0.0401
29475W        W45549   6.805  14.004  14.341  0.2296 -0.0547 -0.1887
29476W        W45550   2.670   4.866   2.325 -0.4919  0.1275  0.2109
29477W        W45551  14.880   5.570  14.956 -0.0726 -0.1880  0.3184
29478W        W45552  13.905   8.298   4.994 -0.1658 -0.0280  0.0300
29479W        W45553   0.273  17.805  13.236  0.0830 -0.1002  0.0094
29480W        W45554   3.518  14.419   3.240  0.1288  0.1251 -0.1583
29481W        W45555  12.312   3.906   3.895 -0.0966  0.1829 -0.0185
29482W        W45556   5.430  15.205   1.123 -0.1513  0.0076 -0.2991
29483W        W45557  16.490  16.621  12.952 -0.0717  0.2778  0.2741
29484W        W45558  14.397   7.453  13.920  0.0700  0.0358 -0.3340
29485W        W45559  18.185   1.575   4.000 -0.0357  0.0419  0.0921
29486W        W45560   1.492   6.282   2.400  0.1061  0.4074 -0.0832
29487W        W45561   8.680  16.130  12.832 -0.0743  0.0275  0.0851
29488W        W45562  12.654  12.439   4.018  0.3165  0.0382  0.2042
29489W        W45563  11.739  12.391   3.097  0.0851 -0.1153  0.0859
29490W        W45564   0.770   3.230  14.593 -0.3772  0.2312  0.2043
29491W        W45565   8.276   7.106   5.184  0.2944  0.2088 -0.0881
29492W        W45566   2.160   0.913   5.541  0.3427 -0.0473  0.0271
29493W        W45567  13.678  13.809   2.386  0.1773  0.4089 -0.2433
29494W        W45568  13.626  13.013  13.303  0.0778  0.0311 -0.3023
29495W        W45569   1.869   3.977   1.047  0.0896  0.0237  0.0772
29496W        W45570   1.588   2.697   4.411  0.2007  0.0055  0.0106
29497W        W45571   1.597   5.346   1.042 -0.2662  0.1502  0.1256
29498W        W45572  12.292   6.075   1.801 -0.1400  0.0749  0.0655
29499W        W45573  13.866   9.526   5.443  0.3033 -0.3724 -0.2350
29500W        W45574  18.321  12.016  14.108 -0.0814 -0.0766  0.4017
29501W        W45575   8.188   6.028   1.945  0.0223  0.1807 -0.0173
29502W        W45576  10.355   3.926  12.569 -0.0264 -0.2048  0.0801
29503W        W45577  16.837   6.583  13.394 -0.4428 -0.0825 -0.1293
29504W        W45578  16.250   8.209  13.860  0.0486  0.1535 -0.1181
29505W        W45579  16.429  17.282   4.163 -0.0918  0.1593  0.3215
29506W        W45580   5.266   3.359   1.036 -0.2352  0.1703 -0.0622
29507W        W45581  15.845  11.639   5.416 -0.1546 -0.0205 -0.0884
29508W        W45582  14.559   9.579  13.783  0.1186 -0.1261  0.1978
29509W        W45583  12.499   4.232   4.287 -0.0095 -0.0722  0.1128
29510W        W45584  15.846  14.515   0.150  0.0479  0.3033 -0.2016
29511W        W45585   5.015   7.868  11.410  0.3866  0.1348 -0.2912
29512W        W45586  14.157   8.708   3.802  0.0565 -0.0819  0.0119
29513W        W45587  16.617   7.132  14.764 -0.2020 -0.0660 -0.1130
29514W        W45588  11.515  14.979  12.336  0.2034 -0.0470 -0.1416
29515W        W45589   9.757   8.770  15.457  0.0710  0.1056 -0.1835
29516W        W45590   0.600   8.975   5.102 -0.1557  0.3361  0.1305
29517W        W45591   3.864  16.793  14.961 -0.0558 -0.1120 -0.3070
29518W        W45592  14.594   5.483  14.476  0.0366 -0.1623 -0.1205
29519W        W45593  10.188  16.929   5.275 -0.2189  0.2494 -0.0458
29520W        W45594   5.303  15.143  13.271  0.3416  0.2927 -0.0489
29521W        W45595  16.420   7.582   4.470  0.3106  0.0377 -0.0460
29522W        W45596   6.712   9.076  15.541  0.0687  0.0344 -0.1148
29523W        W45597   2.677  13.499  14.705 -0.1758  0.0922 -0.0129
29524W        W45598   9.558   7.864   4.210 -0.0796 -0.3641 -0.0219
29525W        W45599  17.729   6.904  15.087 -0.0427 -0.1432  0.1395
29526W        W45600   8.984   4.548  13.585  0.1214 -0.1577 -0.2355
29527W        W45601  17.403   8.155  10.987  0.0370 -0.1410 -0.1385
29528W        W45602   7.449   4.584   1.585 -0.1785  0.2486  0.5431
29529W        W45603  16.877  17.115   5.334 -0.0315 -0.1248  0.2045
29530W        W45604  15.261   5.443  15.804 -0.1452 -0.2319  0.1385
29531W        W45605  12.075   4.880   4.858  0.3467 -0.0102 -0.1147
29532W        W45606  17.815   2.266   1.460  0.0774 -0.0717 -0.2189
29533W        W45607   4.868  12.649  11.788  0.0372  0.0672 -0.2021
29534W        W45608   0.223   0.802   3.845  0.0711  0.2084 -0.1434
29535W        W45609  15.969   1.291  13.107  0.0859  0.2124  0.0058
29536W        W45610   1.373   7.763   0.157 -0.0046 -0.2976  0.0913
29537W        W45611   5.759  12.699   2.527  0.1020 -0.0499  0.0464
29538W        W45612   2.809   4.828  15.709  0.1714 -0.1726  0.1833
29539W        W45613   0.083   3.062  13.610 -0.0804  0.0603  0.2142
29540W        W45614   7.655  14.262  15.142 -0.1835 -0.2429 -0.1443
29541W        W45615   2.514  13.688  16.118  0.4183 -0.0228 -0.0289
29542W        W45616  15.893   8.301   2.082  0.0019  0.1590 -0.1620
29543W        W45617   8.371  16.925   1.303 -0.0773 -0.1424 -0.0599
29544W        W45618  17.787  10.965   3.603 -0.0883  0.2458 -0.2137
29545W        W45619  13.517  11.753  11.887 -0.2693  0.1923  0.0332
29546W        W45620  13.543  12.706   2.025  0.0878 -0.2488 -0.0696
29547W        W45621  18.317  14.473  12.058  0.0680  0.2800 -0.1698
29548W        W45622   6.411  11.884  12.454 -0.0916  0.1214 -0.0300
29549W        W45623  17.794   5.960  11.664  0.1275  0.1996 -0.1153
29550W        W45624  16.937   7.501  16.018 -0.1145 -0.3065 -0.1569
29551W        W45625  10.779  10.425  11.616 -0.2671 -0.0222 -0.2264
29552W        W45626   3.360   4.769   3.945  0.0374  0.1121 -0.0811
29553W        W45627   6.783   7.348  13.110  0.1138 -0.0392  0.1886
29554W        W45628  14.652  14.949   5.085  0.1445 -0.0116  0.2432
29555W        W45629   7.353  13.877   1.587 -0.0381  0.3724 -0.0580
29556W        W45630  12.969   6.292  15.647 -0.2461 -0.3825 -0.0089
29557W        W45631  13.249  10.211   5.228 -0.3145  0.2718  0.3918
29558W        W45632   4.650  10.792   1.632  0.0380  0.1180 -0.0478
29559W        W45633  12.429  11.390  11.150  0.0356  0.0172 -0.2595
29560W        W45634   1.565  13.769  13.597  0.1693 -0.0294  0.1395
29561W        W45635  14.071   9.613  15.436 -0.1012 -0.1292 -0.2026
29562W        W45636   9.956  11.350  12.625  0.1256  0.0222  0.1384
29563W        W45637  11.561   6.786   1.898  0.2093 -0.1595 -0.0470
29564W        W45638  15.367  11.312   5.638 -0.2739  0.0827  0.0924
29565W        W45639   3.125   4.566   4.324  0.2544 -0.2879 -0.1354
29566W        W45640   6.758   4.143   3.910 -0.2553 -0.0510 -0.0771
29567W        W45641   4.461  17.887   2.770  0.1748  0.2508 -0.2544
29568W        W45642   0.717   6.709  12.289  0.1851  0.0003  0.0283
29569W        W45643   6.949  10.250  13.034  0.0651  0.3017  0.0390
29570W        W45644  10.517   5.849  11.451  0.0310 -0.3155  0.5119
29571W        W45645   3.042   4.310   3.536  0.2759 -0.2512  0.0698
29572W        W45646  13.920   9.840   4.046  0.2888 -0.1200  0.2204
29573W        W45647  11.359  11.646   4.894  0.1000 -0.0111 -0.1511
29574W        W45648  12.324  16.863  13.629 -0.1902 -0.0261 -0.1101
29575W        W45649   6.551   3.671   5.341 -0.1998  0.2532 -0.2159
29576W        W45650  14.130  12.120  13.659  0.2066 -0.1324 -0.1106
29577W        W45651  10.644  18.030  11.300  0.1176  0.0310 -0.0242
29578W        W45652  17.182   0.309  12.366 -0.0563 -0.0807  0.0255
29579W        W45653   1.026   6.217  15.560 -0.1591 -0.2951 -0.2309
29580W        W45654  16.118   9.905  12.252  0.5659 -0.0535 -0.2604
29581W        W45655  15.186   2.188  14.341  0.0990 -0.0086 -0.1603
29582W        W45656   7.950  16.214   1.083  0.0518  0.0592 -0.2350
29583W        W45657   4.485   9.098   6.067 -0.1680  0.2186 -0.0743
29584W        W45658   6.490  12.342  15.197 -0.1549 -0.0502 -0.5620
29585W        W45659   1.909   0.337   0.686  0.0482 -0.0761 -0.1167
29586W        W45660   5.462  15.261  15.435  0.0772  0.0103  0.3334
29587W        W45661  11.438   0.762   0.471  0.0772  0.3332  0.1418
29588W        W45662  16.492  17.096   1.645  0.2698 -0.3260  0.0800
29589W        W45663   6.817   5.113   5.220  0.2116 -0.0397 -0.1702
29590W        W45664   4.558  12.022  14.026 -0.1279 -0.2902  0.3844
29591W        W45665  17.872   1.920   6.308 -0.1351 -0.0123 -0.1605
29592W        W45666   4.213  11.851   0.464 -0.1538 -0.5357 -0.0339
29593W        W45667  14.208   4.592   3.934  0.0434 -0.0107 -0.1568
29594W        W45668   4.731  14.317   2.582  0.1228  0.4274  0.3856
29595W        W45669   3.508  15.215  13.705 -0.0318  0.3157 -0.0220
29596W        W45670  14.491   0.720  12.741  0.0462  0.1504  0.0234
29597W        W45671  15.598  10.777   1.990 -0.0508  0.1008  0.1730
29598W        W45672  12.306  16.728   1.624 -0.0895 -0.1268 -0.0985
29599W        W45673   7.397  10.830  15.153  0.1191 -0.0365 -0.0629
29600W        W45674  13.899  13.365  13.550  0.0114 -0.0926  0.2130
29601W        W45675  17.917  17.826   5.010 -0.0143  0.2456 -0.0722
29602W        W45676  10.629  15.984   3.787  0.1310  0.1545  0.0601
29603W        W45677  18.294   1.734  14.953 -0.2968 -0.2709 -0.2526
29604W        W45678   5.607   8.544   2.694 -0.1185 -0.1090  0.0999
29605W        W45679  14.544  15.113   3.250 -0.1008  0.0379  0.1301
29606W        W45680   7.374   4.829   0.478  0.1340 -0.0137 -0.0643
29607W        W45681   8.767   8.348   4.882  0.1628  0.1697 -0.2892
29608W        W45682   8.425   9.117   2.812 -0.1701 -0.3224  0.0706
29609W        W45683   7.340   6.793   4.872  0.3377  0.0678  0.0000
29610W        W45684   0.034   8.297  15.292  0.4372 -0.0984  0.1369
29611W        W45685   9.978  16.434   4.128 -0.2748  0.2052  0.0702
29612W        W45686  18.225   4.280   2.797 -0.0197  0.1106 -0.2301
29613W        W45687  12.827   0.941  12.231  0.1971  0.3169 -0.3056
29614W        W45688   5.056  13.813  13.131  0.3874  0.0291  0.0169
29615W        W45689   7.141   4.221   5.107  0.1947  0.1188 -0.1754
29616W        W45690   8.964  12.422   2.804 -0.1725 -0.1586  0.1568
29617W        W45691  11.089  17.615   1.189 -0.3402  0.2447  0.0317
29618W        W45692   1.374   7.810  11.317 -0.4061 -0.3513 -0.2659
29619W        W45693  15.301   9.012   2.686  0.1029 -0.1643  0.2135
29620W        W45694  13.561   3.767   5.936  0.0647 -0.0987 -0.1143
29621W        W45695  10.948  15.830   2.404 -0.2700 -0.2999 -0.0074
29622W        W45696  11.977   3.124  11.940 -0.2850  0.0477 -0.1085
29623W        W45697  15.227  15.721   5.209 -0.1619 -0.0358 -0.2846
29624W        W45698   2.072  14.567   5.373 -0.1814  0.3208  0.0821
29625W        W45699  14.972   4.107  12.387  0.0500 -0.1640  0.1659
29626W        W45700   8.748  16.870   4.358 -0.0397  0.1070 -0.3193
29627W        W45701   9.100   9.023   3.764  0.1259 -0.0157 -0.0209
29628W        W45702   6.365   8.917   2.583 -0.1685 -0.1882  0.4222
29629W        W45703   3.562   6.310  16.275 -0.0610  0.3779  0.3654
29630W        W45704   4.959   5.173   1.862 -0.2799  0.0894  0.1311
29631W        W45705  15.313  15.560   3.599 -0.2637  0.0298 -0.0696
29632W        W45706  17.191  13.389   3.475 -0.0725 -0.1851 -0.0950
29633W        W45707  10.332  18.098  13.478  0.3394 -0.3561  0.0055
29634W        W45708  18.137  14.201   5.065  0.1892  0.1291  0.1154
29635W        W45709  13.045   6.413   4.750 -0.0077 -0.1462  0.1416
29636W        W45710   7.209  17.397   2.561 -0.4003 -0.0043  0.1085
29637W        W45711  16.121  13.785  11.477  0.0943 -0.0064  0.0162
29638W        W45712  16.308  13.750  14.770 -0.0456  0.2243  0.3630
29639W        W45713  14.212   0.628  12.250  0.0930  0.2131  0.2297
29640W        W45714  15.767   0.716  12.031 -0.0730 -0.0962  0.0187
29641W        W45715  17.265  17.308  12.588 -0.2809  0.1348 -0.1115
29642W        W45716  14.824   4.642   5.228  0.0378  0.0514  0.0988
29643W        W45717  16.113   5.440   4.158  0.1397 -0.0789  0.1020
29644W        W45718  15.979  12.404  12.623 -0.4447 -0.1802 -0.1559
29645W        W45719   1.789   8.504   0.973  0.0518  0.2527 -0.3216
29646W        W45720   0.709   7.238  13.604 -0.2266  0.1360 -0.0516
29647W        W45721   5.492  16.326  14.128  0.0285 -0.1870 -0.0566
29648W        W45722  14.814   8.588   1.685 -0.4396 -0.1451 -0.3136
29649W        W45723   3.006   6.220  14.595  0.0380 -0.0637  0.3441
29650W        W45724   7.026  16.003  15.133 -0.0041 -0.3971  0.0393
29651W        W45725  14.531  17.425  13.237 -0.2407  0.2039 -0.0528
29652W        W45726   9.714   2.583  15.952  0.1032  0.1083 -0.0603
29653W        W45727   5.461  14.465   3.866 -0.1471  0.1284 -0.2137
29654W        W45728  16.902   4.111  15.016  0.2310 -0.1376 -0.2502
29655W        W45729  13.549  15.771  14.921 -0.0439  0.2880 -0.5026
29656W        W45730   8.911   1.474   0.136  0.0036 -0.0049 -0.0774
29657W        W45731   9.646   2.130   2.224 -0.0741 -0.2053  0.0565
29658W        W45732  11.557  12.031  13.644 -0.0761  0.0471 -0.0990
29659W        W45733  18.292   5.054   4.885 -0.3107  0.1468  0.0023
29660W        W45734   7.854  10.622  15.744  0.5453  0.3731 -0.2392
29661W        W45735   5.390   5.687  10.520 -0.2568 -0.0790  0.0739
29662W        W45736   5.580   2.991  10.235  0.1795 -0.0890  0.0433
29663W        W45737  11.905  17.447   0.546 -0.1338 -0.2681  0.0519
29664W        W45738   6.302  14.912   3.364  0.1076 -0.0520  0.1400
29665W        W45739  12.799   8.240  10.867  0.0335 -0.0800 -0.0828
29666W        W45740   1.025   1.946  12.250 -0.1380  0.2916 -0.2626
29667W        W45741  11.963   7.375   2.435  0.1071  0.0868  0.2875
29668W        W45742  13.693  16.394  13.750  0.0978  0.0343 -0.0372
29669W        W45743  12.205  14.460  14.942  0.0546 -0.0124 -0.1411
29670W        W45744   6.382  11.391  12.205  0.1339 -0.2457 -0.0849
29671W        W45745  13.726   6.099  14.111  0.0888 -0.4877  0.2006
29672W        W45746  16.071  10.900   5.856 -0.0569 -0.4746 -0.0147
29673W        W45747  10.976  10.543   2.673 -0.2595 -0.0507  0.4332
29674W        W45748   8.776  14.535   4.501 -0.3886  0.0866 -0.1161
29675W        W45749  15.683  16.214  14.286 -0.0455 -0.2253 -0.1329
29676W        W45750  15.566  12.600   1.615  0.0540  0.0537  0.0690
29677W        W45751   6.181  13.193   5.699 -0.2335  0.0362  0.3761
29678W        W45752   3.767   5.602  16.056  0.1759 -0.1337 -0.1337
29679W        W45753  17.713   7.904  10.647 -0.0542  0.5558  0.2785
29680W        W45754   5.221  13.451   5.405 -0.1407  0.0862  0.0092
29681W        W45755   6.008   5.025  15.984 -0.1855  0.3276 -0.0572
29682W        W45756   5.355   0.802   3.080 -0.1081 -0.0960 -0.0191
29683W        W45757   3.518   2.504   0.375  0.2490  0.2094  0.1736
29684W        W45758  16.279   4.900   0.742  0.0583  0.0078  0.0491
29685W        W45759   3.235  15.090   4.581 -0.0100  0.0657 -0.1535
29686W        W45760   7.344  15.201   4.884  0.1470  0.1970 -0.1682
29687W        W45761  10.310  12.459   0.573 -0.1003  0.2857 -0.1250
29688W        W45762  14.996   6.372  12.902  0.1485  0.3183 -0.0443
29689W        W45763   0.357  12.332  11.860  0.1537 -0.1853  0.1242
29690W        W45764   9.272   9.739   2.464  0.0645 -0.3257  0.0365
29691W        W45765  14.726   4.691   1.570 -0.2182 -0.0030  0.0885
29692W        W45766   1.839   7.693   4.391  0.1337  0.1249  0.1784
29693W        W45767  12.082  14.310  12.543  0.4782  0.0536 -0.2219
29694W        W45768   4.889  16.205   1.420  0.2770 -0.0284  0.0007
29695W        W45769   7.628   6.639   0.386  0.0076 -0.1237 -0.6973
29696W        W45770   6.894  15.014   4.502 -0.1621 -0.2779 -0.0823
29697W        W45771   2.441   3.323   0.438  0.0164 -0.2824 -0.1391
29698W        W45772  16.259  18.279  16.171 -0.1756  0.0094  0.0539
29699W        W45773  10.268  17.088  13.971 -0.0096  0.3093 -0.2396
29700W        W45774   1.138   7.328   0.060  0.1182 -0.0866  0.0707
29701W        W45775   3.252   0.005  13.086 -0.3872 -0.1280 -0.0528
29702W        W45776   7.962  14.004   2.968  0.0962 -0.1248  0.0852
29703W        W45777   1.025   8.425  13.550 -0.1082 -0.1300 -0.0992
29704W        W45778   4.972   7.559  13.396 -0.1020  0.1780  0.0809
29705W        W45779  12.513  13.374   4.937 -0.0758  0.1464  0.0344
29706W        W45780   8.193  15.744  14.647  0.1428  0.1781  0.2382
29707W        W45781  17.467   7.636   2.398  0.0175  0.1560 -0.1835
29708W        W45782  13.809   9.649  14.228 -0.2019 -0.1104  0.0271
29709W        W45783   7.779   3.574  10.954  0.0101 -0.1005 -0.3409
29710W        W45784   0.620   1.877  11.331  0.0056 -0.0352  0.0574
29711W        W45785   3.612  12.582  15.106 -0.1726  0.2410  0.0782
29712W        W45786   6.296   6.463   2.072  0.0277 -0.2047  0.1265
29713W        W45787   6.681  17.061   0.562 -0.0947 -0.1296 -0.5292
29714W        W45788   2.480  16.543   1.159  0.0698 -0.1277 -0.0521
29715W        W45789   2.253   0.608   3.948 -0.0216 -0.2969  0.2837
29716W        W45790   9.287   5.871  11.436 -0.4635  0.0514  0.2439
29717W        W45791  12.656  13.625   1.483 -0.1166 -0.2338  0.2600
29718W        W45792   5.360   9.159   2.165 -0.4342  0.1961 -0.1188
29719W        W45793   3.778  18.215   4.597  0.2448  0.4517 -0.0144
29720W        W45794   9.268  16.744  12.369 -0.0324  0.1940  0.0489
29721W        W45795   5.549  18.310  13.629  0.0249  0.0371  0.0051
29722W        W45796   2.454   5.094  16.385 -0.1350 -0.1995 -0.2512
29723W        W45797  13.356   9.869  14.200  0.0462  0.3896 -0.0298
29724W        W45798  17.756  14.422   1.171 -0.3040 -0.0396 -0.0335
29725W        W45799  13.626   2.914   4.144  0.0004 -0.0211  0.0565
29726W        W45800  11.795   0.574  11.115  0.4361 -0.1342  0.0897
29727W        W45801   1.948  16.654   2.896 -0.0303 -0.1458  0.1014
29728W        W45802  16.284  16.755   2.319 -0.2178 -0.0156 -0.0617
29729W        W45803  18.077   9.660  12.041 -0.0087  0.0697 -0.0112
29730W        W45804   8.165  15.473   1.391 -0.1458  0.0551 -0.0374
29731W        W45805   6.496   5.432   0.728  0.3142 -0.2121  0.1666
29732W        W45806   1.869   0.540   2.552 -0.1738  0.1317  0.0426
29733W        W45807   5.391   9.382  15.183  0.3033  0.3305  0.2188
29734W        W45808   9.594   1.091  11.203 -0.0133 -0.0494  0.0793
29735W        W45809  11.202  17.351  15.890 -0.1845  0.0811 -0.2098
29736W        W45810   6.851  14.426   2.926  0.1570 -0.0415  0.2943
29737W        W45811  14.925   6.839   4.455  0.1828  0.4344 -0.1176
29738W        W45812   3.183   1.770   4.532 -0.0981  0.3560  0.3308
29739W        W45813   8.893   4.851   3.900  0.1897  0.0660  0.2198
29740W        W45814  13.577   8.609  16.340  0.1232  0.1426  0.0778
29741W        W45815  15.683   6.291   4.140 -0.1708  0.1073  0.0886
29742W        W45816  10.553  10.326   3.014  0.5367 -0.1077 -0.0247
29743W        W45817   8.863   0.090   4.036 -0.1140 -0.0041  0.3828
29744W        W45818  13.654  15.852   3.317 -0.0155 -0.0708  0.2346
29745W        W45819  13.397   6.614  11.828  0.2848  0.1432 -0.2008
29746W        W45820  16.825  16.700  12.074  0.1978 -0.2405  0.1783
29747W        W45821  14.210  10.928  11.610  0.1900  0.0099 -0.4547
29748W        W45822  17.420   3.073   4.420  0.1872 -0.1922 -0.2976
29749W        W45823  13.317   3.154  11.534  0.0757  0.1974 -0.0636
29750W        W45824  10.333   2.910   3.034 -0.3120 -0.5504  0.0985
29751W        W45825  11.144  12.707  14.978 -0.0315 -0.1114  0.1507
29752W        W45826  16.748   5.466  15.246 -0.1270  0.1251 -0.0904
29753W        W45827  10.287  18.017   4.412  0.2538  0.0024  0.3444
29754W        W45828   0.102  13.768  14.760 -0.2260  0.0991 -0.3406
29755W        W45829   7.116   5.024   0.857  0.3911 -0.1869  0.0924
29756W        W45830  15.574   3.670   1.818 -0.1660  0.3831  0.0291
29757W        W45831  10.069   5.067  11.618  0.1587  0.1944  0.0853
29758W        W45832   5.619   2.924   3.851  0.0702  0.0484  0.0118
29759W        W45833  16.478   8.704  13.836 -0.2428  0.1182 -0.0216
29760W        W45834  18.094   8.664   4.203 -0.3818  0.0210 -0.1342
29761W        W45835   6.337   6.314  14.565 -0.0566 -0.0792  0.0878
29762W        W45836   6.744   5.970   5.372 -0.1189  0.1988  0.0476
29763W        W45837  12.740   4.111   3.697  0.0116 -0.4519 -0.0924
29764W        W45838   4.098   9.283  11.299 -0.0081 -0.0094 -0.1286
29765W        W45839   5.457   2.132   2.780  0.0980 -0.2252 -0.1192
29766W        W45840   9.797   1.911  11.239 -0.4542  0.1793  0.3617
29767W        W45841   5.576  11.009  11.386  0.0752  0.1921  0.1253
29768W        W45842   5.340   9.479   3.679 -0.2850 -0.3547  0.1512
29769W        W45843  11.539  10.277   3.038 -0.2858 -0.0714 -0.0559
29770W        W45844  18.199  16.936   1.998 -0.1233 -0.0747  0.3175
29771W        W45845   8.902   4.582  14.140 -0.2654  0.1797 -0.1519
29772W        W45846   5.911  15.406   5.389  0.0929  0.1068 -0.1778
29773W        W45847  17.497   4.147   2.421 -0.2942 -0.0184 -0.2973
29774W        W45848  11.224   2.387   2.423  0.2180  0.2389  0.3474
29775W        W45849  18.252  12.765   0.020 -0.4294 -0.0349  0.0523
29776W        W45850   4.774  10.970  13.145  0.0112 -0.2299 -0.0006
29777W        W45851  11.919   2.279  10.592 -0.3146 -0.0653 -0.2197
29778W        W45852   6.585   9.317  13.105 -0.1657  0.0678  0.0037
29779W        W45853   1.451  17.543  15.050  0.1346  0.0863 -0.1763
29780W        W45854  17.357  15.868  12.690 -0.1743 -0.0931  0.4617
29781W        W45855  10.844  15.155   6.005 -0.1841  0.0999  0.1191
29782W        W45856  15.224  17.752  16.290 -0.0261  0.1585  0.1180
29783W        W45857   0.962   6.263   2.633  0.2701  0.2171 -0.1599
29784W        W45858  11.688   7.779   2.162  0.3555  0.1691 -0.1131
29785W        W45859   2.826  16.230   2.971 -0.2188  0.1722  0.1629
29786W        W45860  14.497  11.784   2.245 -0.0444  0.1410 -0.0968
29787W        W45861  17.592  14.792  14.370  0.2049 -0.1187  0.1355
29788W        W45862   8.025  10.017   3.319 -0.1027 -0.2721 -0.1724
29789W        W45863   4.282   1.955  13.274  0.2210  0.0862  0.0605
29790W        W45864  16.152   5.056  12.560 -0.1264 -0.2346 -0.1542
29791W        W45865   3.195   2.767   2.610 -0.3029  0.1324 -0.1407
29792W        W45866   0.755  16.469  16.117  0.2027  0.1102  0.1919
29793W        W45867   1.277   9.784   4.966 -0.1544 -0.3765  0.2019
29794W        W45868   4.442  18.188   0.535  0.2818 -0.2415 -0.0467
29795W        W45869   3.206   1.833  14.405 -0.1778 -0.1159  0.1555
29796W        W45870   6.067   8.642  13.673  0.1885 -0.0441 -0.2728
29797W        W45871  16.920  17.646  10.762 -0.5395 -0.1283 -0.0699
29798W        W45872   5.441  17.147   2.942  0.3289  0.0468  0.0825
29799W        W45873  16.750   3.728   4.377  0.0539  0.0444  0.0416
29800W        W45874  16.372   4.513   3.829  0.1734  0.2071 -0.1141
29801W        W45875  17.152   7.885  13.930  0.1376 -0.0871 -0.2265
29802W        W45876  13.375   8.985   0.775  0.0090 -0.2672  0.0561
29803W        W45877  13.254  12.616  13.484 -0.1262 -0.1020  0.0612
29804W        W45878  13.345   2.618  12.706  0.0039  0.1395 -0.3694
29805W        W45879  15.537   4.985  13.127  0.0240  0.1768  0.1734
29806W        W45880   4.050   4.776  15.105  0.3649 -0.0485 -0.0452
29807W        W45881   0.081  12.131   5.395  0.2728 -0.0889  0.1221
29808W        W45882   3.548  11.423   1.789  0.1190  0.0442 -0.4044
29809W        W45883   8.392   9.139   2.069 -0.0627  0.2020  0.2371
29810W        W45884   3.471   4.580  14.851  0.1478 -0.0260 -0.1007
29811W        W45885  15.680   1.573   2.044  0.1955  0.1567 -0.0559
29812W        W45886  15.629  11.223  14.510  0.0265 -0.1028  0.0837
29813W        W45887   9.540  10.450   0.600 -0.3607  0.0588  0.0021
29814W        W45888  15.474  18.189  16.257 -0.0909 -0.1002 -0.1746
29815W        W45889   0.081   0.712  14.175 -0.0197  0.3361 -0.1858
29816W        W45890   6.759  10.502   0.247  0.1544 -0.0607  0.1994
29817W        W45891  13.944   3.405  14.327 -0.0167 -0.1653  0.0032
29818W        W45892   2.781  13.059  14.059  0.0549  0.0300  0.4562
29819W        W45893  13.784  10.275   0.281  0.2833 -0.0666 -0.0100
29820W        W45894  17.008   2.741  12.640 -0.1186 -0.3544 -0.0265
29821W        W45895   6.428   8.370  11.432 -0.0595  0.1833 -0.3294
29822W        W45896   6.538   5.719  14.104  0.0718 -0.0152  0.1690
29823W        W45897   6.597   3.976  10.651  0.0108  0.0783 -0.0586
29824W        W45898   9.397  17.258   3.708  0.0761  0.3006  0.4671
29825W        W45899  15.473   5.131   4.607  0.1819 -0.0939 -0.1877
29826W        W45900   6.045  16.953   5.965  0.0245  0.0105  0.2305
29827W        W45901  17.806  12.152   5.014  0.1911  0.0256  0.2110
29828W        W45902  18.124  16.895  14.293 -0.0299  0.1533  0.0349
29829W        W45903   6.212   4.511   3.690  0.0983  0.0617 -0.0564
29830W        W45904   0.956   2.470   3.550  0.0909 -0.0694 -0.0612
29831W        W45905  13.883  15.093  13.666  0.2132 -0.2443 -0.2390
29832W        W45906   7.813   7.957   2.012 -0.0311  0.3557  0.0486
29833W        W45907   1.984  16.108  12.587 -0.2780 -0.1040  0.1844
29834W        W45908   1.777   4.263  16.313  0.1772 -0.0857 -0.2243
29835W        W45909   8.124   3.302  15.210  0.1217 -0.1646  0.0016
29836W        W45910   3.483  12.961   0.234 -0.3299 -0.0520  0.0323
29837W        W45911  15.464  15.759  13.753  0.0303 -0.0436 -0.0419
29838W        W45912   2.758   8.184   5.484 -0.0152 -0.1549 -0.1008
29839W        W45913  17.821  14.889   1.893  0.1272 -0.1387  0.0807
29840W        W45914  14.272  13.791   2.590  0.1833 -0.2355  0.2502
29841W        W45915  11.940   0.387   3.479 -0.0385 -0.0862 -0.0953
29842W        W45916   1.208   4.545   6.223 -0.1198 -0.1073 -0.2859
29843W        W45917  11.981   4.918   0.259  0.0249 -0.1455  0.3402
29844W        W45918   0.551   4.934   3.358  0.1389  0.4060  0.3191
29845W        W45919  16.615   5.927  15.302 -0.2100 -0.3621 -0.0784
29846W        W45920   6.450   5.812  15.834 -0.1138  0.1011  0.0230
29847W        W45921  12.222   1.161  12.729 -0.1961 -0.3478 -0.1167
29848W        W45922   1.689   5.584   2.769  0.0236 -0.2399 -0.1503
29849W        W45923   4.164  11.582  12.818  0.2126  0.2025  0.1303
29850W        W45924  13.188  14.151  15.631  0.0639 -0.2096  0.0400
29851W        W45925  17.739   6.317   0.382  0.1691  0.2249  0.0653
29852W        W45926   5.877   1.508   0.147 -0.1619  0.1156 -0.0696
29853W        W45927  13.012   0.487   0.588  0.2087 -0.0412  0.0343
29854W        W45928   5.674   3.562  12.389 -0.0648  0.2096 -0.1341
29855W        W45929   7.570   5.473   0.026  0.0622 -0.3036  0.1285
29856W        W45930   2.677   2.164  13.581 -0.0077  0.1419 -0.0479
29857W        W45931   1.767  17.956   1.107  0.0669  0.2367  0.0803
29858W        W45932   0.208   7.687   0.013  0.1478 -0.0867  0.1832
29859W        W45933  15.505  17.119   1.708 -0.2398  0.1543  0.0656
29860W        W45934   1.284  18.081   6.013  0.0971  0.1046  0.0608
29861W        W45935  14.853   1.606   0.185 -0.2396  0.2771  0.2013
29862W        W45936   9.142  11.913  11.762  0.0509 -0.0003 -0.0711
29863W        W45937   0.513   3.051  13.368  0.0757  0.0893 -0.3538
29864W        W45938  17.356   0.602   1.218 -0.0091 -0.2534 -0.1016
29865W        W45939  18.062   0.319  15.898 -0.1400 -0.0220  0.0482
29866W        W45940  10.864  16.030   3.274  0.0601  0.3822  0.0335
29867W        W45941   5.263  16.533  12.608  0.1516 -0.2266 -0.1931
29868W        W45942   8.189  10.531  16.056 -0.1807 -0.0569  0.3387
29869W        W45943   1.781  16.589  16.054  0.4321  0.0958  0.0749
29870W        W45944  14.571   6.227  13.999 -0.3732 -0.4283  0.2613
29871W        W45945   8.043   8.673   3.260  0.3741 -0.1447  0.1163
29872W        W45946  14.343  14.049   1.180 -0.3779 -0.0331 -0.1125
29873W        W45947   1.561   7.592   1.212 -0.0322 -0.2770  0.0877
29874W        W45948   9.929   3.312   1.800 -0.3892  0.1572  0.3034
29875W        W45949  10.782   5.135  13.740 -0.2548 -0.1655 -0.0749
29876W        W45950  10.307   0.871  14.052 -0.3040 -0.0704 -0.0786
29877W        W45951   1.640  15.487   0.538 -0.1045  0.1965 -0.0550
29878W        W45952   0.642  15.790   1.703  0.1075 -0.3450 -0.1737
29879W        W45953  13.023   5.030   5.260  0.2267 -0.2295 -0.1597
29880W        W45954   1.022   3.524  11.731  0.1745  0.0462 -0.1424
29881W        W45955   9.105   5.481  15.753 -0.0111 -0.0346 -0.0681
29882W        W45956   9.479   6.973  11.044 -0.0356  0.0983  0.0224
29883W        W45957  14.558  10.588   3.457  0.2081  0.0376  0.1500
29884W        W45958  15.570   4.262  12.052  0.1116  0.2373  0.0415
29885W        W45959  15.130  10.298  11.904 -0.2165 -0.1275  0.0981
29886W        W45960   0.014   7.042   5.142 -0.1314  0.0366  0.1410
29887W        W45961   2.320   9.077   2.491 -0.0483 -0.4570 -0.0022
29888W        W45962   3.852  16.582   5.023  0.0266 -0.2997 -0.0105
29889W        W45963   7.667   1.456   0.251  0.1847 -0.2124  0.0774
29890W        W45964   1.858   1.278  15.041 -0.0109  0.3622 -0.0425
29891W        W45965  10.517   2.553   3.893 -0.0483  0.1802 -0.0249
29892W        W45966   4.512  16.149  16.164  0.2120  0.1577 -0.1238
29893W        W45967  13.374   5.194  15.543 -0.0991  0.1807  0.0774
29894W        W45968   4.213   8.539   3.377 -0.0850 -0.1518  0.0371
29895W        W45969  14.310   8.529   4.729 -0.0687  0.1128 -0.1173
29896W        W45970   0.739  16.471   5.099 -0.2677 -0.1389 -0.3901
29897W        W45971  18.140   3.427  12.097  0.1082  0.0306 -0.1977
29898W        W45972   6.680  17.806  11.400 -0.2303 -0.0508 -0.0979
29899W        W45973  16.269   9.868   4.777 -0.2786  0.2721  0.0050
29900W        W45974   9.418   8.076  14.255 -0.3006 -0.1386 -0.1936
29901W        W45975   3.071  14.324   5.747  0.0364 -0.1234 -0.0079
29902W        W45976  15.441   3.730   2.822 -0.1034 -0.0212 -0.0097
29903W        W45977   2.769  16.885  15.551  0.1922 -0.0228  0.2831
29904W        W45978  17.118  10.941   1.934 -0.1330  0.2320 -0.0114
29905W        W45979  14.622  14.357   1.580 -0.3038  0.2947 -0.1241
29906W        W45980   3.337  17.457  14.150  0.1515 -0.1868  0.3910
29907W        W45981   1.016  16.472   0.781 -0.2613 -0.0054  0.0675
29908W        W45982  13.179  12.935   0.859 -0.0840  0.0502  0.2641
29909W        W45983  10.070   0.392   0.585 -0.1651  0.0768  0.0213
29910W        W45984   3.959  10.013   5.272  0.1832 -0.1010 -0.1198
29911W        W45985  10.644  11.105  16.001 -0.1582 -0.1127  0.0482
29912W        W45986  16.779  15.119  15.651 -0.0152  0.0929  0.0970
29913W        W45987   4.622   7.140  10.996  0.0715 -0.0648  0.1537
29914W        W45988   0.648   2.996   1.682 -0.0950 -0.0152  0.3317
29915W        W45989  14.905   3.655  12.852 -0.0562 -0.1678  0.0264
29916W        W45990   4.507   2.536  11.523 -0.0870  0.0103 -0.1259
29917W        W45991   1.358  12.694   4.292 -0.2507 -0.0420 -0.0601
29918W        W45992  14.705  12.040   1.231 -0.3939  0.0625 -0.3543
29919W        W45993   4.572   4.501   0.933 -0.0112 -0.1103  0.2290
29920W        W45994  15.808   4.039   0.994  0.0419  0.0050 -0.1392
29921W        W45995  16.436  16.975  12.399 -0.0364  0.2912  0.0567
29922W        W45996  12.507  16.107   5.040 -0.2290  0.0563 -0.1418
29923W        W45997  10.978   6.648   3.513  0.0706  0.4400 -0.0493
29924W        W45998  11.074   3.722   5.444 -0.0362  0.2207 -0.0972
29925W        W45999   0.504  14.750  16.000  0.1627  0.0856  0.2672
29926W        W46000  15.154   3.581   1.526  0.0273  0.1536 -0.2098
29927W        W46001   4.346  17.837   0.211  0.1144  0.0246  0.1584
29928W        W46002   9.792   8.708   3.115 -0.0325 -0.1132 -0.0093
29929W        W46003   5.435   8.183   0.520  0.1101 -0.2070 -0.1811
29930W        W46004   2.763  15.331   4.559 -0.1463  0.1317 -0.0051
29931W        W46005  18.281  11.940   3.917 -0.1719  0.0510 -0.1300
29932W        W46006   0.546   0.681   4.842  0.1225  0.2756 -0.0143
29933W        W46007  13.701   8.176  13.920 -0.0362  0.2362  0.3305
29934W        W46008  14.197   6.554   2.128 -0.1611  0.1109  0.0283
29935W        W46009   2.869   0.713  11.777 -0.0317  0.1389 -0.0575
29936W        W46010   8.089   5.019   5.363  0.0956 -0.2239 -0.0103
29937W        W46011  17.822   8.420  10.505  0.3723  0.2249 -0.2700
29938W        W46012  11.362  14.062  14.558 -0.1018  0.0769  0.1701
29939W        W46013  17.355   6.931  14.036 -0.4303 -0.0831 -0.0604
29940W        W46014  13.674  14.773   2.750  0.1859 -0.2914  0.4821
29941W        W46015  11.618   9.888  11.982  0.0806  0.1217 -0.0127
29942W        W46016  12.115  13.163  12.257 -0.5275  0.4451  0.0265
29943W        W46017  17.986   2.334   6.006  0.2229 -0.2932  0.2004
29944W        W46018   5.928   6.494   1.008 -0.0491  0.2554 -0.3446
29945W        W46019  17.370  16.297   0.680  0.3458  0.1112  0.0049
29946W        W46020   0.505  18.046  11.710 -0.2646  0.0293  0.1295
29947W        W46021  11.186  10.061   0.469 -0.0657  0.1257 -0.0997
29948W        W46022   7.533   4.996   3.058  0.0424  0.0774  0.2872
29949W        W46023   0.974   7.734   5.685 -0.0659  0.0187  0.2050
29950W        W46024   4.742   7.623   0.272 -0.1223  0.2550 -0.0267
29951W        W46025   3.513   7.848   4.289  0.1831 -0.0854  0.0199
29952W        W46026   8.035  10.401   0.795 -0.2308 -0.0545  0.0030
29953W        W46027   6.996  11.586  13.860 -0.0794  0.0272 -0.1606
29954W        W46028   3.390   6.980  11.768 -0.1262 -0.2029  0.1336
29955W        W46029  16.310   9.158   2.027 -0.0869  0.1756 -0.1201
29956W        W46030  11.306   9.432   2.254 -0.0699  0.2185 -0.1171
29957W        W46031  12.698   5.311  10.891  0.1527 -0.1156  0.3950
29958W        W46032   0.739   9.604  15.584 -0.2394 -0.1552  0.1763
29959W        W46033   3.817  15.243  11.784  0.0398 -0.0991  0.2431
29960W        W46034  16.021   9.712  14.213  0.0576 -0.0439 -0.0264
29961W        W46035  17.029   8.721  13.887  0.2967  0.0993  0.4449
29962W        W46036  17.402  11.308   2.642  0.3039 -0.1497  0.2600
29963W        W46037  15.654   4.898   0.145 -0.0891 -0.1714  0.0313
29964W        W46038   9.426   7.734   3.050 -0.0665  0.1448  0.5518
29965W        W46039   0.065   4.392   1.550 -0.1844  0.2339 -0.1057
29966W        W46040   7.314  15.677  14.315  0.0745 -0.5116 -0.4962
29967W        W46041   3.264   5.065   2.287  0.1377 -0.0597 -0.0421
29968W        W46042  10.290   6.891  10.228 -0.0087  0.2357  0.1160
29969W        W46043   4.261  14.518  15.258  0.1967 -0.2029 -0.2102
29970W        W46044   9.178  17.561  12.023  0.1144  0.3257  0.1131
29971W        W46045   2.920  15.110  13.564  0.1291  0.0497  0.1925
29972W        W46046   4.883  16.758   4.934  0.0334  0.0570 -0.0692
29973W        W46047   4.332  15.039   3.254  0.2014 -0.1538 -0.3201
29974W        W46048   4.463   6.672   5.657  0.0775  0.0471 -0.2797
29975W        W46049  13.249   0.025   0.226  0.2432 -0.0312  0.0477
29976W        W46050  16.359  11.684  14.130 -0.2727  0.1166 -0.2530
29977W        W46051   0.730   7.277  12.656  0.1692 -0.3547  0.2738
29978W        W46052  15.504   5.769   4.006  0.0803 -0.4112 -0.0317
29979W        W46053   7.206  12.035  14.059 -0.4023 -0.0961 -0.0760
29980W        W46054  10.670   5.175  14.275  0.1113  0.0365 -0.0101
29981W        W46055  16.133   3.491   0.347 -0.1153 -0.1577  0.0096
29982W        W46056   7.290  10.295  15.085  0.3392 -0.0008 -0.1787
29983W        W46057  10.900  15.375  13.377  0.0906  0.0470 -0.3448
29984W        W46058   6.334  17.894   4.432 -0.1098 -0.0084  0.3510
29985W        W46059   4.373   5.789   2.387  0.4523  0.1342  0.0900
29986W        W46060  15.103  14.163   2.298  0.1131  0.1437 -0.2627
29987W        W46061   3.436   9.238  14.241 -0.1694 -0.1026 -0.0718
29988W        W46062  11.817  10.152  16.092 -0.0214  0.0093  0.1453
29989W        W46063   5.536   2.792  14.732 -0.0360  0.0116  0.4946
29990W        W46064  11.761   5.932  15.379 -0.1993  0.2601 -0.4651
29991W        W46065  14.806  17.911  15.334  0.3309 -0.3358  0.1330
29992W        W46066  17.828  11.878  13.490 -0.1716  0.0569  0.0062
29993W        W46067   9.838  10.625   0.071 -0.0145 -0.3959  0.3589
29994W        W46068  11.311  11.944  14.767  0.0593 -0.1235  0.2717
29995W        W46069   4.981   8.973  14.292 -0.2134  0.3267  0.0098
29996W        W46070   9.501   7.507   0.900  0.3672  0.1406 -0.0296
29997W        W46071  13.934  11.967  13.131 -0.0661  0.1074  0.1779
29998W        W46072   5.495  14.925   2.659  0.3127 -0.1825 -0.1513
29999W        W46073   9.636  12.651   2.019 -0.2066 -0.2892 -0.1242
30000W        W46074  14.280   1.873  11.644 -0.3320 -0.2438 -0.0890
30001W        W46075  11.247   9.411  14.763  0.2542 -0.5264 -0.1460
30002W        W46076   9.625  12.437   1.528  0.3510  0.0020  0.0268
30003W        W46077  18.138   1.306   2.630 -0.0641 -0.0844  0.0140
30004W        W46078  15.741  12.043  14.822 -0.1192 -0.1676 -0.2824
30005W        W46079   3.648   1.960   6.191  0.1258 -0.0633 -0.1549
30006W        W46080   2.809  11.908   2.253 -0.0116  0.0201  0.2111
30007W        W46081   6.708   4.438  12.399  0.0663  0.0655  0.0446
30008W        W46082  11.930  14.348  11.577 -0.0956 -0.3240 -0.0356
30009W        W46083  13.805   7.092   4.212 -0.2308 -0.1808  0.1611
30010W        W46084   2.406   1.620  16.086 -0.1008  0.0776  0.0039
30011W        W46085  11.029   9.146   0.555 -0.0432 -0.0672 -0.0571
30012W        W46086   7.600  17.961   5.827  0.0269 -0.0576  0.2288
30013W        W46087  15.093   2.466  12.667 -0.3410 -0.2781  0.0962
30014W        W46088  15.590   6.337  13.015  0.3535 -0.0043  0.2504
30015W        W46089  12.851   6.131   0.168  0.0805  0.1426  0.0764
30016W        W46090   0.070  12.325   2.666 -0.1594 -0.0464  0.0121
30017W        W46091   1.892   0.994  16.031  0.1117  0.0756 -0.3983
30018W        W46092   0.670  14.255  14.170  0.1777 -0.2098  0.0501
30019W        W46093  10.609   0.740   2.402  0.3167 -0.2107 -0.1573
30020W        W46094  11.297   7.530   3.465 -0.0476  0.1661 -0.0941
30021W        W46095  12.255   9.044   5.237  0.3677  0.0162 -0.2521
30022W        W46096  15.891  13.382   1.463 -0.0313  0.3391 -0.1556
30023W        W46097   5.764  13.777   4.140  0.0115  0.1743 -0.0655
30024W        W46098  11.886  14.896   3.194  0.2058 -0.1504 -0.0869
30025W        W46099   3.779  10.956  16.277 -0.1716  0.1605  0.0349
30026W        W46100  16.553  16.252   5.672 -0.0855  0.1081  0.3938
30027W        W46101   1.682  14.246  11.907 -0.2069 -0.3049  0.0870
30028W        W46102   0.098  11.750  12.900  0.0054 -0.0967 -0.0232
30029W        W46103  12.726  14.734  10.937  0.1635 -0.1241 -0.1286
30030W        W46104   6.590  13.479  14.284  0.0939 -0.2006 -0.0911
30031W        W46105   3.947  15.411   4.186 -0.1627  0.0061 -0.1024
30032W        W46106  15.766   1.325   6.484  0.0426 -0.1096 -0.0249
30033W        W46107   3.955   7.830  12.962 -0.2488  0.1669 -0.2267
30034W        W46108   9.409   0.978  14.509  0.1134  0.0902 -0.1244
30035W        W46109  17.548   0.336  12.778 -0.0589  0.3644  0.1435
30036W        W46110   9.915  13.799   2.858 -0.3199 -0.0724  0.3868
30037W        W46111   7.489  15.584  13.110  0.2129 -0.0204 -0.2169
30038W        W46112   5.460   0.554   1.170 -0.5215  0.1016 -0.1957
30039W        W46113   8.356  12.136   4.902  0.1882  0.0997 -0.1088
30040W        W46114   2.944   2.622  15.344  0.3155  0.0524  0.0339
30041W        W46115   2.014  12.061   5.955  0.0748  0.0769 -0.1981
30042W        W46116  17.785  11.156  13.440 -0.2662 -0.1338 -0.2993
30043W        W46117  15.464   6.945   0.987  0.2072  0.2395 -0.1690
30044W        W46118  15.374  17.157   2.557 -0.1248  0.4159  0.0765
30045W        W46119   8.159   3.378  12.897  0.2494  0.3668  0.0089
30046W        W46120   1.309  15.726  15.489 -0.1457  0.1948 -0.0338
30047W        W46121  13.321   9.417  11.363 -0.1192 -0.1080 -0.0821
30048W        W46122  11.243   6.907   4.412  0.2160 -0.0100  0.0081
30049W        W46123  12.924   7.882   6.118  0.0270  0.2048  0.0853
30050W        W46124   2.601   0.546   2.385 -0.0519  0.0274 -0.1853
30051W        W46125  14.665   4.219  14.610 -0.1811  0.0388 -0.1665
30052W        W46126   9.074   5.804  14.260  0.0717  0.0084  0.0735
30053W        W46127   5.230  12.811  14.274  0.2170 -0.2410 -0.0849
30054W        W46128  16.729  14.696  15.332 -0.1790 -0.1177  0.0518
30055W        W46129   8.537   6.283   0.504 -0.0194  0.0334  0.2723
30056W        W46130   7.079   4.000  10.577  0.1221 -0.0845 -0.0236
30057W        W46131  16.806   7.399  12.116  0.2084  0.1727 -0.3235
30058W        W46132   7.157  15.576   3.078  0.0403 -0.1980 -0.1005
30059W        W46133   9.158  14.074   2.811 -0.2359 -0.0683  0.3193
30060W        W46134   6.427   7.892  11.629 -0.1399  0.1592  0.1785
30061W        W46135   1.456  10.575   3.173  0.0279 -0.2081  0.2208
30062W        W46136  17.583  10.708   1.886 -0.2024 -0.0322  0.0508
30063W        W46137   6.899  12.347   3.898  0.0379 -0.1153 -0.1949
30064W        W46138   6.837  12.390  15.561  0.0596 -0.2589 -0.0762
30065W        W46139  14.696   1.365  15.794  0.0777 -0.1376  0.0752
30066W        W46140   4.041  12.031   1.237 -0.1920 -0.1017 -0.0219
30067W        W46141   8.471  10.716  13.703 -0.2749  0.0367  0.2083
30068W        W46142  17.467   0.074  14.408  0.3353 -0.1299  0.1665
30069W        W46143  17.155   4.336  12.224 -0.0090  0.1325 -0.0995
30070W        W46144  10.016  10.386   1.623  0.1372  0.2957 -0.3732
30071W        W46145   5.673   6.648   1.369  0.3323 -0.1263  0.1731
30072W        W46146   7.509   1.245  15.253 -0.0192  0.1329 -0.1580
30073W        W46147   4.341  10.438   3.929  0.2000 -0.0804 -0.0655
30074W        W46148   0.002  10.242  15.995  0.0132 -0.1405  0.0665
30075W        W46149  16.809  16.369  16.320  0.2987 -0.0045 -0.0056
30076W        W46150  17.488   3.889  15.524  0.1249 -0.3744  0.1448
30077W        W46151   8.511  14.875   4.801  0.2761 -0.2437  0.0220
30078W        W46152  11.217   7.577  15.228  0.2150  0.0795  0.2801
30079W        W46153  12.346   9.840   4.240  0.1563  0.1151  0.0385
30080W        W46154   8.039   7.102   3.337  0.0649  0.2322 -0.0775
30081W        W46155  13.117   8.961   5.414 -0.0404 -0.0661 -0.2196
30082W        W46156  13.567  11.716  11.407  0.1323 -0.0155 -0.0189
30083W        W46157  11.888   1.862  11.036 -0.1046 -0.0400 -0.2856
30084W        W46158   2.210  14.803  13.887  0.2314  0.0951  0.5745
30085W        W46159  13.844  17.462   3.247 -0.0649 -0.0246 -0.0766
30086W        W46160  11.703   8.590  16.006  0.2672 -0.2028 -0.1484
30087W        W46161   6.115  11.884  13.753 -0.1566 -0.2072 -0.2838
30088W        W46162  11.752  12.444   4.204 -0.3203  0.1731 -0.0886
30089W        W46163   7.566   6.486  14.132  0.2999 -0.1741 -0.1218
30090W        W46164  17.818   1.080   4.021  0.2365 -0.1801 -0.0226
30091W        W46165   3.811  18.323   3.923  0.0982  0.3299 -0.1794
30092W        W46166   0.431   9.265   2.304 -0.1128 -0.2546 -0.1318
30093W        W46167   3.114  13.606   3.917  0.0973 -0.0580  0.4264
30094W        W46168   9.845   8.999  14.376 -0.3099 -0.1098  0.0080
30095W        W46169   0.675   3.748  13.994 -0.0847 -0.1706  0.1546
30096W        W46170   7.351  17.003  15.307 -0.0354 -0.1533 -0.1331
30097W        W46171  10.423  16.382  15.983  0.0527  0.1031 -0.1360
30098W        W46172  14.729   7.518   2.636  0.2281  0.1666 -0.1327
30099W        W46173   4.065  12.343  12.455  0.0934 -0.0946  0.4027
30100W        W46174   0.857   9.314  14.603  0.0022  0.5506  0.1291
30101W        W46175  12.529  10.157  11.640 -0.1430  0.1828 -0.1743
30102W        W46176  17.580   2.031   0.175  0.1840 -0.0315  0.0528
30103W        W46177   2.441   9.904  14.512  0.0301 -0.1169  0.0149
30104W        W46178  16.506   4.634  10.601  0.0353 -0.0082  0.0901
30105W        W46179  17.187  17.168   0.918 -0.0973 -0.1475  0.1774
30106W        W46180  12.230  11.502   4.981 -0.1647  0.0380 -0.1437
30107W        W46181  10.702  13.667  11.264 -0.1571  0.0108  0.1254
30108W        W46182  16.129   1.126   2.058 -0.1780  0.0703  0.1092
30109W        W46183   5.745  13.949   0.899  0.0772  0.1190 -0.0640
30110W        W46184  15.865   1.238  14.957 -0.0038  0.1273  0.0590
30111W        W46185  13.206   9.883  12.866 -0.1581  0.0412  0.1721
30112W        W46186   1.152   5.771  15.752  0.2398  0.1375 -0.3564
30113W        W46187  11.741   4.241  14.559  0.1080  0.0317 -0.1356
30114W        W46188   6.198   9.944   1.783  0.1038 -0.2317  0.0346
30115W        W46189  15.684  16.790   0.611 -0.1031 -0.0019 -0.0258
30116W        W46190   5.332  16.814   0.221 -0.0959 -0.0770  0.2533
30117W        W46191   1.512  17.315  11.630  0.3381  0.0079 -0.0577
30118W        W46192   8.551  13.958  15.099 -0.1724 -0.0731 -0.0247
30119W        W46193  17.193   3.860   5.197 -0.0699  0.1850  0.0708
30120W        W46194   5.427   9.683  12.141  0.1983  0.1045 -0.1985
30121W        W46195   1.762   9.872   0.033  0.0328  0.2956 -0.1260
30122W        W46196   4.856   6.690   1.243  0.1928 -0.1429 -0.2188
30123W        W46197  17.488   9.082   3.090  0.1039  0.0442 -0.1505
30124W        W46198  13.522  15.976   2.164  0.0017 -0.2615 -0.1294
30125W        W46199   6.041   5.508   2.989  0.0385  0.0526 -0.0720
30126W        W46200  12.523   7.736   4.854 -0.1861  0.0473 -0.1274
30127W        W46201  11.185  15.694   4.049  0.2030 -0.0650  0.0479
30128W        W46202   4.631   4.346  11.848  0.3031 -0.0263 -0.0044
30129W        W46203   2.993   9.233   1.923 -0.0553 -0.2129 -0.0125
30130W        W46204   7.936  12.607  11.950 -0.2213 -0.3079 -0.0675
30131W        W46205   9.917   7.471  12.880  0.1952  0.0306  0.1942
30132W        W46206   6.327   1.453  11.710  0.0414  0.0446 -0.0118
30133W        W46207  10.082   7.141   5.397 -0.1376 -0.0108  0.0968
30134W        W46208   7.648   4.218   1.864  0.0080  0.3648  0.2858
30135W        W46209  18.220  12.505  12.569  0.2310  0.1990 -0.0310
30136W        W46210  13.489  12.712  15.462  0.4517 -0.3202 -0.1533
30137W        W46211   8.208   4.557   4.507 -0.1297  0.1532  0.1834
30138W        W46212  13.593   5.624  14.268 -0.0362  0.1469 -0.4023
30139W        W46213   9.629  13.190   5.060  0.0301 -0.0737  0.0053
30140W        W46214   9.749   2.761   4.602  0.1125  0.2916  0.2088
30141W        W46215   4.859   3.793   6.198 -0.1286 -0.3077  0.1387
30142W        W46216   8.613  10.987   0.640 -0.0113 -0.1744  0.2372
30143W        W46217   1.082  11.504   1.366  0.3009  0.0595 -0.2481
30144W        W46218  15.676   7.333  14.910  0.1231 -0.3092  0.2724
30145W        W46219  18.071   7.809   4.692  0.1757  0.0449 -0.1487
30146W        W46220  10.724   8.398   5.835  0.0497 -0.0390  0.3232
30147W        W46221   4.714  11.529   3.435 -0.0054  0.1122  0.0391
30148W        W46222   4.624  15.713  15.813  0.0388 -0.1465 -0.0623
30149W        W46223   9.239  12.244   1.247 -0.2946 -0.0452 -0.0436
30150W        W46224   8.022   9.822   5.118  0.0262 -0.0075 -0.0951
30151W        W46225  16.117  15.976  15.629  0.0752  0.1109 -0.1246
30152W        W46226   0.014   2.973   0.844 -0.1704  0.0443 -0.1395
30153W        W46227  12.322   0.904   1.815 -0.2572 -0.0750  0.0107
30154W        W46228  12.908   6.805  15.628  0.0786  0.1902  0.1428
30155W        W46229   4.023   1.014   1.480  0.2188  0.1136 -0.0124
30156W        W46230  15.299   5.084  11.554 -0.2315 -0.0159  0.2142
30157W        W46231  13.977   3.644   2.953 -0.3430  0.1909  0.0179
30158W        W46232   2.763  11.979   3.565  0.1150 -0.0181  0.0811
30159W        W46233  14.025  14.403  11.767  0.2151  0.0124  0.0437
30160W        W46234   0.116  10.793   2.464 -0.0406  0.0910 -0.0366
30161W        W46235   4.862  16.029   4.145 -0.0018 -0.4772 -0.3052
30162W        W46236  11.096  17.622  11.973  0.0009 -0.0683  0.2750
30163W        W46237  12.901  13.092   3.420 -0.2261  0.1420  0.1227
30164W        W46238   4.332  16.451   0.230 -0.0067  0.0433  0.0357
30165W        W46239   1.574  11.494  12.156 -0.0089  0.0109 -0.1754
30166W        W46240   4.743  10.676  14.924  0.1249 -0.2893 -0.1706
30167W        W46241  12.172  12.934   0.249 -0.2079 -0.1660 -0.4640
30168W        W46242   2.127   0.178  16.279 -0.2643 -0.1403 -0.1900
30169W        W46243  12.207  15.203   1.326  0.2761 -0.0264 -0.0209
30170W        W46244   5.183   6.356   2.730 -0.1878 -0.0452 -0.2400
30171W        W46245  11.821   2.078   3.988  0.1816  0.0964  0.4388
30172W        W46246   9.245  15.609  13.150  0.1206  0.0180  0.1591
30173W        W46247   9.858   4.685  14.207 -0.0793  0.0224 -0.0610
30174W        W46248   0.398   1.998   2.320 -0.0654  0.0052 -0.0147
30175W        W46249  11.356  17.899   4.703 -0.0374 -0.0452 -0.2761
30176W        W46250  12.376   8.074   2.699  0.1030 -0.2883 -0.1345
30177W        W46251   0.456  17.932  12.261  0.3030 -0.2120  0.0032
30178W        W46252   8.156  17.003   3.136 -0.3496  0.0718  0.0156
30179W        W46253   2.905  12.656   2.897 -0.0656  0.4477 -0.2687
30180W        W46254  12.823   1.915  13.008  0.3908  0.1896 -0.1559
30181W        W46255   2.129   2.151  15.713  0.0966  0.1837  0.7401
30182W        W46256  11.851   7.245   0.607  0.0622 -0.2278  0.0708
30183W        W46257  11.929   2.738  14.384 -0.1051  0.3214 -0.1368
30184W        W46258  17.837   0.050   4.151  0.0541 -0.0563  0.2089
30185W        W46259   2.610   9.096   1.209  0.0648  0.0956 -0.4501
30186W        W46260   5.821   8.923   2.383  0.0496  0.1152 -0.3510
30187W        W46261  15.091  16.852   5.565 -0.2213 -0.1731  0.3435
30188W        W46262   0.928  15.566  16.182  0.1779  0.1300  0.2787
30189W        W46263   9.959  14.564   3.757  0.0549 -0.0116 -0.0581
30190W        W46264   5.267  10.433  11.546  0.1101 -0.2171  0.0460
30191W        W46265  17.999  11.458   3.889 -0.3686  0.1480 -0.2451
30192W        W46266  17.209  17.485  14.488  0.0410 -0.0071 -0.2920
30193W        W46267   9.941   9.838  13.745  0.2553  0.2201 -0.0560
30194W        W46268   9.790   5.990  15.592  0.1457  0.2746  0.0561
30195W        W46269  14.247  13.983  14.556  0.1846 -0.1245  0.1427
30196W        W46270  11.716   0.698   3.851  0.0332  0.0416 -0.3452
30197W        W46271   8.472  16.978  15.893 -0.2463  0.0302  0.1155
30198W        W46272   6.847  17.071   5.156 -0.0598 -0.0526  0.0471
30199W        W46273   6.888   0.828   3.247 -0.1015 -0.0466  0.0485
30200W        W46274   4.818  14.234  16.047  0.1320 -0.0103  0.2660
30201W        W46275   6.563   4.606  13.118  0.2943 -0.3131  0.0277
30202W        W46276   1.347  14.945   5.677  0.1876  0.1012 -0.0542
30203W        W46277   7.514   8.050   1.588 -0.0685 -0.3071  0.4651
30204W        W46278  16.406  18.260  15.433 -0.0093  0.1855 -0.0740
30205W        W46279   6.659  11.227   2.312 -0.1954 -0.2255  0.2721
30206W        W46280  12.217   7.493   0.343 -0.1299 -0.0236  0.0746
30207W        W46281   3.461   4.518  12.755 -0.0528  0.1424  0.0419
30208W        W46282   3.870   4.944  12.790  0.1404  0.0320  0.0898
30209W        W46283   1.334   2.268  12.552  0.0915  0.1874 -0.1174
30210W        W46284  15.452   2.895  15.462  0.1172 -0.1067  0.0653
30211W        W46285   5.743   8.290  15.735 -0.2669  0.0477  0.0616
30212W        W46286   4.951   6.133  12.095  0.0256  0.0676  0.1196
30213W        W46287   9.796   8.151   3.869  0.1580 -0.1445  0.0588
30214W        W46288  10.273  15.424   2.935 -0.3948  0.2836 -0.1269
30215W        W46289   3.290  13.566   4.715 -0.0322 -0.0662 -0.0791
30216W        W46290   9.286  14.753   3.348 -0.0817 -0.0431 -0.0450
30217W        W46291   9.638  11.725  11.743  0.0262  0.1968 -0.0670
30218W        W46292   5.019   0.645  14.649 -0.1383 -0.1663 -0.1274
30219W        W46293  10.084  12.977   4.942 -0.1684  0.2348  0.1068
30220W        W46294  17.105   3.354   0.512  0.1214  0.0714 -0.3277
30221W        W46295   3.827   4.051   3.224 -0.0556 -0.0811 -0.0783
30222W        W46296   2.255   5.763   0.520  0.1412  0.0663 -0.0614
30223W        W46297   8.915   6.404  12.910  0.0629  0.2785  0.3218
30224W        W46298   5.086  15.626   2.253  0.1527  0.0292  0.2292
30225W        W46299  16.527   3.911  15.333 -0.4277 -0.2851 -0.0964
30226W        W46300   6.375   2.010  11.085 -0.1748  0.1696 -0.2478
30227W        W46301   9.765   5.305  11.257 -0.0410  0.0913 -0.2809
30228W        W46302  14.586   1.143   5.623  0.1384  0.0948  0.1132
30229W        W46303  10.380  14.178   0.175 -0.2199  0.2374  0.0808
30230W        W46304  16.461   2.012  12.072 -0.0175  0.0277 -0.1270
30231W        W46305  10.012  18.225   2.776  0.0933  0.0593  0.0433
30232W        W46306   5.443   3.350   0.428  0.3426  0.2232 -0.2554
30233W        W46307  17.384   0.841  15.636  0.1965  0.2487 -0.2833
30234W        W46308  17.181  13.550  13.174 -0.3411 -0.1729 -0.2450
30235W        W46309   1.620  10.324   1.287  0.2166  0.0634 -0.1406
30236W        W46310  10.258  11.021   4.459 -0.0141 -0.5592  0.0330
30237W        W46311  15.338   9.175   5.424  0.2200  0.1902 -0.0006
30238W        W46312   5.289   1.286   4.824 -0.0880  0.0421 -0.0523
30239W        W46313   9.640   3.932   0.134 -0.1877  0.0980 -0.0406
30240W        W46314   7.847  10.077   1.539  0.1205 -0.2856 -0.1474
30241W        W46315   5.688   2.257  14.520 -0.3911  0.0616  0.0109
30242W        W46316  12.881  15.633   5.884  0.0601  0.0809  0.3967
30243W        W46317   7.313   8.226   4.131  0.0862 -0.0694  0.0596
30244W        W46318  12.258   2.620   3.911 -0.1541  0.0160  0.3473
30245W        W46319   0.363   4.052   5.125  0.1684  0.2343  0.1434
30246W        W46320  16.881   6.713   0.978  0.0227  0.0663 -0.4556
30247W        W46321   0.438  14.029   3.883  0.0254  0.0352  0.2227
30248W        W46322   4.445  16.664  13.105 -0.1393 -0.5145 -0.2291
30249W        W46323  10.192   5.610  11.714  0.0553 -0.0520 -0.0576
30250W        W46324   3.225  11.804   1.837 -0.0126 -0.3597 -0.1809
30251W        W46325   3.076  16.608  13.271  0.2186  0.2392  0.0867
30252W        W46326  13.589   8.570  14.927 -0.2210  0.2803 -0.1686
30253W        W46327   5.118   8.433  15.518 -0.0477 -0.0527 -0.1522
30254W        W46328   3.139   6.889   1.558  0.3503  0.2105 -0.5655
30255W        W46329  16.311  15.971  13.648  0.2639 -0.2205  0.0928
30256W        W46330   4.213   5.838  14.683 -0.2173 -0.2419 -0.0569
30257W        W46331  12.694   1.022  14.168 -0.2251 -0.1099 -0.3632
30258W        W46332  17.963   3.811  15.742 -0.2347 -0.0580 -0.3137
30259W        W46333   2.704  16.235  13.055 -0.0966  0.3754 -0.3334
30260W        W46334   0.052   5.876   2.450 -0.1442 -0.0339  0.1448
30261W        W46335   9.711   4.477  12.973  0.3461  0.3510 -0.1303
30262W        W46336   9.680   8.172   4.625 -0.0634 -0.0308  0.2695
30263W        W46337   7.647   3.889  11.446 -0.3394 -0.5254 -0.1687
30264W        W46338   3.975   3.826   2.757  0.0865  0.0542 -0.2108
30265W        W46339  18.137   4.842   5.382 -0.3029 -0.1979 -0.1618
30266W        W46340  14.543   7.347  15.559  0.0477 -0.0930  0.3505
30267W        W46341  10.299   6.448   4.556  0.3929  0.0033 -0.0628
30268W        W46342  17.591  13.422   5.058  0.1498 -0.1711 -0.0945
30269W        W46343   6.573   1.235   3.145  0.2209 -0.0366 -0.2631
30270W        W46344  16.146   5.487  15.608 -0.3095  0.2906  0.0442
30271W        W46345  13.535   6.406   4.785  0.0515 -0.4949 -0.4992
30272W        W46346   7.264  15.122   0.405  0.1542 -0.1246 -0.1582
30273W        W46347  15.338  11.439  14.220 -0.2125  0.0747  0.0732
30274W        W46348   1.792  14.454   4.994 -0.0188  0.1641  0.2079
30275W        W46349   8.814   0.651  12.259  0.0376 -0.1492  0.1523
30276W        W46350   7.685   1.822   3.195  0.0250  0.0922  0.1376
30277W        W46351  14.646  17.208  11.721  0.0606  0.4477 -0.1655
30278W        W46352  12.737  11.050  13.893  0.2264  0.1454 -0.1494
30279W        W46353   7.195   9.720   4.677 -0.1025  0.1621 -0.7033
30280W        W46354   1.008   4.316   1.833 -0.3017 -0.1417  0.2196
30281W        W46355  14.989   8.183  12.510 -0.1125  0.0687 -0.0084
30282W        W46356   7.879   6.899   6.032 -0.1707 -0.1910 -0.0112
30283W        W46357  11.805  11.675   5.311  0.1266  0.0403 -0.1096
30284W        W46358   7.873   3.528   2.244 -0.1025 -0.0652 -0.1604
30285W        W46359  12.536   6.040   3.353 -0.0630 -0.2015 -0.2407
30286W        W46360  15.779   3.410   2.204  0.3013  0.0784 -0.3335
30287W        W46361  10.092   8.077  13.566  0.0344  0.0577 -0.1144
30288W        W46362   6.211  17.320  15.070  0.1882 -0.0966  0.2323
30289W        W46363  13.646  16.397  14.799 -0.1092  0.1607  0.2052
30290W        W46364  17.340  14.403   1.786  0.0452  0.0245  0.2140
30291W        W46365   8.572  10.057  12.184 -0.1410 -0.0600 -0.4268
30292W        W46366   7.684   3.044   2.104 -0.0523  0.0784  0.0913
30293W        W46367   1.406   7.042  13.526  0.2896 -0.0421 -0.0643
30294W        W46368   3.209   7.993  15.091  0.1920 -0.4141  0.0750
30295W        W46369   0.326   6.550  14.238  0.0506 -0.2393  0.0260
30296W        W46370   8.839   1.748   9.814  0.0562  0.3492  0.2873
30297W        W46371  11.030   5.956   2.237  0.0658 -0.0747 -0.1584
30298W        W46372   8.253   8.360  13.593 -0.2530  0.1350  0.1751
30299W        W46373  11.797   5.876   3.718 -0.1923 -0.1294  0.1416
30300W        W46374  16.850  16.486   5.322 -0.4571  0.1027 -0.2340
30301W        W46375  17.709  15.301  13.644 -0.1164 -0.2883 -0.0206
30302W        W46376   1.698   1.118   3.521  0.1530  0.1409 -0.2079
30303W        W46377  14.504  13.648  12.612  0.0311  0.0645 -0.3146
30304W        W46378   9.229   7.091  11.463  0.1055 -0.1838 -0.2656
30305W        W46379   7.194  15.739   2.078  0.3040  0.0172  0.2759
30306W        W46380  11.793   7.606   0.972 -0.0448 -0.0006 -0.2659
30307W        W46381  10.842  13.746   4.201  0.2090 -0.0537 -0.0187
30308W        W46382  13.088  14.508  11.494 -0.3179 -0.0863  0.1768
30309W        W46383   2.351   6.269   0.495  0.1327 -0.0538 -0.0150
30310W        W46384  17.160   5.779   5.286  0.0430  0.1613 -0.1309
30311W        W46385   6.924  10.459   4.214  0.2322 -0.0789 -0.2112
30312W        W46386  12.489  17.980   3.576  0.0744  0.1414  0.1167
30313W        W46387  11.038   6.929   1.560 -0.0519  0.1545  0.0523
30314W        W46388   3.755   4.207  15.032 -0.0102 -0.2153  0.3598
30315W        W46389  17.003   5.391  15.696  0.1268 -0.0603 -0.1205
30316W        W46390   8.298   4.953   0.544  0.3455 -0.4817 -0.0263
30317W        W46391  16.275   3.742   4.774  0.3800  0.0509  0.0978
30318W        W46392   6.126  12.412  16.324 -0.0480 -0.2126 -0.0574
30319W        W46393  11.569  10.691  14.477  0.0382 -0.2416 -0.0525
30320W        W46394   4.061   9.854   4.116  0.1957  0.0685 -0.1100
30321W        W46395   8.760  12.331   1.617  0.1334 -0.1828  0.0358
30322W        W46396   6.311   1.668   1.977  0.0102 -0.1563 -0.1883
30323W        W46397   3.530   2.933   4.544  0.1789  0.0288  0.1442
30324W        W46398  13.510   0.374  16.159 -0.0049  0.0807  0.2199
30325W        W46399  16.206  17.575   4.901 -0.1442 -0.2356 -0.1746
30326W        W46400  12.033   9.147  12.042 -0.1903  0.2899 -0.0963
30327W        W46401  14.166  15.842   5.160  0.1558  0.1326  0.1129
30328W        W46402  13.685   2.583   2.090  0.1308 -0.0138 -0.2764
30329W        W46403  14.831  16.504  16.128  0.2324 -0.1209 -0.0919
30330W        W46404  11.220   0.481  14.180  0.1295 -0.0304 -0.2650
30331W        W46405   0.445  13.195  11.459  0.1464 -0.0762  0.0999
30332W        W46406   1.532   6.879  12.960  0.0915  0.2460 -0.0273
30333W        W46407   8.716   7.453   2.388  0.0425  0.1586  0.2901
30334W        W46408   6.112   0.815   1.814 -0.1181  0.2140 -0.1646
30335W        W46409  13.020   9.628  13.921 -0.1457  0.0493 -0.1740
30336W        W46410  12.542   5.169   1.931 -0.1474 -0.0684 -0.0332
30337W        W46411   8.739  17.243   1.385  0.2187 -0.0736  0.0286
30338W        W46412   9.971   1.524   2.841  0.0247 -0.1555  0.2075
30339W        W46413   1.498  11.308  16.308  0.3016 -0.0876 -0.0528
30340W        W46414  15.566  10.581   3.620  0.0342 -0.1889  0.1169
30341W        W46415   3.777   4.335   1.807 -0.0970  0.1203  0.2341
30342W        W46416   5.465   7.606  15.544 -0.0246 -0.3103  0.2914
30343W        W46417   5.660   5.714  11.602  0.2374 -0.1116 -0.1121
30344W        W46418   4.677   8.295   3.510 -0.2927 -0.0356  0.0822
30345W        W46419   2.274   3.893  13.639  0.1132 -0.3138  0.3205
30346W        W46420  13.644   8.617   3.712  0.2887 -0.0784  0.3037
30347W        W46421   0.925   6.573  15.998 -0.0918 -0.2180 -0.2719
30348W        W46422   7.010  18.122  12.175  0.2052  0.2993  0.4303
30349W        W46423   6.250   1.309   1.061  0.1001  0.0913 -0.1752
30350W        W46424  15.673  15.326   0.459 -0.2069  0.0126 -0.1591
30351W        W46425  17.345  16.555   1.632  0.0117  0.0394 -0.1233
30352W        W46426   7.324  16.943   5.274 -0.1184  0.3359 -0.1887
30353W        W46427  10.840   9.459  11.238 -0.2223 -0.2712 -0.4198
30354W        W46428   6.889  16.785   5.563  0.0556 -0.0137 -0.0292
30355W        W46429  13.820   0.256  12.035  0.1316  0.0159 -0.2604
30356W        W46430   2.949  14.381  11.689  0.2041  0.0259  0.0012
30357W        W46431  17.492  12.514  12.928  0.2424 -0.3325 -0.1536
30358W        W46432   9.157  10.503  15.934 -0.1919  0.1995  0.1329
30359W        W46433   4.842   6.980  13.444 -0.0123 -0.1782 -0.0260
30360W        W46434  16.109  13.748  13.903  0.3314  0.1301 -0.0694
30361W        W46435  11.651  15.961  15.945  0.1845  0.1069  0.0434
30362W        W46436  13.310   8.217   1.961  0.0478  0.1135 -0.0529
30363W        W46437  11.916  12.403   6.032 -0.0124 -0.0362 -0.1985
30364W        W46438   7.981  15.292   1.020 -0.0546  0.2666  0.2675
30365W        W46439  10.684   9.475   0.968 -0.0100  0.1818  0.1320
30366W        W46440   4.977   8.293  11.665 -0.0792  0.0587  0.1331
30367W        W46441   3.346   8.397  11.743  0.0508 -0.0657  0.0994
30368W        W46442  17.300  11.579   3.024  0.0619 -0.0527 -0.1031
30369W        W46443  11.848  15.374   3.348 -0.1117 -0.0570 -0.1291
30370W        W46444   4.277   9.922  12.714 -0.1658  0.0966 -0.4187
30371W        W46445   5.494  11.825  16.255 -0.0036  0.2825 -0.0306
30372W        W46446   7.748   9.708   0.608  0.0534  0.0366 -0.1475
30373W        W46447  17.430   6.198  12.376  0.0158 -0.1297 -0.0912
30374W        W46448   1.112   4.527   3.862  0.1705  0.0213 -0.0293
30375W        W46449   5.967   4.526  13.327 -0.2430  0.3153  0.2974
30376W        W46450  11.542   3.727   4.331  0.0471 -0.4336  0.0933
30377W        W46451   1.780  16.922   5.973  0.0790  0.2914  0.1818
30378W        W46452  13.331  12.856  15.881  0.1810  0.0548  0.0592
30379W        W46453  10.023  17.921  15.912 -0.0111  0.3116  0.1052
30380W        W46454  11.793   9.334   2.386 -0.1080  0.0513  0.1222
30381W        W46455   6.517  11.881   5.312  0.2480 -0.0000  0.0450
30382W        W46456  10.565  13.341  12.518  0.2959 -0.0918  0.1227
30383W        W46457   3.761   2.906  12.790 -0.0510  0.0415 -0.2412
30384W        W46458  11.340  10.368  13.280 -0.3785  0.0650 -0.0280
30385W        W46459   1.714  14.862  11.776  0.0552  0.0960 -0.0571
30386W        W46460   0.226   3.673  13.700 -0.1189  0.3186  0.0728
30387W        W46461  16.380   8.300  15.414 -0.4048  0.1868 -0.1707
30388W        W46462   4.104  11.627  15.728 -0.4318  0.2256 -0.0131
30389W        W46463   3.614   4.127  16.225  0.2191  0.1184  0.0418
30390W        W46464   5.640  16.243   3.345  0.2067 -0.0747 -0.0588
30391W        W46465  12.329   3.337  15.524 -0.2229 -0.0978 -0.3681
30392W        W46466   6.388  13.703  12.334  0.2914 -0.2609  0.1498
30393W        W46467  10.531   2.055  12.718 -0.0325  0.2928  0.1953
30394W        W46468   6.136  14.221  15.496 -0.0107 -0.0225  0.1032
30395W        W46469   0.539   0.062   6.050  0.0647  0.3380  0.3107
30396W        W46470   6.369  15.656   2.436 -0.0405 -0.0081 -0.3691
30397W        W46471   0.183  12.728  12.909 -0.0593  0.1026  0.0152
30398W        W46472   5.664  18.316   4.158  0.0771 -0.1516 -0.0401
30399W        W46473   5.026   4.250  15.017  0.2945  0.2132  0.0713
30400W        W46474   6.945  16.050   1.780  0.1059 -0.1717 -0.1928
30401W        W46475  13.772  10.264   5.058  0.0792  0.2544  0.2922
30402W        W46476   9.446   6.864   3.188  0.1214 -0.0857 -0.1679
30403W        W46477   3.840  16.815   2.101  0.2103  0.2645  0.0025
30404W        W46478  15.282  12.780  15.648  0.2189  0.2559  0.0513
30405W        W46479  17.599   1.229  15.374 -0.1694  0.0665  0.1305
30406W        W46480   6.388   8.749  13.136 -0.0747  0.0505 -0.1971
30407W        W46481   9.181  12.757   4.924  0.0078  0.2155  0.0080
30408W        W46482   0.164   2.622   3.700  0.0118 -0.0839 -0.0709
30409W        W46483  11.759  11.868  11.338  0.0573 -0.0552 -0.0507
30410W        W46484  16.517   5.129   3.139  0.1475 -0.3313 -0.1327
30411W        W46485   8.923   5.030  11.532  0.3623  0.1035  0.2541
30412W        W46486   4.323   3.845   3.133  0.2413 -0.1143  0.1471
30413W        W46487  13.356   3.123   1.178 -0.1184 -0.0334  0.2093
30414W        W46488   0.163  18.153   3.376 -0.0068 -0.2771 -0.1085
30415W        W46489  11.352   1.867  11.906 -0.2954  0.2536 -0.0696
30416W        W46490   5.715   8.943  15.053 -0.0816  0.0027 -0.2406
30417W        W46491  12.758   0.620  12.917 -0.2215 -0.3555 -0.0887
30418W        W46492   5.594   4.068  14.469  0.1379  0.1146  0.2184
30419W        W46493   3.774  15.691   2.866  0.0429 -0.2306 -0.1531
30420W        W46494   3.093   8.336  12.771 -0.0384 -0.6182  0.0749
30421W        W46495   5.350   8.629  11.384 -0.0958  0.1141  0.0823
30422W        W46496   4.296  10.678  11.685 -0.2034  0.1497  0.0916
30423W        W46497   1.568  17.948  11.547  0.1162 -0.0802  0.1522
30424W        W46498  13.141  16.166   0.483 -0.0902  0.2890  0.0534
30425W        W46499   5.587   7.939  12.607 -0.0342 -0.3664  0.1890
30426W        W46500   1.478   6.891   0.466  0.3027 -0.2979  0.1039
30427W        W46501  14.982   5.444  13.720  0.0659  0.1048  0.2818
30428W        W46502   8.198  12.357  15.099  0.2867 -0.1970  0.1232
30429W        W46503  11.663   8.710  11.847  0.1188 -0.1478 -0.1097
30430W        W46504   1.585   8.614  11.195 -0.1253  0.1011 -0.1614
30431W        W46505   3.680  12.973  12.207 -0.3102 -0.2002 -0.1249
30432W        W46506  17.787   1.929   2.004  0.0513  0.0890  0.3019
30433W        W46507  18.071   7.753   4.162  0.0014  0.0154  0.1019
30434W        W46508   7.196   4.452   0.139 -0.2771  0.0866  0.1094
30435W        W46509   1.963  18.170   5.349 -0.2319 -0.1613  0.1556
30436W        W46510  10.936  14.768  15.696  0.3475  0.0897 -0.2303
30437W        W46511  12.918   2.928   0.340  0.0809  0.0971  0.0221
30438W        W46512  15.291   4.533  13.198 -0.1162  0.0294  0.0690
30439W        W46513   2.311  13.128   3.866 -0.1678 -0.0435  0.0249
30440W        W46514  18.185   3.398  14.474 -0.1649  0.2662 -0.1205
30441W        W46515  11.023  15.440   1.049 -0.2217  0.2915 -0.0867
30442W        W46516  13.160  13.536  14.333  0.2341  0.0518  0.4466
30443W        W46517   4.160   5.516   3.513 -0.3549  0.0571 -0.0906
30444W        W46518   4.067  16.721  11.397 -0.0906  0.0221 -0.0318
30445W        W46519  12.493   3.929   5.243 -0.0513  0.0737 -0.0537
30446W        W46520  16.897   6.281  14.638  0.5381  0.2058 -0.1160
30447W        W46521  11.403   7.996   1.725  0.1244 -0.4651  0.0772
30448W        W46522   2.481  15.909   5.709  0.2709 -0.0620 -0.0863
30449W        W46523   9.359   5.798  15.418 -0.0905  0.0614  0.1567
30450W        W46524   2.228   4.651   2.078  0.0598  0.0982 -0.0757
30451W        W46525  17.244   7.807   4.048 -0.0312 -0.0414 -0.1322
30452W        W46526  12.851   6.387  11.730 -0.2207  0.3432 -0.0206
30453W        W46527   2.405   3.918   1.166  0.4629  0.2522 -0.1241
30454W        W46528  10.103   9.308   0.158 -0.1119 -0.0088  0.1070
30455W        W46529   5.265  18.204   3.266 -0.5440  0.1259  0.2264
30456W        W46530   1.884   5.348  14.596  0.0221  0.2448  0.0760
30457W        W46531  18.248  13.522  12.736  0.1073 -0.0940 -0.1504
30458W        W46532   3.966  10.642  14.285 -0.2178  0.0711  0.0291
30459W        W46533   3.688   9.762  13.603 -0.1168  0.1237 -0.2774
30460W        W46534  13.756   6.680   4.479 -0.3681 -0.0150 -0.2707
30461W        W46535   2.182  13.211   0.948 -0.1115 -0.2623  0.3131
30462W        W46536   3.576  13.981   3.022  0.3123  0.0377 -0.1817
30463W        W46537  10.067   2.243   5.060 -0.1082 -0.0929 -0.1320
30464W        W46538   1.135   5.664  12.232  0.1299 -0.0999  0.0505
30465W        W46539   3.388  17.859  13.318  0.1878 -0.2192 -0.3191
30466W        W46540  13.226  10.883   0.396  0.2897  0.1049 -0.1993
30467W        W46541  17.817  14.600  12.077  0.0392  0.1272  0.1930
30468W        W46542  10.706   4.399  16.013 -0.2257 -0.1580 -0.0541
30469W        W46543   9.830  11.580   1.067  0.1562 -0.2800 -0.1455
30470W        W46544   7.843  13.080  12.115 -0.3628 -0.2156 -0.1145
30471W        W46545  10.818   2.816  12.134  0.1496 -0.1479 -0.0420
30472W        W46546  17.298  10.645   0.729 -0.1141 -0.1063  0.0443
30473W        W46547   1.293   0.486  12.438 -0.0504  0.1046 -0.0742
30474W        W46548   9.394  14.359   3.783 -0.5357  0.0478 -0.1239
30475W        W46549  16.190  12.044  14.550 -0.0123 -0.2785  0.5500
30476W        W46550   8.670   4.737  15.105 -0.0362 -0.1536  0.0447
30477W        W46551   6.178  17.046  13.613 -0.0439 -0.0966 -0.1721
30478W        W46552   3.616  13.771  11.852 -0.1798  0.0293  0.3640
30479W        W46553   2.494  12.566  11.593 -0.2374  0.1120  0.1808
30480W        W46554   7.747  13.223   5.000  0.0676  0.0914  0.1866
30481W        W46555  10.680   6.202   1.921 -0.2336  0.0488  0.0706
30482W        W46556  14.635  16.480  13.727 -0.1844  0.0263  0.0832
30483W        W46557   1.973  12.901   6.142  0.1664  0.0090 -0.0973
30484W        W46558   0.472  13.995  12.248  0.2075 -0.0592 -0.1229
30485W        W46559  14.659  13.186   4.602  0.1100 -0.3052  0.1776
30486W        W46560  14.003   4.354   0.591 -0.2530  0.0300  0.1744
30487W        W46561   4.186   0.876  14.042 -0.0335 -0.0633 -0.0866
30488W        W46562   6.381  18.195   0.535  0.0115  0.0621 -0.1918
30489W        W46563  14.573   4.941  12.409  0.2046  0.3147  0.3919
30490W        W46564  13.157  14.144   4.454 -0.1382  0.0191 -0.0879
30491W        W46565   4.302  14.991  16.134 -0.1570 -0.2200 -0.2200
30492W        W46566  14.018   5.567  12.837 -0.0583 -0.0079 -0.2159
30493W        W46567   7.682  16.345   1.506 -0.1543 -0.1721 -0.2193
30494W        W46568  17.168   6.436   2.767 -0.2734  0.2890  0.0607
30495W        W46569  15.740  11.891   5.022  0.1354 -0.1837  0.1745
30496W        W46570  15.268  16.009   0.826 -0.4837 -0.3423 -0.0374
30497W        W46571   2.399   8.205  14.051 -0.1168 -0.2140 -0.1793
30498W        W46572  15.971  12.095   2.853  0.1734  0.2235  0.3384
30499W        W46573   6.965   1.105   1.976 -0.0124 -0.0150  0.0596
30500W        W46574   8.173  16.607  15.665  0.0138  0.1886 -0.0804
30501W        W46575   8.042  16.838  13.101  0.3443 -0.0612 -0.1258
30502W        W46576   2.358   6.776   0.311 -0.2691  0.0938  0.2032
30503W        W46577   6.986   7.914  11.884  0.1975  0.1002  0.0811
30504W        W46578  17.741   8.117  11.412  0.1066 -0.0818 -0.0682
30505W        W46579   8.141  11.561  11.859  0.0549  0.0922  0.0521
30506W        W46580  16.133   3.158  15.179 -0.0866  0.0141  0.1387
30507W        W46581   8.738   3.687  13.056  0.2155 -0.1547  0.5082
30508W        W46582   4.099   3.577   4.402 -0.0766  0.3942  0.1319
30509W        W46583  15.217   3.847   1.045 -0.2976 -0.2185 -0.0000
30510W        W46584   2.632   0.034   2.279  0.0971  0.0949  0.0518
30511W        W46585  12.152  16.387   1.286 -0.0100  0.0655  0.1570
30512W        W46586   9.366   6.566  16.004 -0.3030  0.0423 -0.1236
30513W        W46587  15.519   6.827  13.109  0.3410  0.3863  0.1493
30514W        W46588   4.441  11.573  11.642  0.0371  0.2343 -0.1676
30515W        W46589   2.662   1.267  14.378  0.3114 -0.3092  0.1141
30516W        W46590  15.203   3.652   0.126 -0.0449  0.2015 -0.1848
30517W        W46591   4.539   4.933  13.262  0.3404  0.0224 -0.0608
30518W        W46592   4.734   6.569   4.682 -0.0925  0.1424 -0.4754
30519W        W46593   8.125  11.167   4.959 -0.2832 -0.3513 -0.2103
30520W        W46594   5.475   2.741  15.882 -0.0047 -0.1630 -0.1694
30521W        W46595   8.099   9.533   1.228 -0.0620 -0.1148  0.2007
30522W        W46596   8.533   1.210  16.130 -0.1337 -0.4336 -0.0024
30523W        W46597  17.587   7.876   4.402  0.1543  0.0355 -0.0066
30524W        W46598   1.389  10.464   4.404 -0.0580 -0.0190  0.0577
30525W        W46599   8.135  15.318   0.113  0.2883  0.0030  0.1527
30526W        W46600  14.398  16.896   3.028  0.2840  0.1339  0.0848
30527W        W46601   7.082  11.265  15.946 -0.1549 -0.0375  0.1109
30528W        W46602  11.567  11.256  10.443  0.1921  0.0364 -0.1038
30529W        W46603  14.724  16.992  12.642  0.1106 -0.0723  0.1352
30530W        W46604   9.342   7.949  14.709 -0.2996 -0.0283  0.1505
30531W        W46605   7.932   3.075   3.154  0.2036  0.1132  0.2403
30532W        W46606   6.302  17.797   1.818 -0.3038 -0.0732 -0.0034
30533W        W46607   7.057  13.864   0.663  0.3790  0.2401  0.0652
30534W        W46608   6.470   0.206  14.378 -0.1264  0.0615  0.1188
30535W        W46609   3.720   7.432   0.650  0.0036 -0.0423 -0.0631
30536W        W46610   1.529  12.617   2.667  0.3045  0.0651  0.0932
30537W        W46611   3.612   8.328   4.561  0.1125 -0.0095  0.0447
30538W        W46612   6.373   5.234  15.698  0.0121 -0.2170  0.0377
30539W        W46613  12.601  16.807   0.546 -0.0249 -0.0940  0.1757
30540W        W46614   1.395  14.825   0.143  0.3148 -0.0171 -0.1598
30541W        W46615  14.819   0.666  14.162  0.1652 -0.0931 -0.0701
30542W        W46616   7.488  17.012  13.830 -0.0855 -0.1252  0.0329
30543W        W46617   5.701  13.327  14.345 -0.1290 -0.1126 -0.0894
30544W        W46618   5.174   7.855   1.779  0.2021 -0.0396  0.2546
30545W        W46619  13.802   8.891  12.963  0.0171  0.2145  0.0781
30546W        W46620   2.127  15.655  11.768  0.3588 -0.2345 -0.3289
30547W        W46621  11.808  12.836   4.984 -0.1209  0.1808 -0.0833
30548W        W46622   5.024  12.630   0.488  0.2135  0.2269 -0.2682
30549W        W46623   8.655   6.287  15.517 -0.1198 -0.3672 -0.2483
30550W        W46624   2.162  12.699  12.792  0.0585  0.0377  0.1628
30551W        W46625   5.860   0.120   2.520 -0.1786  0.0730 -0.0561
30552W        W46626   3.025  12.131   0.504 -0.2936 -0.1370 -0.1560
30553W        W46627   3.567  16.962  15.470 -0.1158  0.3273  0.0821
30554W        W46628   8.087   0.162  12.791  0.2450 -0.0170 -0.2812
30555W        W46629  17.590  11.052  15.239  0.0377  0.0475  0.0471
30556W        W46630   4.651  10.292   3.523 -0.0991  0.0908 -0.1762
30557W        W46631   7.914   5.379   3.233 -0.0861 -0.0531 -0.2913
30558W        W46632   4.849  12.608   5.866  0.0370  0.1782  0.0713
30559W        W46633  13.734   9.181  13.914  0.2393  0.2358  0.3012
30560W        W46634  10.687   3.630   0.756 -0.1563  0.1869  0.1484
30561W        W46635  11.306  12.743   2.986  0.0914 -0.1555  0.2927
30562W        W46636   0.097  17.024  13.621  0.0099 -0.1720  0.0715
30563W        W46637   7.963   5.721   2.347  0.1400 -0.0052  0.0874
30564W        W46638   9.609   1.460   4.989 -0.3276  0.0670 -0.2161
30565W        W46639  12.082   4.628  13.069  0.2123 -0.0777 -0.0845
30566W        W46640  10.591   2.979  16.189 -0.1472  0.0250  0.1231
30567W        W46641   3.657  12.078  16.148  0.0644  0.1606 -0.1625
30568W        W46642   7.960   0.317   1.034 -0.5893  0.1368 -0.1974
30569W        W46643   2.529  11.676   3.865  0.3494  0.1128 -0.0742
30570W        W46644  14.302   7.504   2.402  0.0198 -0.3821 -0.0231
30571W        W46645  10.606   8.503   4.771  0.1257  0.2107  0.0327
30572W        W46646   7.824   6.775  13.177 -0.1334 -0.1994  0.0381
30573W        W46647  11.383  12.672   1.063 -0.0282  0.2913  0.0339
30574W        W46648   7.312  11.891   1.772 -0.1174  0.0720 -0.0250
30575W        W46649   9.847  16.931   3.270 -0.1914  0.0535  0.0641
30576W        W46650  16.551   1.070   4.188  0.1805 -0.2440  0.0665
30577W        W46651  14.149   1.509  12.024 -0.2182  0.2819 -0.0287
30578W        W46652   4.650   0.667  13.807  0.1689  0.0360  0.0827
30579W        W46653  10.259   3.333  15.198  0.3121  0.1096 -0.3100
30580W        W46654  11.321   5.191  13.329 -0.1380 -0.0277  0.2101
30581W        W46655  16.319  10.308  12.414 -0.0905 -0.1953  0.0596
30582W        W46656  14.653   5.462  12.258  0.0831 -0.3940  0.2866
30583W        W46657   4.229  12.830   5.345 -0.0532  0.1018 -0.0194
30584W        W46658   5.906   9.615  13.401  0.0860 -0.0060 -0.2040
30585W        W46659   0.027   0.374  12.380 -0.0430 -0.1997 -0.1952
30586W        W46660  11.033   8.513   3.315  0.2157 -0.4399 -0.2763
30587W        W46661   2.401  13.778   5.174  0.0579 -0.2205  0.3294
30588W        W46662   4.885   0.855   0.546 -0.0326 -0.1649  0.2875
30589W        W46663   9.867  12.663  13.524 -0.1948  0.0219  0.1200
30590W        W46664  14.732  10.439   0.146  0.3207  0.2456  0.0575
30591W        W46665  15.482   2.835  12.859 -0.0802  0.0255  0.2202
30592W        W46666  17.488   6.119   4.538 -0.0493 -0.1530 -0.2739
30593W        W46667   5.535   3.634   4.470 -0.2858  0.1189 -0.0681
30594W        W46668  11.055  11.015  14.662 -0.0713 -0.3294  0.1759
30595W        W46669  11.273  14.021   5.489  0.0457  0.1008  0.1961
30596W        W46670   9.213   8.122   3.314  0.4465 -0.1047  0.0019
30597W        W46671  15.488  14.450  13.216 -0.0767 -0.1608 -0.1539
30598W        W46672  14.541   3.317   1.364 -0.0933  0.1823 -0.1489
30599W        W46673  14.503   3.821  15.281  0.1404 -0.0799  0.0434
30600W        W46674   4.436   6.677   4.293 -0.4349  0.0209 -0.1206
30601W        W46675  15.159  11.053   1.851  0.2700 -0.0412 -0.0123
30602W        W46676   6.845   7.676   3.768  0.1192  0.2148 -0.2381
30603W        W46677   0.283  11.542  12.462 -0.2877 -0.0092 -0.3301
30604W        W46678   2.283  12.193   5.548 -0.0781 -0.1558  0.2097
30605W        W46679  17.657   9.167  11.886 -0.4184  0.1491  0.0426
30606W        W46680   2.458   9.037   3.152  0.2116 -0.0952 -0.0103
30607W        W46681   5.783  13.547  13.330 -0.0389  0.1824 -0.1886
30608W        W46682  17.425  14.784  14.839 -0.0254 -0.1659 -0.0922
30609W        W46683   0.993   2.742  14.669  0.1004  0.1489 -0.0391
30610W        W46684  12.715  14.503  15.009 -0.1230  0.1045  0.1446
30611W        W46685  14.966   6.566  14.147 -0.3109  0.0708 -0.0364
30612W        W46686   4.575   9.385  14.007 -0.2507  0.0339  0.0955
30613W        W46687  12.801  10.432   1.293 -0.0388 -0.1141 -0.0988
30614W        W46688   2.659  14.583  15.853  0.1218  0.2607  0.2108
30615W        W46689  14.849  12.138   5.598  0.2120  0.0404  0.0106
30616W        W46690  18.080   5.559  15.638 -0.2270  0.0469 -0.0082
30617W        W46691  15.245  16.074  14.175 -0.1952  0.2008 -0.1912
30618W        W46692   2.493   7.045  11.489  0.0015 -0.0117  0.0183
30619W        W46693   5.738  11.819   4.176 -0.0430  0.3865 -0.3504
30620W        W46694  17.649  17.846  13.079  0.0331  0.0559  0.0906
30621W        W46695   9.402   5.722   2.100  0.0778  0.1801 -0.2303
30622W        W46696   8.399   0.373  13.678  0.2042 -0.3079 -0.2132
30623W        W46697   1.872  11.691  12.520 -0.2122  0.0068 -0.2431
30624W        W46698  11.625   5.822   4.893 -0.0699  0.0424 -0.2349
30625W        W46699  15.402  12.602   0.965 -0.2559 -0.5433 -0.2339
30626W        W46700   1.327  11.663  13.537 -0.0236  0.1407 -0.3498
30627W        W46701   8.210   8.862  13.549  0.2806 -0.2468 -0.0747
30628W        W46702  13.260   9.157  11.858  0.0011 -0.2502 -0.0983
30629W        W46703  18.170  13.219   1.259 -0.0086  0.2544  0.0317
30630W        W46704   1.705  11.506   4.350 -0.1249 -0.2231  0.1107
30631W        W46705  11.125  11.121   2.507 -0.1013 -0.0679 -0.2674
30632W        W46706  12.204  12.568  13.473 -0.1303 -0.1424 -0.1293
30633W        W46707  16.498   5.009   4.149  0.3519  0.1746 -0.2925
30634W        W46708   1.590   2.509   3.219  0.1118 -0.1067 -0.0077
30635W        W46709  10.122   8.337   4.874  0.0547  0.2500 -0.0055
30636W        W46710   7.712  11.378   5.688  0.0626 -0.2184 -0.1451
30637W        W46711  12.893   1.923  13.960  0.0924  0.1542 -0.0937
30638W        W46712   3.253  11.246  14.566 -0.0334 -0.1188  0.3400
30639W        W46713   1.061   1.675  14.411 -0.0915  0.0168  0.0320
30640W        W46714   5.225  14.189  13.466 -0.0054 -0.0716  0.1438
30641W        W46715  15.084  11.620   3.330 -0.2189  0.1179  0.1359
30642W        W46716  13.134  14.112   2.245 -0.1279  0.1890  0.1786
30643W        W46717   8.324   9.161   3.861 -0.2370 -0.2618 -0.0642
30644W        W46718   1.924  10.018  10.892 -0.0617 -0.0958  0.1672
30645W        W46719  12.194   7.749  14.024  0.0096 -0.1606  0.0283
30646W        W46720  10.300   9.960   4.166 -0.2109  0.0543 -0.0718
30647W        W46721  10.516   9.970  13.044  0.0589  0.0187 -0.1006
30648W        W46722  12.432  13.203  11.693 -0.0754 -0.2174 -0.1290
30649W        W46723  17.614   6.008  13.849 -0.1320 -0.2310 -0.1958
30650W        W46724   8.914   3.102  11.712 -0.0012 -0.0158  0.3816
30651W        W46725   5.380  16.522   6.333 -0.1440 -0.1341 -0.0506
30652W        W46726  14.715   7.190   1.652 -0.2360 -0.1518 -0.2378
30653W        W46727  12.711   5.976  15.917  0.0599 -0.1566  0.1866
30654W        W46728   4.919   6.120   3.258 -0.0728  0.3857 -0.1242
30655W        W46729   7.279   8.835   0.986 -0.2206  0.0832  0.1258
30656W        W46730  13.744   1.306   3.397  0.1962 -0.0863  0.0231
30657W        W46731   1.657  12.292  15.759 -0.1416 -0.3155  0.0208
30658W        W46732  18.334  15.566  13.060 -0.2346  0.1879  0.1526
30659W        W46733  15.652   5.244   4.105 -0.0672 -0.0269  0.0329
30660W        W46734   0.756  13.235   3.450 -0.0056  0.0488  0.2499
30661W        W46735   0.312   9.760  12.941 -0.0144  0.3712 -0.2290
30662W        W46736   9.036  10.825   4.932 -0.0258 -0.1527  0.3090
30663W        W46737   7.968  14.105  13.580  0.1311 -0.0421  0.4067
30664W        W46738  14.812  16.808  12.100 -0.1641  0.0232 -0.1867
30665W        W46739  14.445  14.231   4.197 -0.5267  0.0860  0.2657
30666W        W46740   3.060  17.442   3.869 -0.1074 -0.2407 -0.1102
30667W        W46741  13.493   7.028   1.954  0.0500  0.2179  0.1123
30668W        W46742  17.056  10.178   3.177  0.1076 -0.1303  0.0687
30669W        W46743   7.967   7.336  15.082  0.0177  0.2362 -0.2747
30670W        W46744   1.050   5.753   3.354  0.0390  0.1515 -0.1596
30671W        W46745   6.955  15.955   3.370  0.4820 -0.1785  0.1421
30672W        W46746   1.019  12.185  12.427  0.0355  0.1403 -0.0243
30673W        W46747  16.187   6.304  16.204  0.1235  0.0703  0.3268
30674W        W46748  12.136   4.010  10.884 -0.0355 -0.1114 -0.0690
30675W        W46749   8.370  16.597  14.832 -0.0313  0.4003  0.1231
30676W        W46750  14.256   6.748  14.436 -0.0508 -0.0926  0.3307
30677W        W46751   7.616  13.833   0.726  0.1499 -0.2164  0.2795
30678W        W46752   5.614  15.085  11.488  0.0046  0.0341  0.0775
30679W        W46753   8.369   6.833  12.239 -0.0936 -0.0660  0.2880
30680W        W46754   3.575  16.664  12.601 -0.1729 -0.0823  0.2156
30681W        W46755  15.283  14.451  12.690 -0.1094 -0.0443  0.0470
30682W        W46756  15.094   5.176   0.119  0.1536  0.2895  0.0223
30683W        W46757   6.129   3.792  11.362  0.0190  0.3033  0.0572
30684W        W46758  11.805  12.122   5.670  0.0906  0.0943  0.2051
30685W        W46759  11.243  10.688  12.162  0.1339 -0.1366 -0.0566
30686W        W46760   6.627   9.072  14.761 -0.0904 -0.1298  0.0539
30687W        W46761  12.681  17.133  12.532  0.3140 -0.2351 -0.1178
30688W        W46762  13.778   9.950  12.123  0.1626 -0.0208  0.2050
30689W        W46763   1.787   4.831   2.064  0.0061  0.1600 -0.2485
30690W        W46764   3.331   5.813  12.403  0.3077 -0.0577  0.1965
30691W        W46765  10.374   3.454   2.957  0.0266  0.0859 -0.0436
30692W        W46766  17.779   1.846   5.321 -0.0089 -0.2580 -0.0171
30693W        W46767  10.242  17.373  13.284 -0.1331  0.0154 -0.1963
30694W        W46768   6.787   6.031   6.204 -0.1347 -0.0249 -0.1357
30695W        W46769  13.876   5.896   3.182  0.1099 -0.0077 -0.3866
30696W        W46770  18.307  15.281   5.873  0.2938  0.0236 -0.5782
30697W        W46771  14.185   9.269   5.001  0.0240  0.0252  0.0954
30698W        W46772  10.694  17.369  15.706  0.0784 -0.2163  0.0230
30699W        W46773  11.056   5.638  13.557  0.1564  0.2778  0.2237
30700W        W46774   3.846   1.567  13.542 -0.1088 -0.3023  0.1449
30701W        W46775  13.497   2.565  13.454 -0.3666 -0.2270 -0.1983
30702W        W46776   1.918   8.290  13.324 -0.2809  0.0887 -0.1125
30703W        W46777   6.431  11.854  13.310  0.3482 -0.2240 -0.2477
30704W        W46778   3.761  15.573  13.989 -0.0790 -0.1047 -0.2362
30705W        W46779  12.963   6.293   2.416  0.1586  0.2784  0.2144
30706W        W46780   8.131   8.013  13.267  0.1555 -0.1506 -0.2472
30707W        W46781   8.630   3.599   2.789 -0.2838  0.0569  0.1148
30708W        W46782   0.139   6.292  14.637  0.0356 -0.0055  0.0941
30709W        W46783   5.522   8.109   4.293 -0.0010 -0.1891 -0.2979
30710W        W46784   6.143  17.737   1.321 -0.1004 -0.1094  0.1259
30711W        W46785   6.114  13.771   3.724 -0.0369 -0.0904  0.0330
30712W        W46786  16.815  13.065   4.198 -0.0997 -0.2542 -0.0759
30713W        W46787   8.733  18.153   1.505  0.0913 -0.1150 -0.0402
30714W        W46788   3.983  12.402  14.753  0.4924  0.0726 -0.1836
30715W        W46789  13.533   4.276  14.832 -0.1299 -0.0283 -0.1745
30716W        W46790   3.031   6.258  16.042  0.1150 -0.1982  0.1198
30717W        W46791  17.138  17.097  14.167  0.0822 -0.1254 -0.2073
30718W        W46792   4.187   5.220  15.756  0.2285  0.0757  0.1010
30719W        W46793   5.885   4.336   1.305  0.0745  0.0302 -0.2498
30720W        W46794  11.688  17.617  13.724  0.1007 -0.0063  0.0596
30721W        W46795   9.110   1.005  11.415  0.1709 -0.2541  0.0110
30722W        W46796  15.856  17.129  14.159  0.0012 -0.3525  0.3896
30723W        W46797  11.820   0.363   4.537  0.0674 -0.0097 -0.1692
30724W        W46798   9.874  17.715   2.103 -0.0450  0.1255  0.6891
30725W        W46799  17.193  12.064   0.201 -0.2626  0.0562  0.0816
30726W        W46800  17.235  16.623  14.906  0.2498  0.0482  0.1333
30727W        W46801   4.568  17.573   3.182  0.0383  0.1268 -0.2858
30728W        W46802   3.028  17.864   0.108 -0.2195  0.0661 -0.3468
30729W        W46803  14.391  17.808   4.237 -0.2265 -0.0239  0.0308
30730W        W46804   4.871  12.238   0.818 -0.4096  0.0515  0.1161
30731W        W46805   0.650  18.074   4.194 -0.1477  0.0782  0.3223
30732W        W46806   8.706  10.290  13.118  0.1226  0.2058  0.1061
30733W        W46807  18.278   9.432  12.866 -0.1210  0.1822  0.0962
30734W        W46808   8.042   9.264   4.277  0.1445  0.1513 -0.1089
30735W        W46809  17.182  12.597  12.240 -0.0513 -0.1093  0.1360
30736W        W46810   4.703   8.670  15.426  0.0413 -0.1945 -0.2328
30737W        W46811   2.780  12.308   0.066  0.0341 -0.0833  0.0634
30738W        W46812   8.462  11.953  13.999 -0.1077 -0.2015  0.0777
30739W        W46813   5.005  15.548   0.353  0.2033  0.0832 -0.2217
30740W        W46814  10.138   8.062   0.619 -0.0951 -0.0790 -0.4522
30741W        W46815   6.027  17.344   1.571  0.2904  0.0427 -0.0167
30742W        W46816   0.819  14.108   4.944 -0.1064  0.1148 -0.1382
30743W        W46817  14.756   2.704  16.077 -0.0942  0.0287 -0.1212
30744W        W46818  10.713   3.127   1.988  0.1492  0.0487  0.1347
30745W        W46819  18.175   9.847  13.137  0.1835 -0.0419 -0.0504
30746W        W46820  10.196   3.616   3.839 -0.1248  0.2174 -0.0835
30747W        W46821  16.226  17.214   1.156 -0.0639 -0.2455 -0.0439
30748W        W46822   2.657   7.832  12.785 -0.1088  0.1505  0.0146
30749W        W46823  16.234   8.860  12.769  0.1686  0.0940 -0.1097
30750W        W46824   0.248  11.016  13.164 -0.0339  0.1011 -0.0442
30751W        W46825  17.659   4.019   4.106 -0.1454 -0.1402  0.0014
30752W        W46826   7.768  17.687   1.739  0.3158 -0.2152 -0.0595
30753W        W46827  12.538   0.454   1.890 -0.3383  0.0438  0.1793
30754W        W46828  16.666   5.870   5.250 -0.1726  0.1652 -0.1637
30755W        W46829   6.655   6.475  11.709  0.0522 -0.1649  0.0027
30756W        W46830   6.825   7.710   0.456  0.1890 -0.0224  0.0611
30757W        W46831   8.718  10.386  16.238  0.0982  0.1044 -0.3433
30758W        W46832   6.280   5.773  13.269  0.0581 -0.2400  0.2993
30759W        W46833   2.277   0.499  11.761  0.0748 -0.2647  0.0278
30760W        W46834  13.132  10.191   0.964  0.2529  0.0569 -0.1222
30761W        W46835   8.153  17.374   0.526  0.0904 -0.2332 -0.0769
30762W        W46836  16.534  16.277   1.349  0.1842 -0.0436 -0.0855
30763W        W46837  14.586   7.845  12.957 -0.2223  0.2709  0.0400
30764W        W46838  11.259   5.811   4.026 -0.0991 -0.0856  0.2303
30765W        W46839   6.053  16.495   0.116  0.0739  0.2175 -0.2702
30766W        W46840  15.730   2.758  13.948  0.1297 -0.1872 -0.1979
30767W        W46841   3.554  12.990  11.302 -0.0939  0.0396 -0.1100
30768W        W46842   0.183  12.826   5.449 -0.1807  0.3887 -0.0226
30769W        W46843   0.269   6.492  13.012 -0.0887 -0.4622 -0.0646
30770W        W46844  14.173  16.543  14.941  0.1488  0.0637  0.1292
30771W        W46845  14.201   9.128   5.476 -0.1549  0.2984 -0.0730
30772W        W46846  17.445   8.327   3.496 -0.3295 -0.2371  0.3952
30773W        W46847   4.487  13.678   1.200 -0.0040 -0.0946 -0.1191
30774W        W46848  14.913  18.001  11.856 -0.1508 -0.0667  0.1215
30775W        W46849   4.275  14.790   1.261 -0.3012  0.2391  0.1528
30776W        W46850   1.384   0.431  15.489 -0.2478 -0.1118 -0.0617
30777W        W46851  15.499   0.282   1.173  0.0201  0.1916 -0.0015
30778W        W46852  15.507  15.927   3.993 -0.1533 -0.0670 -0.0701
30779W        W46853  10.176   4.512   2.623 -0.1656 -0.0777  0.0975
30780W        W46854  15.348  16.963   0.936 -0.2167  0.0279  0.0354
30781W        W46855  15.429   7.406   1.081  0.1014 -0.2543 -0.0690
30782W        W46856  17.658  13.379   1.526 -0.4644 -0.1806  0.0479
30783W        W46857  15.016   1.711  13.179  0.0038  0.0403  0.0024
30784W        W46858   8.961   2.526   5.240 -0.3715  0.1286  0.1144
30785W        W46859   6.328  13.830   2.380 -0.1020 -0.2083  0.0122
30786W        W46860   6.670   6.511   1.473 -0.0233  0.3937  0.1301
30787W        W46861   3.149  11.504  12.927 -0.3653 -0.0202 -0.1144
30788W        W46862   2.959  11.836   4.118  0.0824  0.0533  0.0826
30789W        W46863   2.415  11.036   4.463  0.2222 -0.1257 -0.1056
30790W        W46864   9.718   5.481  13.796 -0.2203 -0.0578  0.0102
30791W        W46865   1.673   7.516   2.919 -0.0669  0.0314  0.3021
30792W        W46866  11.723   8.266   0.045 -0.1447  0.0465  0.0415
30793W        W46867   9.108   1.139  14.926  0.3793  0.1034  0.0079
30794W        W46868  12.071   7.851   0.032 -0.0332 -0.1628 -0.0006
30795W        W46869  12.457  12.497   0.113  0.0298  0.1096  0.1829
30796W        W46870   4.631   5.969  15.427 -0.1990 -0.1894  0.2949
30797W        W46871   2.363   4.312  12.494  0.0561 -0.4209 -0.2154
30798W        W46872   7.689  12.747   0.160  0.2982  0.2279 -0.1249
30799W        W46873   9.096  13.085   5.947 -0.2942  0.1753  0.0909
30800W        W46874   5.583  13.443   5.028 -0.0889 -0.2785 -0.6279
30801W        W46875  10.686   8.258   3.560 -0.0404 -0.1945  0.1586
30802W        W46876   0.645  10.389   2.060  0.0547  0.1223 -0.1070
30803W        W46877   7.081  10.773   2.111 -0.0798  0.2551  0.2306
30804W        W46878   8.857  17.884   3.876  0.1566  0.2993  0.0788
30805W        W46879  14.430   2.086  12.849  0.0837  0.1189  0.0060
30806W        W46880  17.700  18.253  15.967  0.0974  0.0729  0.2101
30807W        W46881   8.174  16.995   2.559  0.0604  0.3398 -0.2552
30808W        W46882   9.687   2.638   4.123  0.0331  0.1165  0.1859
30809W        W46883   7.131   6.838   1.499 -0.1175  0.2842  0.0587
30810W        W46884   9.089  10.503  14.522  0.0285  0.0616  0.0724
30811W        W46885  10.259   0.402  15.973  0.3606  0.2726 -0.1426
30812W        W46886  17.637  14.312  15.837 -0.0669  0.2110  0.2051
30813W        W46887  15.340   0.564  13.319 -0.1152  0.3239  0.2974
30814W        W46888  13.583  17.171   1.535  0.2241  0.5315  0.1020
30815W        W46889   5.808   0.492   5.169  0.1277 -0.0056  0.0634
30816W        W46890  17.650   1.379   5.250  0.2325 -0.2785 -0.1063
30817W        W46891   2.051  17.269   5.633  0.0423 -0.1353  0.0734
30818W        W46892   4.850   2.886   3.365  0.2236 -0.1071  0.3020
30819W        W46893  14.536   5.553  13.488 -0.0265  0.1239  0.3025
30820W        W46894   8.099  11.509   5.294 -0.1012 -0.0443  0.0117
30821W        W46895   5.956  11.036   0.227  0.2775  0.1923  0.0142
30822W        W46896   9.675   2.039   4.094  0.1544 -0.0320 -0.1029
30823W        W46897  10.465   3.965  14.295 -0.2294  0.1546  0.3781
30824W        W46898   7.992   1.492  14.166 -0.0840  0.1107 -0.2351
30825W        W46899   3.695  11.077  14.691 -0.0497 -0.0634 -0.2438
30826W        W46900  12.098   5.577  14.341  0.1994 -0.0195 -0.1973
30827W        W46901  17.557   4.745  13.239 -0.0078  0.1704  0.1739
30828W        W46902   8.688  15.916  12.361  0.2804 -0.0453  0.1692
30829W        W46903  14.242   8.993   2.908 -0.2880 -0.0041 -0.0996
30830W        W46904   0.878  12.364   1.794  0.1310 -0.2624  0.0789
30831W        W46905  11.487   2.463  14.139  0.0965 -0.1013  0.1428
30832W        W46906   2.168   2.420  12.192  0.1353 -0.3237 -0.4419
30833W        W46907  12.126  17.765   3.272 -0.1418 -0.3296  0.0452
30834W        W46908  14.099  15.994   3.273 -0.0117 -0.0289 -0.0369
30835W        W46909  15.922   5.023   5.771  0.3178 -0.1193  0.1818
30836W        W46910   1.120  15.834   1.518 -0.1349 -0.0992 -0.0342
30837W        W46911  16.728  14.843   3.149  0.3963 -0.0661  0.2137
30838W        W46912  15.953   4.795  12.948  0.1288 -0.1285  0.2692
30839W        W46913   0.789   5.917  14.030  0.3042 -0.2041 -0.0424
30840W        W46914   0.600   7.960  12.566  0.0141 -0.4542  0.1918
30841W        W46915   9.448   2.136  15.809  0.0521 -0.0345  0.0124
30842W        W46916  14.694  11.084   1.563 -0.2307  0.0415 -0.0308
30843W        W46917  11.938  14.791   2.273  0.0315  0.1062  0.2239
30844W        W46918   1.488   3.074  14.119  0.3277 -0.0445 -0.4581
30845W        W46919  11.342   1.859  16.150  0.3635 -0.1861  0.0287
30846W        W46920   3.855  11.018   4.487 -0.0267  0.3412 -0.0953
30847W        W46921  15.551  14.020   3.128 -0.0552 -0.3435 -0.4280
30848W        W46922  18.133   0.439   2.346  0.1917 -0.1067  0.0392
30849W        W46923   2.771   3.043   1.483  0.0577 -0.0789  0.0980
30850W        W46924   7.559   8.474   1.151 -0.1111  0.2246 -0.2377
30851W        W46925  14.713  12.855   5.477  0.1581 -0.0968  0.0899
30852W        W46926  11.042   1.226  14.825  0.1748  0.2737  0.0579
30853W        W46927  14.113   1.396   5.605  0.1182  0.1625  0.0113
30854W        W46928   5.665   1.002   1.359 -0.1206  0.0199  0.0204
30855W        W46929   3.563  12.516  12.380  0.1308  0.2874 -0.1469
30856W        W46930  10.268  12.988   2.724 -0.0164 -0.0284  0.4867
30857W        W46931   7.257   3.458   3.777  0.0766 -0.0840 -0.1229
30858W        W46932  10.091   4.811   3.219  0.4771 -0.2758 -0.3726
30859W        W46933  15.208  15.041   4.472  0.1172 -0.1919 -0.0428
30860W        W46934   9.619   4.506   1.168 -0.1957  0.3535 -0.3901
30861W        W46935  14.348  13.240   0.444  0.3004  0.2594  0.0720
30862W        W46936   1.778   5.583   1.500  0.0638 -0.4256  0.0786
30863W        W46937   4.332   7.478   5.336 -0.0566  0.2488 -0.0864
30864W        W46938   0.785   5.813   3.855 -0.1207 -0.4159 -0.0187
30865W        W46939   0.866   5.393   4.154  0.2288  0.0134  0.1740
30866W        W46940  15.878  15.628   2.901 -0.1071 -0.1972 -0.4668
30867W        W46941   3.063  14.768   1.799 -0.1799 -0.0616 -0.0120
30868W        W46942   8.744  12.830   1.824  0.0434  0.1169 -0.0134
30869W        W46943   9.005   1.888   0.483  0.0670  0.0494 -0.0486
30870W        W46944   8.675  18.331   2.849  0.0159 -0.0515  0.5023
30871W        W46945   8.591  17.272  13.630 -0.0314 -0.2186 -0.0165
30872W        W46946   1.314  16.977  15.032  0.0487  0.0536 -0.3746
30873W        W46947  15.392  10.792   2.990  0.0238 -0.0771 -0.1075
30874W        W46948  11.188   5.573  12.157 -0.1287 -0.0382  0.3412
30875W        W46949   4.885   3.419  15.265  0.1207 -0.0180 -0.1703
30876W        W46950  15.745  16.328   2.523  0.1300  0.1753  0.0453
30877W        W46951   5.849   8.584  16.174  0.1129 -0.1230  0.0179
30878W        W46952   0.920  10.448   4.237  0.2996  0.3109 -0.3348
30879W        W46953  13.522  11.442   3.646 -0.0193 -0.0396 -0.0674
30880W        W46954  15.837   8.222   3.073 -0.1666  0.2571  0.1842
30881W        W46955  13.581   7.151   5.258  0.1276 -0.4425 -0.1181
30882W        W46956   7.033   4.479  13.150 -0.4973 -0.0081 -0.3960
30883W        W46957   6.782  18.225  14.948 -0.1356 -0.2114 -0.3392
30884W        W46958  13.020  15.484   2.589  0.0274  0.1160  0.1612
30885W        W46959  16.033  11.019   1.882  0.0407 -0.0676  0.1304
30886W        W46960  11.135  10.535  14.783  0.2481 -0.2573 -0.0234
30887W        W46961  10.756   1.355  14.226 -0.1195  0.2899 -0.0601
30888W        W46962  15.919  11.267   4.069  0.0956  0.0580  0.0511
30889W        W46963   9.553   1.274   1.031 -0.0994  0.4464  0.2508
30890W        W46964   4.466   9.711  15.342 -0.0692 -0.0208  0.0573
30891W        W46965   6.577   3.036  15.772  0.2609  0.0142 -0.1701
30892W        W46966   0.398  12.601  15.916 -0.0742  0.1392  0.2620
30893W        W46967   0.223   0.466   0.363  0.1190  0.0306  0.1431
30894W        W46968   0.754   9.548   5.056 -0.0568 -0.0279  0.1241
30895W        W46969  16.220  10.431  15.096  0.1607  0.3111 -0.1234
30896W        W46970  11.308   1.523   3.532  0.0170  0.0342  0.3710
30897W        W46971   2.248  18.261  14.040  0.1001  0.1077 -0.0563
30898W        W46972   2.404   5.470  12.187 -0.1125 -0.2690  0.2256
30899W        W46973   3.768   9.817   1.831 -0.1817  0.0280  0.0228
30900W        W46974   9.842  15.698  11.115  0.1252  0.2228 -0.0818
30901W        W46975   4.837  12.287   0.189  0.0364 -0.4878  0.1717
30902W        W46976  18.334  18.225  13.086 -0.2965 -0.0669 -0.0350
30903W        W46977   6.657  11.697   5.947  0.1722  0.1576 -0.0549
30904W        W46978  17.595  11.720   5.230  0.1699 -0.1470  0.1201
30905W        W46979  15.381   6.274  15.949 -0.0114 -0.2310 -0.2925
30906W        W46980  16.101  10.913   3.759  0.0485  0.1141  0.0070
30907W        W46981   5.587  17.983   1.246 -0.0113 -0.0076 -0.0949
30908W        W46982   2.985  12.594  15.727  0.1655  0.3489  0.0158
30909W        W46983   5.928  18.033   3.280  0.1605 -0.6288  0.0023
30910W        W46984  17.579  15.181   2.239 -0.2475  0.0605  0.1222
30911W        W46985   7.327   9.222  13.839 -0.0387  0.2207  0.2900
30912W        W46986  16.068  14.243   1.224  0.1922  0.1820  0.1310
30913W        W46987   3.158   9.791   4.617 -0.1236  0.2704  0.2119
30914W        W46988   2.680  12.791   4.109 -0.1722  0.2723  0.0797
30915W        W46989  10.448  16.893  11.915  0.0930 -0.0485  0.1842
30916W        W46990  16.435  17.177  12.910  0.0698  0.1660 -0.0776
30917W        W46991   6.447   3.246   3.557 -0.2071  0.0936 -0.1986
30918W        W46992  16.284   3.424   2.208  0.3270 -0.2172  0.1187
30919W        W46993  10.748   2.064   0.792 -0.0408 -0.0053 -0.2055
30920W        W46994  12.620  14.996  13.594 -0.1883  0.3465 -0.2329
30921W        W46995   4.430  16.347   3.195 -0.1336  0.2907 -0.0727
30922W        W46996   2.443   1.529   1.560 -0.0679 -0.0381 -0.0398
30923W        W46997   1.438   6.890   5.790 -0.3753  0.1118 -0.0632
30924W        W46998   9.330   9.985  15.745 -0.0405  0.0267 -0.0283
30925W        W46999   6.958   4.015  16.353  0.0470  0.1745  0.1862
30926W        W47000   8.226  17.389   4.855  0.1531 -0.0826 -0.1277
30927W        W47001  17.101  12.828   0.485 -0.2630  0.1324 -0.3980
30928W        W47002   2.145  11.735   3.550 -0.2372  0.0962 -0.2824
30929W        W47003   8.391   1.475  13.770  0.1109  0.0038  0.2843
30930W        W47004  15.554  13.550   3.805  0.0290  0.1971  0.1356
30931W        W47005   2.699  11.320  12.391 -0.0314  0.0032 -0.1642
30932W        W47006   4.906   5.519   3.930 -0.3759  0.1265 -0.0788
30933W        W47007  14.543   4.688   0.839  0.1611 -0.2109  0.2862
30934W        W47008   9.574   4.484   1.829  0.4974  0.0598 -0.0760
30935W        W47009  12.081  16.024   0.216  0.0375  0.1875 -0.2573
30936W        W47010  17.699   2.603   1.812 -0.1350 -0.1605  0.0813
30937W        W47011   3.611  13.242  15.037 -0.1473 -0.0692  0.2850
30938W        W47012  10.273  10.631   2.512 -0.5058  0.0247  0.3078
30939W        W47013  11.227  12.677   3.711  0.1506  0.2155  0.1296
30940W        W47014  10.956  18.151  11.799 -0.0024  0.0155 -0.2048
30941W        W47015   9.899   9.221  15.071 -0.0196 -0.0109 -0.1262
30942W        W47016   3.404   6.525   6.339  0.1742  0.1344  0.0118
30943W        W47017   5.621  11.805  11.683 -0.1498  0.0595  0.1060
30944W        W47018  11.807  16.980   2.417  0.1895 -0.1903 -0.4032
30945W        W47019   4.854   3.050   4.332  0.2844 -0.0845 -0.2722
30946W        W47020   5.990  12.238   3.342 -0.1756  0.2057 -0.3168
30947W        W47021   9.431   8.925   4.147 -0.0144 -0.0005 -0.1937
30948W        W47022  14.724  12.011  16.104 -0.0427  0.0255 -0.2048
30949W        W47023  12.280  17.981  16.242 -0.0624  0.1257  0.1600
30950W        W47024  12.028  17.900   5.762 -0.1874 -0.0178 -0.1514
30951W        W47025   8.447  16.789  13.456  0.3673  0.2286  0.1957
30952W        W47026  11.501  16.635  14.772 -0.2710 -0.2176 -0.0454
30953W        W47027  10.784  17.793  16.068 -0.0736  0.0667  0.1771
30954W        W47028  13.737   7.611  16.290 -0.1985 -0.5925 -0.0489
30955W        W47029   8.403  10.237  13.525 -0.0525 -0.0222 -0.1427
30956W        W47030   2.402  12.037  16.082 -0.1436  0.4207 -0.3738
30957W        W47031  15.840   1.043   3.332  0.1219 -0.0881  0.0837
30958W        W47032  13.328  15.428  16.384  0.0353  0.0087  0.0672
30959W        W47033   9.973   7.565  13.789 -0.0184  0.2957  0.2199
30960W        W47034  14.052   2.527   4.339  0.0362  0.1463  0.1207
30961W        W47035  12.660   4.986  11.798  0.1172 -0.1313  0.3758
30962W        W47036   0.730  14.411  13.367  0.2938 -0.1503  0.0652
30963W        W47037   7.474  11.230   4.460  0.3258 -0.2860 -0.2436
30964W        W47038   5.204  14.776  13.596 -0.1637  0.2781 -0.1697
30965W        W47039   7.551  15.768   5.051 -0.0594  0.1192 -0.1660
30966W        W47040  15.920  12.398  13.466 -0.0445  0.2084  0.0874
30967W        W47041  14.840   1.273  14.585  0.1205  0.1211 -0.2030
30968W        W47042   7.540   5.723  11.085 -0.0659 -0.5526 -0.0437
30969W        W47043  13.200  16.697  13.773 -0.1135  0.3068 -0.0582
30970W        W47044   8.958  17.130  11.569  0.0182  0.2097  0.3400
30971W        W47045   1.443   1.837   5.720 -0.3453 -0.1548  0.1141
30972W        W47046   4.831   3.779  15.802 -0.1019 -0.2188 -0.2456
30973W        W47047   2.802  18.077   5.815 -0.0831  0.1680  0.2697
30974W        W47048   7.822   8.942   4.726  0.1300 -0.1702  0.0049
30975W        W47049  13.051  14.150  16.183 -0.0421  0.2033  0.0369
30976W        W47050  15.233  11.363   4.682 -0.1260 -0.1042 -0.2104
30977W        W47051   7.659  11.999  13.238 -0.0202  0.1243 -0.1396
30978W        W47052  10.668   4.829   0.032 -0.0168  0.1140  0.1823
30979W        W47053   8.985   8.354  13.018 -0.2277  0.2478  0.3206
30980W        W47054  14.293   5.308   5.234 -0.0234  0.2737  0.0880
30981W        W47055  10.901  13.378   1.245 -0.0734  0.0966  0.0708
30982W        W47056   3.778  17.434  15.332  0.0532  0.0957 -0.1331
30983W        W47057  14.770   9.551   4.449  0.0456 -0.0061  0.0295
30984W        W47058  12.492  11.997   1.944 -0.2201  0.0621  0.2476
30985W        W47059  13.925  14.859  12.889 -0.1448 -0.0684 -0.0922
30986W        W47060  10.536  17.744   2.842  0.3037 -0.0879 -0.2949
30987W        W47061   5.972   3.318   5.532 -0.1622  0.0402  0.0676
30988W        W47062  16.186  10.512   1.741  0.0269  0.3006 -0.0611
30989W        W47063   4.295   9.316   2.712  0.2146  0.3009 -0.1970
30990W        W47064  15.747  13.677  13.098 -0.0454 -0.1412  0.3421
30991W        W47065   6.127   6.641  15.858 -0.0611  0.1308  0.1141
30992W        W47066  11.844   1.747  12.231  0.1918 -0.1135  0.2140
30993W        W47067   6.996  15.406  12.993 -0.0021  0.2158  0.2679
30994W        W47068  17.018   1.890   2.094  0.0924  0.0328 -0.2913
30995W        W47069   0.429   6.446  13.699 -0.1589  0.2397  0.0645
30996W        W47070  10.505   1.460  10.895 -0.0305  0.1558 -0.2816
30997W        W47071   1.029   1.222   2.977  0.4394 -0.0592  0.2598
30998W        W47072   6.224  14.890  14.120  0.3522 -0.1321  0.1198
30999W        W47073   6.643  17.817  15.939 -0.1071 -0.0445  0.0439
31000W        W47074   3.909  12.906  13.269  0.0133  0.0754  0.1506
31001W        W47075  17.847  15.719  11.423 -0.0123 -0.1079  0.1587
31002W        W47076   5.253   7.462   5.592  0.0344  0.0703  0.0966
31003W        W47077   0.197  15.631  13.984 -0.3042  0.0833 -0.1837
31004W        W47078  15.547   9.541   0.249  0.0198  0.1915  0.1340
31005W        W47079  13.901  14.585   2.240 -0.0910  0.0654 -0.3316
31006W        W47080  13.407  17.448  15.561  0.1211  0.1153 -0.0177
31007W        W47081   3.644  10.767  15.465  0.1213 -0.1647  0.1859
31008W        W47082  16.404   9.711   3.676  0.0478 -0.2161  0.0524
31009W        W47083   7.302  10.153   1.933 -0.0787 -0.0177 -0.1076
31010W        W47084  17.598  14.655  13.392 -0.2224 -0.1660  0.1468
31011W        W47085   8.755  11.372   1.342 -0.1357 -0.2565 -0.0984
31012W        W47086   4.850  11.893   3.748  0.2285  0.1567 -0.0711
31013W        W47087   7.575  17.417   6.155 -0.1283  0.0564 -0.1447
31014W        W47088   3.508   3.212  12.458 -0.0890  0.0759 -0.1596
31015W        W47089  16.659  17.993   1.671  0.0520 -0.4601 -0.1416
31016W        W47090   1.519  18.306   2.475 -0.1232  0.1124 -0.1295
31017W        W47091   7.263   1.875   1.613  0.1651  0.3238 -0.1954
31018W        W47092   5.543  13.673  16.280  0.0173 -0.0163  0.0704
31019W        W47093   3.502  14.854   2.625  0.2325 -0.1774 -0.0442
31020W        W47094   2.346   4.040  12.067 -0.1184 -0.2052 -0.0898
31021W        W47095   1.129  18.140  16.178  0.2071  0.3341 -0.2001
31022W        W47096   9.728  12.003  15.715  0.1808 -0.1052 -0.0015
31023W        W47097   5.100   5.138  14.579 -0.0300  0.1092  0.0844
31024W        W47098   8.693   8.851  13.663  0.3194 -0.1481 -0.0372
31025W        W47099   1.734   0.634  13.624  0.2040  0.0956 -0.2051
31026W        W47100   7.723   3.615  11.919 -0.3505 -0.0601 -0.0500
31027W        W47101   8.260  11.783  16.324  0.0207 -0.1749  0.0859
31028W        W47102  10.557   0.713   4.389  0.3488  0.4019  0.0512
31029W        W47103   4.855   9.515   3.908  0.0037  0.0557 -0.3464
31030W        W47104   4.584   5.185   4.314  0.2254  0.3030 -0.1454
31031W        W47105   5.766   0.222  11.758 -0.3451 -0.1873  0.3016
31032W        W47106  10.501  13.152   3.936 -0.0451  0.0331  0.3113
31033W        W47107  18.119  10.506   0.929  0.0646  0.0251 -0.2146
31034W        W47108   6.639  16.476  11.792 -0.1929  0.3927 -0.3125
31035W        W47109  15.331  12.894   2.100 -0.1149  0.0078 -0.0482
31036W        W47110  15.201   7.375  13.639  0.0981  0.2360 -0.1951
31037W        W47111  11.562   6.858   0.816  0.1844 -0.3554  0.1476
31038W        W47112  18.139   3.422   3.931  0.1143 -0.2081  0.0225
31039W        W47113  15.073   2.617   2.531  0.0230 -0.1003  0.0231
31040W        W47114  17.692   9.964  13.001 -0.3461  0.1695 -0.0561
31041W        W47115  10.930  15.329  12.752  0.1750  0.0963 -0.0976
31042W        W47116   8.554   3.457  11.901  0.1231 -0.0042 -0.1088
31043W        W47117   9.489   9.422   5.657  0.2786  0.2704 -0.3354
31044W        W47118  12.618   8.923  15.548 -0.1247  0.0714 -0.1769
31045W        W47119   1.884   3.368   4.874 -0.1957 -0.0243 -0.0125
31046W        W47120   0.751  15.426  13.420  0.2335 -0.0071 -0.0062
31047W        W47121   6.971   3.384   4.616 -0.1546 -0.1894 -0.0919
31048W        W47122  10.986   9.758   0.000  0.0868  0.1663  0.0281
31049W        W47123   8.608  10.445   5.007 -0.0180 -0.0837 -0.2553
31050W        W47124   7.206  15.584   0.452 -0.0824  0.6249  0.0378
31051W        W47125  12.014  10.904   0.673  0.1556 -0.0675 -0.0312
31052W        W47126  11.097  10.045   4.688 -0.0487 -0.0597  0.2958
31053W        W47127  18.051  16.623  15.992  0.2488 -0.4112  0.3728
31054W        W47128   2.499  12.800   2.571 -0.1792  0.1254  0.2149
31055W        W47129   2.994  16.410   4.059 -0.0269 -0.0585  0.0747
31056W        W47130  18.249  11.567   0.619  0.2582  0.0379 -0.1039
31057W        W47131   6.114  12.621   2.065  0.1804 -0.2649 -0.0607
31058W        W47132   2.472   7.175   4.937 -0.1573  0.1252 -0.1763
31059W        W47133  12.526   7.288   2.572  0.2689  0.0153 -0.0036
31060W        W47134  12.313  10.340   2.558 -0.1883 -0.4796 -0.0990
31061W        W47135  12.366  13.571   1.070  0.2584  0.0900  0.0906
31062W        W47136   6.564  16.671   5.248 -0.0087 -0.2311  0.1653
31063W        W47137   8.519  13.194  12.334 -0.2996 -0.0031  0.0864
31064W        W47138  14.064   1.209   1.661 -0.0511  0.3644 -0.0481
31065W        W47139   9.948   8.450  16.079  0.1632  0.1142  0.1527
31066W        W47140   3.419   5.101   3.310  0.2935 -0.6080 -0.0043
31067W        W47141   5.751   2.428  15.625  0.0748 -0.1901 -0.1127
31068W        W47142  13.569  14.598   4.461 -0.1352 -0.1771  0.0982
31069W        W47143   4.390   7.139  11.521 -0.1704 -0.0504 -0.2074
31070W        W47144  12.980   6.107   4.247 -0.0072  0.0103 -0.2302
31071W        W47145   0.768  14.131   2.956 -0.0567  0.1788  0.0683
31072W        W47146   8.563   8.478   4.384  0.0924  0.0330 -0.0505
31073W        W47147   0.342   5.540  13.143 -0.1459 -0.3786 -0.1576
31074W        W47148  16.440   1.992   3.609  0.2172 -0.1383 -0.3701
31075W        W47149   7.344  12.090  14.568  0.1689  0.0376  0.2880
31076W        W47150  13.196   1.665   2.005  0.0566 -0.1203 -0.1221
31077W        W47151   0.695  15.743   3.982 -0.2548 -0.1269  0.1623
31078W        W47152  12.547   5.716  14.084  0.2267  0.3375  0.0432
31079W        W47153   2.655   9.371   4.630 -0.0688 -0.3013 -0.2016
31080W        W47154  12.229  14.398   5.865 -0.2975 -0.0690 -0.0962
31081W        W47155  12.125   4.535   4.486 -0.1884  0.0221  0.0717
31082W        W47156  18.156  12.262  16.391 -0.1975 -0.1834  0.1559
31083W        W47157   7.483  11.471   1.787 -0.0113  0.0658  0.1630
31084W        W47158   7.694  10.870   4.815 -0.0829  0.1454 -0.1936
31085W        W47159   8.283   9.077   1.009 -0.0624 -0.1046  0.1141
31086W        W47160   0.471  16.968  14.931  0.0796  0.2190 -0.0898
31087W        W47161  11.315  10.107  16.133 -0.1509  0.1788  0.3259
31088W        W47162  13.804   7.147  16.101  0.4280 -0.1369  0.1249
31089W        W47163   5.647  14.455   1.691  0.3427 -0.3653 -0.0143
31090W        W47164   4.598   2.242  12.099  0.1294  0.2267 -0.1338
31091W        W47165   2.272   2.957  12.125  0.3237 -0.1384  0.2504
31092W        W47166   9.964  14.998   5.136 -0.1543 -0.0478  0.0246
31093W        W47167  10.541   0.952  14.896 -0.0975 -0.2823 -0.1970
31094W        W47168   8.290  14.065   2.492 -0.1582 -0.0174 -0.1007
31095W        W47169   7.667  10.412  14.244  0.1479 -0.1653 -0.3780
31096W        W47170   8.455   0.438  11.976  0.1723 -0.1056 -0.1397
31097W        W47171   2.802  15.131   3.526  0.2984 -0.0026  0.0277
31098W        W47172   1.844   3.320  15.482  0.0617 -0.1513 -0.0624
31099W        W47173   8.345  10.693   4.262 -0.0531 -0.0883  0.1598
31100W        W47174  17.075   3.888  16.178  0.0385 -0.1992 -0.2266
31101W        W47175   9.719  17.483  12.987 -0.0665 -0.2900  0.1976
31102W        W47176   2.997   5.349  14.263  0.1093 -0.1186  0.0656
31103W        W47177   0.639  13.868  14.613  0.1772  0.1503  0.0074
31104W        W47178  16.255  13.362   3.334  0.1144  0.1804 -0.0331
31105W        W47179   5.454   5.131   4.890 -0.1187 -0.1618 -0.0615
31106W        W47180   6.054   6.832   2.297  0.1190 -0.4483  0.0069
31107W        W47181   2.723   0.553   1.466  0.2305 -0.4099  0.0967
31108W        W47182  11.902   2.399  11.335  0.2956 -0.2071  0.0002
31109W        W47183   1.858   4.924   0.093  0.6669  0.1142  0.1496
31110W        W47184   6.486  18.111   1.479 -0.1486  0.0228  0.2674
31111W        W47185   9.958  18.126   5.094 -0.1050  0.1644  0.0771
31112W        W47186  11.189  13.208  10.481 -0.2877  0.1433 -0.1292
31113W        W47187   8.869  13.666   2.059  0.1501 -0.0314 -0.0481
31114W        W47188   6.165  17.575  14.545  0.0585  0.0603  0.0802
31115W        W47189   5.409   0.542  12.029  0.3371  0.0040  0.1606
31116W        W47190  15.938   0.722   5.028  0.0372 -0.2831  0.2353
31117W        W47191  10.482  10.547  13.675 -0.2799  0.2390  0.0472
31118W        W47192  16.846  15.417  15.258 -0.0534 -0.0057  0.4186
31119W        W47193   0.207   9.569   0.509  0.0095 -0.4640 -0.1729
31120W        W47194   4.638   1.204  13.744 -0.0332  0.0914  0.1104
31121W        W47195   2.558   8.434  12.638 -0.1309  0.1050 -0.0852
31122W        W47196   8.620   2.178   3.974  0.1822  0.0063 -0.0783
31123W        W47197   0.073   2.613  11.697 -0.1363  0.0497  0.2586
31124W        W47198  10.147   1.773   1.910 -0.1050 -0.4143 -0.0986
31125W        W47199  10.311   4.398   2.144 -0.0556  0.3193  0.0328
31126W        W47200   3.754  11.396  12.251  0.1492 -0.2770 -0.0032
31127W        W47201   1.268  15.471   5.559 -0.0956 -0.3455  0.3174
31128W        W47202   1.570   4.851  12.747 -0.1037 -0.1592 -0.1003
31129W        W47203   2.584  11.485  15.102  0.1579 -0.1437  0.0546
31130W        W47204  18.011   5.365   0.056 -0.1037  0.1411  0.0994
31131W        W47205   5.488  12.879   0.583  0.2021  0.1972 -0.1804
31132W        W47206   1.982   3.887   1.760 -0.0438  0.1129 -0.1571
31133W        W47207   0.883   8.505  11.645  0.1075  0.1704  0.0949
31134W        W47208   7.974  17.229   2.055  0.1230  0.3540  0.3722
31135W        W47209   1.901  12.531   2.310  0.0512  0.0050  0.1347
31136W        W47210  12.812   2.393  10.881  0.1271 -0.0685  0.0203
31137W        W47211  10.854  12.813  12.607  0.1846  0.3997  0.0313
31138W        W47212   9.636   2.094   2.948  0.1163 -0.0386 -0.1448
31139W        W47213   5.510   8.129  11.482 -0.0469  0.1971  0.1326
31140W        W47214  17.782   7.053   0.258 -0.1661 -0.0644 -0.0292
31141W        W47215   3.434  15.828  14.326  0.0763 -0.2092  0.2446
31142W        W47216  10.270   2.487   1.464 -0.0158  0.0433  0.1883
31143W        W47217  13.256  10.890  14.258  0.0957  0.1707 -0.1413
31144W        W47218  11.444  16.955  12.485 -0.1613 -0.2440 -0.0424
31145W        W47219   9.639  16.767  15.116  0.3971  0.0160 -0.2062
31146W        W47220   2.068   8.318  14.577  0.0343  0.0115 -0.3973
31147W        W47221   5.590   7.391  16.018 -0.1970 -0.3764 -0.1032
31148W        W47222   1.714   3.930  11.907  0.1171  0.2802  0.0578
31149W        W47223   8.914  15.563   5.551 -0.3184 -0.1551 -0.1001
31150W        W47224  14.391   7.799   4.360  0.1396 -0.0625  0.0265
31151W        W47225   7.705  17.967   2.379 -0.0045 -0.2826  0.3829
31152W        W47226   3.789   2.490   2.723  0.2692 -0.1281 -0.2328
31153W        W47227   0.222   4.186  12.613  0.3740 -0.1728 -0.0979
31154W        W47228   1.912  17.698   4.560 -0.2694  0.2132  0.5102
31155W        W47229  12.412   7.288   2.097 -0.1540  0.0665 -0.1262
31156W        W47230   5.768   7.000   0.938 -0.0134  0.0822  0.1974
31157W        W47231  18.113  13.890  12.968 -0.1543 -0.1619 -0.0943
31158W        W47232   7.872   1.052  13.754 -0.2705 -0.2208  0.0990
31159W        W47233  12.780  16.957   3.603 -0.1347 -0.2191 -0.0111
31160W        W47234  18.204  13.653   3.371  0.0118 -0.5981 -0.0386
31161W        W47235  12.896  10.621  14.107 -0.0731 -0.0465  0.4471
31162W        W47236   6.435  16.236   0.086 -0.3255 -0.1572 -0.1631
31163W        W47237  15.812  14.985   5.410 -0.0408 -0.1354  0.0144
31164W        W47238  16.979  15.813   1.721  0.0399 -0.2158 -0.1841
31165W        W47239   6.851   0.462   0.154 -0.3405 -0.1311  0.0489
31166W        W47240  12.618  15.077  15.657  0.1849  0.2521 -0.1467
31167W        W47241   4.628   1.354  11.043  0.0115  0.0849 -0.1739
31168W        W47242   4.753  13.676   2.563  0.1778  0.0069 -0.4158
31169W        W47243   6.018   1.720   1.548  0.3069  0.0527 -0.0955
31170W        W47244  13.801   8.724   0.659 -0.0969  0.0063 -0.0608
31171W        W47245   9.762   0.314  12.289  0.0939  0.0165  0.2604
31172W        W47246   5.095   4.273  15.926 -0.3439 -0.1788  0.0257
31173W        W47247  14.264   2.329   0.378  0.1075 -0.0601 -0.2167
31174W        W47248   8.872   6.637   0.854  0.2280 -0.1033 -0.0322
31175W        W47249  15.436  16.264  11.712  0.1443 -0.0731 -0.1405
31176W        W47250   5.575   0.742  12.546  0.0837  0.1254  0.1293
31177W        W47251   4.037   1.935   5.846  0.2384  0.1385  0.0341
31178W        W47252  15.078  11.090   2.426  0.0141  0.0578 -0.3193
31179W        W47253  14.708   9.421  11.835  0.2120 -0.1387 -0.2483
31180W        W47254   0.364   4.247   5.607  0.0939  0.0597  0.2824
31181W        W47255  12.126   1.390  11.153  0.1648 -0.3088  0.0892
31182W        W47256  16.693  14.135  11.711 -0.0902  0.0070  0.1840
31183W        W47257  17.052   0.906   0.994 -0.0700  0.2029  0.2606
31184W        W47258   4.602  16.069  15.136 -0.2317 -0.0197  0.2884
31185W        W47259   8.426  13.103   2.325 -0.1554  0.3265  0.1427
31186W        W47260   0.690   7.492  11.687 -0.0095 -0.0684 -0.2852
31187W        W47261   5.426   5.609   4.414 -0.0847  0.0147 -0.0577
31188W        W47262   9.483  10.382  12.886  0.0896 -0.1773  0.0578
31189W        W47263   5.374   0.279  12.581 -0.2333  0.2372  0.2161
31190W        W47264  16.035  14.640   5.046  0.0051  0.1018 -0.2963
31191W        W47265  15.966  12.748  15.074  0.0652 -0.1429 -0.3741
31192W        W47266   6.428  12.240   2.258 -0.0876 -0.1140  0.0444
31193W        W47267   3.648  13.578   1.967 -0.2622  0.4173  0.1463
31194W        W47268  10.895   1.002  15.277 -0.0324  0.0240 -0.1292
31195W        W47269  18.039   8.390  12.992 -0.1440  0.0891  0.0254
31196W        W47270   6.024   2.806  15.728  0.2432  0.0755 -0.0714
31197W        W47271   7.892   4.767  14.168  0.4275 -0.1224  0.1102
31198W        W47272   4.366  11.249  15.521 -0.1417 -0.1565  0.1306
31199W        W47273  14.053  10.670   4.819  0.1168  0.2076  0.0873
31200W        W47274  15.563   7.031  16.298 -0.1704  0.5601 -0.1638
31201W        W47275   2.840  16.725   2.824 -0.0991 -0.0433  0.1383
31202W        W47276   8.866   1.873  11.696  0.3165 -0.2583  0.0885
31203W        W47277   4.323   5.254  13.961 -0.2344 -0.2977 -0.0263
31204W        W47278   6.112   2.854  13.861  0.3260 -0.2748  0.0460
31205W        W47279  15.672   7.952  14.699 -0.4247  0.1218  0.0581
31206W        W47280  11.024  16.214  11.890 -0.0486  0.1620 -0.0653
31207W        W47281   6.745  11.714  14.753  0.0665 -0.0518 -0.2046
31208W        W47282   2.324  13.845   0.167  0.0597 -0.0429  0.1178
31209W        W47283  16.165  13.352   2.861  0.0048 -0.3312  0.2568
31210W        W47284  11.150   8.726   2.851  0.1082  0.0972  0.1802
31211W        W47285   2.147   5.601  15.444  0.2907  0.1548  0.1537
31212W        W47286   6.402  11.392  12.645 -0.1223  0.3704 -0.2895
31213W        W47287  15.470   2.395   4.413 -0.2522 -0.2820  0.0068
31214W        W47288  18.093  15.638   3.168  0.0812 -0.1020 -0.2770
31215W        W47289   1.285   7.254   3.779 -0.2953  0.0089 -0.0069
31216W        W47290   5.886   3.069   5.043  0.1223 -0.1301 -0.1383
31217W        W47291  13.587   0.486  14.507 -0.0722 -0.5818 -0.0744
31218W        W47292  10.832   9.030  15.354 -0.2449 -0.0940  0.0748
31219W        W47293  11.372   1.103  10.639 -0.2250 -0.2696  0.1542
31220W        W47294   5.029   1.690  11.671  0.1281  0.0949  0.3283
31221W        W47295   8.858  15.247  12.658 -0.1741  0.0265 -0.1510
31222W        W47296  16.027   7.729  14.992  0.5603  0.2935 -0.2362
31223W        W47297  11.966  15.599   1.105  0.0829  0.0261 -0.2458
31224W        W47298   3.084   1.427   3.256  0.2354 -0.1194  0.1041
31225W        W47299   9.475  15.131  13.321  0.0186  0.0782 -0.0387
31226W        W47300   9.051   2.144  16.174  0.2603 -0.1687  0.0584
31227W        W47301  11.564   8.810   3.910  0.1046 -0.0830  0.0935
31228W        W47302  11.552  17.572  10.762  0.1686  0.3347 -0.1298
31229W        W47303  10.291   2.754   0.972 -0.2177  0.1616  0.1396
31230W        W47304  16.907   7.040  16.318 -0.0549  0.1718  0.0645
31231W        W47305   1.995   0.549  12.728  0.3020  0.1167  0.1500
31232W        W47306  16.627   6.126   0.280  0.1963  0.3416 -0.2060
31233W        W47307   3.147  16.874  12.842 -0.0718  0.1056 -0.2741
31234W        W47308   5.434   5.653  14.823 -0.0132 -0.1891 -0.1213
31235W        W47309  17.655   8.109  16.382 -0.2471  0.3267  0.1225
31236W        W47310   1.831   8.157  15.483 -0.2090 -0.1179 -0.0824
31237W        W47311   7.619   2.521  15.727 -0.0569 -0.0270  0.2688
31238W        W47312   6.555   5.142  11.571  0.0680  0.0013  0.0762
31239W        W47313  15.626  12.384  16.000 -0.3057  0.1260 -0.1069
31240W        W47314  13.968  17.797   2.351 -0.1189  0.0129  0.0561
31241W        W47315  11.056  16.436   1.110  0.0293 -0.2428  0.1201
31242W        W47316   0.666  13.490   1.197 -0.3604 -0.1060  0.2037
31243W        W47317  14.828   7.672   5.657  0.1724 -0.1088  0.0409
31244W        W47318   2.321   3.710  11.670 -0.1812  0.0331  0.0681
31245W        W47319   9.812   8.423  14.633 -0.0496  0.0522  0.0109
31246W        W47320   6.908   7.186   3.729  0.3076  0.3138 -0.0393
31247W        W47321  16.428  11.463  11.693 -0.1202  0.1564  0.3879
31248W        W47322   6.574   9.831   0.715 -0.0848 -0.0117 -0.1266
31249W        W47323   1.733   8.379  12.403 -0.1021  0.2538  0.3199
31250W        W47324   1.065  15.964  12.684 -0.0347  0.0146  0.0341
31251W        W47325  10.294   5.641   4.023 -0.1454  0.2197 -0.0431
31252W        W47326   5.707  14.739  14.078 -0.1717 -0.5225 -0.0337
31253W        W47327  14.120   5.403  13.769  0.0543  0.2056  0.1321
31254W        W47328   5.504  14.381  12.047 -0.1475  0.2090  0.2151
31255W        W47329   3.454   3.634  12.149 -0.1363 -0.0398 -0.2875
31256W        W47330   2.652   9.245   3.612  0.3973  0.0800 -0.0886
31257W        W47331  14.219   1.858  14.211 -0.0657  0.2015 -0.1730
31258W        W47332   4.389   9.638   1.982 -0.1298  0.0311 -0.1706
31259W        W47333   0.714  15.184   5.354 -0.1032 -0.1712 -0.2272
31260W        W47334   3.536   1.938  14.078 -0.0513  0.2864  0.0670
31261W        W47335   4.221   3.976  13.838 -0.0698 -0.0323 -0.1075
31262W        W47336   4.636   5.531   2.755 -0.0215  0.0831  0.1048
31263W        W47337  15.106  11.782   0.034 -0.0925  0.3484 -0.1621
31264W        W47338   6.174  17.598  12.330  0.1407  0.2855 -0.0999
31265W        W47339  17.451   4.707   4.339  0.1873 -0.4375  0.0063
31266W        W47340  16.868  17.841   4.863  0.0273 -0.2301  0.0492
31267W        W47341   4.198   1.926   5.334 -0.1094 -0.1786 -0.1106
31268W        W47342  12.896   5.985   3.724 -0.1776 -0.2869  0.1516
31269W        W47343   4.957  17.316   0.683  0.1014 -0.1643  0.1066
31270W        W47344  17.631  13.184   3.613 -0.2979  0.3297 -0.1027
31271W        W47345   4.440   2.371  10.186 -0.1249  0.0860  0.1462
31272W        W47346   8.911   1.263   1.487 -0.1457 -0.1787  0.2293
31273W        W47347   2.644   6.609   6.447  0.1201 -0.0583  0.1731
31274W        W47348  14.806  10.983  14.562  0.0032  0.2068 -0.0994
31275W        W47349  11.550   6.166  12.423 -0.0835  0.2697 -0.1647
31276W        W47350   5.633  12.154  12.067  0.1265 -0.0597 -0.2191
31277W        W47351  14.886  15.739   2.691  0.1635  0.0874  0.0041
31278W        W47352  16.386   8.371  12.072 -0.0890  0.0927  0.5152
31279W        W47353   6.602  18.268  16.168  0.2719 -0.0473 -0.1166
31280W        W47354   1.634  10.134  12.192 -0.0085  0.1843 -0.0995
31281W        W47355   4.939  16.847   0.557  0.0026 -0.0575  0.0418
31282W        W47356   1.060   5.108  14.281  0.1270 -0.0544  0.1783
31283W        W47357   1.759  12.475   4.077  0.0187 -0.0123  0.0451
31284W        W47358   5.342   6.391   0.106 -0.4044  0.0175  0.0664
31285W        W47359   3.056   2.736  11.759 -0.1240  0.0457 -0.1155
31286W        W47360  13.120  17.188   1.148 -0.2824 -0.0918 -0.2252
31287W        W47361   5.901   2.553   4.097 -0.2843 -0.4038 -0.0807
31288W        W47362  14.190   6.944   3.856  0.0965  0.0248 -0.1299
31289W        W47363  17.893  11.034   4.089 -0.1061 -0.0565 -0.1307
31290W        W47364  12.680   8.347   1.083  0.2768 -0.1820  0.1224
31291W        W47365   4.273   0.585  10.636 -0.3856 -0.3469  0.0651
31292W        W47366   8.900   8.238  14.412  0.1157  0.1584 -0.1361
31293W        W47367  10.768   1.762  13.836  0.1771 -0.0929  0.0382
31294W        W47368  17.064   7.107  14.605  0.0941  0.2154  0.1579
31295W        W47369  17.735  10.521  14.901  0.1278  0.2708  0.0576
31296W        W47370   5.484  14.087  13.066 -0.0455  0.2030  0.0170
31297W        W47371  14.355   6.638  12.814  0.0748 -0.1755  0.1270
31298W        W47372   4.570   8.042   4.027  0.0878 -0.1834 -0.1729
31299W        W47373   4.792  18.330   2.753  0.1204 -0.4043  0.0225
31300W        W47374   4.371  16.627  16.134  0.1773 -0.0727 -0.2234
31301W        W47375  11.474  12.064   4.475 -0.3313  0.0116  0.0661
31302W        W47376   3.950   9.310   0.416 -0.2344  0.0683 -0.0090
31303W        W47377  14.715  16.060   3.007 -0.0955 -0.1980  0.2634
31304W        W47378  15.052  16.142   4.241 -0.0763  0.2465 -0.1402
31305W        W47379  17.106  11.603   3.783  0.2974 -0.1486 -0.0941
31306W        W47380   3.586   5.610   4.221  0.1525  0.1188  0.0424
31307W        W47381   5.578  11.114  14.924 -0.0192  0.1275 -0.0745
31308W        W47382   4.706  16.833   1.031 -0.1473 -0.1551  0.0001
31309W        W47383   5.097  10.823   2.225 -0.2233  0.0133 -0.1506
31310W        W47384   4.602  15.703   2.136 -0.1774  0.0032 -0.0584
31311W        W47385   5.178  18.285  11.310  0.3267 -0.1012  0.1359
31312W        W47386   3.339   7.533  11.673 -0.2888  0.1009  0.0472
31313W        W47387   5.206   5.965   0.973 -0.0468  0.0184  0.1052
31314W        W47388   9.442  17.941   2.274  0.0514 -0.0596  0.1610
31315W        W47389   4.056  14.138   5.719 -0.1709 -0.1198  0.1552
31316W        W47390   6.629   2.317   6.000  0.1523  0.1884 -0.1756
31317W        W47391  17.176  17.880   2.580  0.0017  0.1492 -0.0246
31318W        W47392  17.765  18.317  13.142  0.1028 -0.1495  0.3693
31319W        W47393   9.786  16.487   4.909 -0.2672 -0.1278  0.1883
31320W        W47394  15.540   5.609  16.244  0.1338  0.0748 -0.0944
31321W        W47395  16.124  13.351  11.725  0.0465 -0.1093 -0.3747
31322W        W47396   4.078   1.238   3.797  0.1031  0.0777  0.2863
31323W        W47397  17.339   7.025   1.050  0.0579  0.1548  0.0432
31324W        W47398  14.802  14.424  13.577 -0.2014  0.1159 -0.1114
31325W        W47399  10.809  13.950   1.989  0.0305  0.1780 -0.2343
31326W        W47400   5.627  12.256   4.368 -0.2499 -0.1855  0.0278
31327W        W47401   5.838  14.488   0.946  0.2197  0.0601  0.0303
31328W        W47402   4.141  15.048  12.459  0.0153 -0.0941  0.1355
31329W        W47403  12.607   9.510   2.359  0.1216  0.1928  0.3246
31330W        W47404   4.811  13.843   4.115  0.1143  0.1802  0.0147
31331W        W47405   0.024   2.949  14.619  0.4109 -0.0689 -0.3941
31332W        W47406   9.458  17.412   1.397  0.4359 -0.1763  0.3425
31333W        W47407   9.339   7.906   1.268 -0.0763 -0.2428  0.2794
31334W        W47408   8.826  10.863  14.785 -0.0802 -0.0750 -0.1581
31335W        W47409   1.908  17.824  14.307 -0.0742 -0.0501  0.2175
31336W        W47410   9.412  17.671   1.807 -0.2088  0.1761 -0.4102
31337W        W47411   4.908   6.472   0.766 -0.3317 -0.2993 -0.0998
31338W        W47412   0.576  14.116   3.417 -0.1271 -0.0168 -0.0304
31339W        W47413   6.839  18.119  13.894 -0.2625  0.2084 -0.2019
31340W        W47414   6.518  14.270  15.067  0.0164 -0.0493  0.0146
31341W        W47415  12.735  12.018   5.867  0.1902 -0.0836  0.0780
31342W        W47416   0.883  11.589  13.280 -0.2636 -0.1029 -0.0760
31343W        W47417  15.436   0.553   3.617  0.2860 -0.2344 -0.0222
31344W        W47418  12.234  14.987   0.012  0.1953 -0.3919  0.0149
31345W        W47419  11.097   4.494   5.995  0.1535 -0.0501 -0.1972
31346W        W47420   4.394  11.123  13.565  0.1732  0.0504  0.2119
31347W        W47421   9.500  11.118   2.033  0.1796 -0.2352 -0.1616
31348W        W47422   3.073  10.082   1.755  0.0807  0.0867 -0.0862
31349W        W47423  13.221   2.704   1.302 -0.1414 -0.2472 -0.3641
31350W        W47424   8.168   9.625   3.493  0.0545 -0.0589 -0.0737
31351W        W47425   3.373   6.366  12.486  0.4621  0.1948  0.0364
31352W        W47426  14.466  12.840  15.303 -0.1718 -0.3075 -0.2223
31353W        W47427   7.936   9.249  13.705  0.0710 -0.2854  0.0893
31354W        W47428   5.440  10.735  12.208  0.5579 -0.1049 -0.2232
31355W        W47429  17.252   3.737  13.582  0.0907 -0.1209 -0.1123
31356W        W47430  16.572   8.754  11.841 -0.0743 -0.1610  0.2760
31357W        W47431  10.513   1.937   1.481 -0.2637  0.2476  0.0162
31358W        W47432   8.193   1.022  15.804  0.0180 -0.1283 -0.1569
31359W        W47433  14.490   0.203  16.267  0.0243  0.1413 -0.1912
31360W        W47434   9.849  14.795  13.387 -0.1549  0.0389 -0.0195
31361W        W47435  11.554  13.880   2.468  0.0512 -0.0267 -0.2244
31362W        W47436   5.477   6.342   1.775 -0.2436  0.0076 -0.1131
31363W        W47437  17.701   1.424  14.058  0.0558  0.1676  0.1987
31364W        W47438  17.447   8.538   6.199 -0.1735 -0.0210  0.1589
31365W        W47439   0.849   8.626  13.045 -0.0737  0.0488 -0.4190
31366W        W47440  17.453   4.797  15.718  0.1415  0.0111  0.1184
31367W        W47441   6.458  18.138   4.017 -0.3263  0.0284 -0.0138
31368W        W47442   2.634   7.515   1.473  0.0423 -0.0646  0.0324
31369W        W47443   7.875   2.714  11.941  0.2437  0.1823  0.4796
31370W        W47444   7.073  12.378   0.962  0.1061  0.0171 -0.0942
31371W        W47445  14.842   3.168   4.611  0.4141 -0.0824 -0.0625
31372W        W47446  17.873  11.899  15.139 -0.1880 -0.1726 -0.0187
31373W        W47447  16.586   0.981  15.632  0.0977  0.2673  0.4497
31374W        W47448   2.763  13.655   4.790  0.5323  0.0369  0.0111
31375W        W47449   2.196  17.641  13.296 -0.3040 -0.1383  0.1827
31376W        W47450  12.530  14.965   4.142  0.0748  0.1291 -0.2899
31377W        W47451  15.333  10.865   4.676  0.0587 -0.0043  0.0586
31378W        W47452  10.920   6.495  11.384 -0.0261 -0.2567 -0.0307
31379W        W47453  16.474   0.733  12.598  0.0479  0.0509 -0.0686
31380W        W47454   9.226   8.848   0.291 -0.2989  0.1388 -0.1876
31381W        W47455  10.228  13.685  13.598  0.0744 -0.0249  0.2540
31382W        W47456   8.737  18.004  15.111  0.2449  0.1575  0.1240
31383W        W47457  11.423  13.278   3.634 -0.0492  0.1070 -0.1577
31384W        W47458   8.679  17.232   4.778  0.1046  0.3208  0.0826
31385W        W47459   7.074   0.381   2.761 -0.1517  0.3441 -0.3615
31386W        W47460   2.863  10.625   0.043  0.1823  0.1823 -0.3037
31387W        W47461  15.161   5.787   3.061  0.1533  0.0890  0.1778
31388W        W47462  11.620   6.611  15.171  0.1871 -0.3307 -0.1067
31389W        W47463  11.595   8.586   0.676  0.0504 -0.1557  0.0318
31390W        W47464  12.448  12.973   1.043  0.0036 -0.1150  0.0711
31391W        W47465   9.157  16.224  11.841  0.3454  0.1201  0.0234
31392W        W47466  15.613  17.210  11.539  0.0714  0.0300  0.0070
31393W        W47467  13.833   3.702   3.456  0.3544 -0.0709 -0.2485
31394W        W47468   9.757  13.558   4.583  0.3246 -0.2857  0.0856
31395W        W47469  17.796  16.537  14.255  0.3649 -0.1441  0.1217
31396W        W47470  15.549   2.372   3.367  0.0027  0.2087 -0.1093
31397W        W47471   8.923   8.688  14.117  0.0601 -0.4606 -0.2706
31398W        W47472   8.017  15.557   3.136 -0.0673  0.0733 -0.4548
31399W        W47473   8.345   5.580  13.640  0.2926 -0.0643 -0.1268
31400W        W47474  15.064   8.890  14.926  0.0534 -0.1681  0.1000
31401W        W47475  17.250  18.180   4.631  0.0442  0.1039  0.3136
31402W        W47476  17.017  14.346  12.469  0.1752 -0.0396 -0.3550
31403W        W47477  17.268   6.238   5.502  0.1491 -0.1963  0.2809
31404W        W47478   3.431   6.317   1.133 -0.1074  0.1613 -0.3374
31405W        W47479  10.636   4.674  14.651  0.4392  0.0254 -0.1843
31406W        W47480   2.641   7.354  13.624  0.0586  0.3437  0.0317
31407W        W47481  17.948   4.565  11.950 -0.1334  0.0674 -0.1671
31408W        W47482   0.108  13.204  14.641 -0.1653  0.5493 -0.3602
31409W        W47483   4.601   7.783   3.595 -0.0827  0.0155  0.1181
31410W        W47484   0.151  17.293   2.717 -0.2009 -0.0859 -0.0309
31411W        W47485  14.477   5.218   1.995 -0.0816 -0.3683  0.0708
31412W        W47486  15.765  12.360   4.840 -0.1602 -0.1855 -0.2241
31413W        W47487   4.074  17.413  12.261  0.2028  0.2996 -0.1338
31414W        W47488  11.868  17.691   0.015  0.1208 -0.1342 -0.1171
31415W        W47489  13.077  11.737   3.606 -0.1159 -0.1533 -0.2434
31416W        W47490   9.668  11.045   1.005  0.1408  0.0396  0.1522
31417W        W47491   9.123   1.190  13.266 -0.1028 -0.0078  0.1037
31418W        W47492  16.519   5.916  12.948  0.0511  0.0877  0.2384
31419W        W47493  13.486   0.261  12.813  0.6420  0.1645  0.0183
31420W        W47494  15.934   4.640  14.946  0.2675  0.1679  0.0150
31421W        W47495   8.056  13.038   2.773 -0.1072 -0.2117  0.1915
31422W        W47496  15.096   9.445   0.615  0.1308 -0.1858  0.1196
31423W        W47497   1.687   7.759  14.662  0.0861 -0.1686 -0.0410
31424W        W47498   9.337   8.355   2.344 -0.1181  0.2248 -0.4349
31425W        W47499   7.985  12.123   0.812 -0.2776  0.1270  0.0576
31426W        W47500  14.388   0.862   2.202 -0.0254 -0.0481 -0.1096
31427W        W47501   4.395   7.322   0.441 -0.1997 -0.0966  0.2161
31428W        W47502  16.512   6.744   1.314 -0.0427  0.1353  0.1639
31429W        W47503  15.041   0.441   5.137  0.1428 -0.2689 -0.2125
31430W        W47504  10.562   4.509   4.249 -0.0830 -0.1728 -0.0363
31431W        W47505   4.573   8.357   4.969 -0.4207  0.0294 -0.0247
31432W        W47506   3.981  13.245  11.206  0.0675  0.1050 -0.3195
31433W        W47507   0.399   6.013   1.919 -0.3050  0.0309  0.4803
31434W        W47508  16.750  16.863  15.022 -0.0374 -0.0399  0.0345
31435W        W47509   9.664   5.234   2.976 -0.3848 -0.1174  0.3629
31436W        W47510  15.435  10.013   0.483 -0.0604  0.0021 -0.2428
31437W        W47511   4.294   8.469   3.974  0.0354  0.2078  0.4346
31438W        W47512   6.635   8.671  16.241 -0.0506 -0.0630 -0.2037
31439W        W47513   4.117  16.386  14.828  0.0503  0.0553 -0.3171
31440W        W47514   2.511  16.005  11.883 -0.1031  0.1930 -0.0383
31441W        W47515   1.371  16.245  12.951  0.1038 -0.0400  0.5603
31442W        W47516  15.380  14.012   4.170 -0.0146 -0.0177  0.1344
31443W        W47517  12.664   5.696   1.867 -0.2528  0.1182  0.1316
31444W        W47518   6.830  10.134  12.138  0.1729 -0.1121 -0.1279
31445W        W47519   2.346   7.630  12.211 -0.0439  0.1696  0.1276
31446W        W47520   7.206  18.047  15.249 -0.1853 -0.0158 -0.0769
31447W        W47521   6.466  14.042  13.653 -0.1070 -0.3090 -0.1997
31448W        W47522   4.993  12.844   3.205  0.0587 -0.0326 -0.1360
31449W        W47523  14.915   5.519  13.223  0.0062  0.1965 -0.2071
31450W        W47524   3.742   3.887   1.071 -0.1196  0.0406  0.0930
31451W        W47525  16.253   8.319  12.541 -0.0530 -0.0524 -0.1356
31452W        W47526   1.382   7.168   0.957 -0.1052 -0.1532  0.1716
31453W        W47527   5.969  16.929   2.337 -0.2259  0.1037  0.1848
31454W        W47528   2.862  18.182  11.161 -0.3997 -0.1347  0.0507
31455W        W47529  10.835   7.061   2.750  0.0330  0.0427  0.4309
31456W        W47530  15.743  11.053   3.475 -0.1225 -0.5175  0.1305
31457W        W47531  16.323   6.707   1.948  0.1549  0.1004  0.0962
31458W        W47532  17.647   6.009  15.636 -0.0104  0.1512 -0.2164
31459W        W47533   4.573   1.861   5.707  0.0643 -0.1493  0.0091
31460W        W47534  10.760  14.001   1.371 -0.1586  0.1412 -0.3259
31461W        W47535  12.002   4.606   5.475 -0.0613 -0.0543 -0.4097
31462W        W47536  10.240   9.725  12.653  0.3029  0.0125 -0.1362
31463W        W47537   5.346  17.607   2.132  0.2049 -0.1464 -0.1608
31464W        W47538  15.722   5.794  15.155 -0.0668  0.1329  0.0518
31465W        W47539  13.847  12.552   4.728  0.1077 -0.0246  0.2831
31466W        W47540   2.364  14.009  13.340  0.3105 -0.0719 -0.0716
31467W        W47541  12.010   4.355  15.350  0.2841  0.3942 -0.0124
31468W        W47542   4.838  13.563   3.052 -0.0253 -0.1167  0.1399
31469W        W47543  15.174   4.916   4.224 -0.0974  0.0100 -0.1574
31470W        W47544   0.318   1.371  15.134  0.0837  0.1792 -0.2113
31471W        W47545   7.049   2.994   5.495 -0.0145  0.0124  0.2266
31472W        W47546   0.236   5.102   3.883 -0.1833  0.2327  0.1101
31473W        W47547   5.707   4.513  11.439  0.2170 -0.1208  0.1188
31474W        W47548   1.216   9.700  15.762 -0.0917  0.2153  0.0780
31475W        W47549   9.393  17.418  14.013  0.0820  0.2630 -0.0853
31476W        W47550  18.035   4.741  12.975  0.3860  0.4739  0.3186
31477W        W47551   3.056  13.240   4.338  0.3302  0.0506 -0.1003
31478W        W47552   5.595   6.771   2.589 -0.4078  0.0385 -0.0743
31479W        W47553  10.686   6.916  11.036 -0.3573 -0.0540 -0.0784
31480W        W47554   8.864   5.289  15.102  0.0162  0.0051  0.0489
31481W        W47555  16.602   3.607  15.807 -0.0278  0.0176  0.0140
31482W        W47556  13.560   1.226   1.884 -0.2178  0.4398 -0.0434
31483W        W47557   4.782   1.409   2.249  0.2426 -0.1272 -0.2466
31484W        W47558  17.617   3.482  15.254  0.0316  0.2381 -0.1074
31485W        W47559  12.970  10.836   3.909 -0.2281 -0.1559  0.2293
31486W        W47560  11.287   7.816  13.693 -0.1325  0.2114 -0.0710
31487W        W47561  12.204  13.640  14.196 -0.4439 -0.0685  0.1880
31488W        W47562  11.795   5.919   3.182  0.0752  0.3344  0.0079
31489W        W47563   4.480   8.378   2.923 -0.2451  0.0867  0.2291
31490W        W47564   9.544  13.320  12.854  0.0307  0.2648 -0.1239
31491W        W47565  17.490  14.824   3.585 -0.2034 -0.3488 -0.1415
31492W        W47566   0.166   3.111  14.191  0.1378 -0.1435 -0.0334
31493W        W47567  12.083   6.526   4.765  0.0050 -0.1351 -0.2527
31494W        W47568   6.945  10.741  14.181  0.2060  0.0377 -0.4097
31495W        W47569   3.673  16.469  15.296  0.0087  0.0086  0.1511
31496W        W47570   1.545   3.043   5.096 -0.4958  0.2065 -0.2178
31497W        W47571   9.186   0.678  15.919  0.0159  0.1221 -0.0751
31498W        W47572   8.378  11.345   0.084 -0.2127  0.1040  0.0142
31499W        W47573   0.545  18.323   0.984  0.2452  0.1062 -0.0286
31500W        W47574  15.062   7.973  12.047 -0.0226 -0.0051  0.1997
31501W        W47575   3.442  15.529  15.316 -0.0509  0.0201  0.2723
31502W        W47576  11.063  16.769   4.814 -0.0135  0.1779 -0.3503
31503W        W47577   7.084  12.554  11.278 -0.4401 -0.1467 -0.0962
31504W        W47578  17.241   5.732  15.394 -0.1069 -0.0397 -0.0173
31505W        W47579   8.437   6.309  14.225 -0.3196 -0.4617 -0.2854
31506W        W47580  15.813  12.841   2.312  0.0732 -0.0331 -0.2809
31507W        W47581   0.902   4.594   3.409  0.1947  0.1142 -0.1862
31508W        W47582  11.522  13.714   6.695 -0.0634 -0.0981 -0.0980
31509W        W47583  11.386   5.311   2.542 -0.2787 -0.5160 -0.0245
31510W        W47584   0.850   7.104  15.322 -0.2622 -0.2560 -0.1217
31511W        W47585  13.755  13.872   6.304  0.0780  0.1813  0.1998
31512W        W47586   5.404  14.894  11.996 -0.2191 -0.0413 -0.2981
31513W        W47587  15.665   0.387  15.584 -0.0735  0.0853 -0.2852
31514W        W47588   0.704  15.157   3.948  0.0765  0.1389 -0.0595
31515W        W47589  15.259  14.794  15.801 -0.1050 -0.1597  0.1782
31516W        W47590   4.913   3.228  11.318 -0.1778 -0.1429  0.1952
31517W        W47591   4.971   8.086   4.898  0.1708  0.1548 -0.0142
31518W        W47592   4.808  12.638  14.613 -0.0381  0.3331 -0.1383
31519W        W47593   2.844  10.862  12.656 -0.0083 -0.2170  0.0603
31520W        W47594  14.674  11.955  14.387 -0.1053 -0.1874 -0.0034
31521W        W47595  13.624  15.585   6.236  0.2559 -0.0643  0.0051
31522W        W47596  13.064   7.152  14.729  0.1849  0.2084 -0.1435
31523W        W47597  14.287   4.942   2.338 -0.1723 -0.2398  0.0760
31524W        W47598   2.324  17.940  15.335 -0.1844  0.2612  0.1543
31525W        W47599   8.893  16.422  12.323  0.0512 -0.1604 -0.2762
31526W        W47600   3.076  12.616   4.788  0.1733 -0.1468  0.0546
31527W        W47601   8.651  17.992  10.136 -0.0878 -0.0441 -0.0503
31528W        W47602  10.342  16.873  13.269  0.2494  0.1865 -0.1757
31529W        W47603   2.959   3.485   1.316 -0.0128 -0.1937  0.0479
31530W        W47604  16.598  14.390  12.156 -0.4154  0.1409 -0.1460
31531W        W47605  12.487   4.366   1.462 -0.1619  0.1005 -0.1230
31532W        W47606   1.456  12.844   3.790 -0.0398 -0.0615  0.0078
31533W        W47607   2.180  17.712  14.915  0.0268  0.0689 -0.2803
31534W        W47608   2.277   7.131   4.455  0.0157  0.2512  0.0893
31535W        W47609  14.155  13.282  15.689  0.3079  0.0479  0.2183
31536W        W47610  10.399  10.883  15.205 -0.0850  0.2174 -0.0484
31537W        W47611  16.128  13.848   3.087  0.2543  0.0159  0.1820
31538W        W47612  12.654   2.594  11.923  0.0816  0.0958 -0.0738
31539W        W47613   6.488  10.016  15.276  0.2637 -0.0961  0.0999
31540W        W47614   2.374  16.949  16.326  0.3482 -0.1459  0.1828
31541W        W47615   9.590   7.747  15.858 -0.0293 -0.0181  0.0025
31542W        W47616  10.178   6.526  14.949  0.0363 -0.2346  0.1980
31543W        W47617   4.944   6.103   0.287 -0.0788  0.4384 -0.0273
31544W        W47618   5.493  10.243  14.310  0.0332  0.0843  0.2779
31545W        W47619   0.903  11.419   5.374 -0.0173 -0.1912  0.0816
31546W        W47620   1.831   9.769  12.880 -0.1809 -0.0362 -0.0936
31547W        W47621  17.413   1.713  13.745  0.0102 -0.6265 -0.0408
31548W        W47622  13.435  11.196   2.242  0.2655  0.0053 -0.0227
31549W        W47623  13.861   4.796  14.800  0.1779  0.0027  0.1160
31550W        W47624   4.174   1.799  11.314 -0.3494 -0.0592 -0.1898
31551W        W47625  11.736   4.379   3.611  0.2066 -0.5206 -0.0945
31552W        W47626   2.111  10.591  15.152  0.0436 -0.0905  0.0411
31553W        W47627  15.529  15.524  13.295 -0.2284 -0.1534  0.1839
31554W        W47628   5.614  10.687   0.956 -0.1544  0.0361 -0.0624
31555W        W47629  12.419   0.370   1.007 -0.0443 -0.2636  0.3173
31556W        W47630   2.141   4.570  16.326 -0.0977  0.2109  0.0616
31557W        W47631   1.530  14.872   4.074  0.3984  0.1808 -0.1681
31558W        W47632  17.065  12.660   4.030 -0.0621  0.3111  0.1177
31559W        W47633   3.400   1.324  11.595 -0.1987  0.1447 -0.3353
31560W        W47634   3.584  13.930   0.955  0.1334 -0.1801  0.0888
31561W        W47635   6.118   9.039   5.962  0.0425 -0.0669 -0.2487
31562W        W47636  10.122  10.655  11.450  0.0428 -0.0668  0.2238
31563W        W47637   7.226   4.393   4.626 -0.0405 -0.0546  0.0267
31564W        W47638   1.813   7.533  15.610 -0.1296  0.2375  0.0827
31565W        W47639  11.558  10.255  11.044 -0.1487 -0.1159 -0.2310
31566W        W47640   9.391   9.134   0.785  0.2141  0.0715  0.0497
31567W        W47641  10.802  13.933   3.711  0.0570 -0.0573  0.2782
31568W        W47642   8.907   6.137  10.519  0.0521  0.2140 -0.1707
31569W        W47643   2.748  10.798   4.749  0.2142 -0.0455 -0.2293
31570W        W47644  15.603  10.802   0.839  0.1231 -0.0700  0.3051
31571W        W47645   1.452  10.263   5.021 -0.1529 -0.2602  0.1028
31572W        W47646   1.187   8.325   3.992 -0.0624 -0.1043 -0.1422
31573W        W47647  16.745  17.433  14.383  0.2781  0.2694  0.2548
31574W        W47648  12.056   2.594  12.009 -0.2024  0.0733 -0.0770
31575W        W47649   8.762  13.331  13.200 -0.0095 -0.2706  0.0308
31576W        W47650   2.842   8.828  12.737 -0.1257 -0.2342  0.2642
31577W        W47651   0.150   0.802   3.356  0.2903 -0.0331 -0.2019
31578W        W47652   3.171  11.775   5.107  0.0821  0.2236 -0.1980
31579W        W47653   4.036   3.051  15.543  0.0057 -0.0747 -0.1082
31580W        W47654   0.944  13.708  12.113 -0.1466  0.0104  0.1210
31581W        W47655  11.064  11.054   1.030 -0.2212  0.3052 -0.3957
31582W        W47656   9.402  17.188  16.346  0.2944  0.1867 -0.0447
31583W        W47657   7.970   7.010   0.358 -0.2367 -0.1735  0.1319
31584W        W47658   9.552  14.170  16.380  0.1439  0.3473 -0.3615
31585W        W47659   4.582   7.965  11.663  0.1538  0.1744 -0.1624
31586W        W47660   8.380   1.576   0.066  0.0983 -0.1338  0.0586
31587W        W47661   0.574   2.541   3.931 -0.3176 -0.1135 -0.0121
31588W        W47662  15.795   3.975  11.189 -0.1506 -0.0020 -0.6216
31589W        W47663  15.769   9.793  15.586  0.0462  0.2188  0.0073
31590W        W47664  12.343   1.956  13.260  0.2141  0.2063 -0.1142
31591W        W47665   3.645  11.500   4.242  0.1870  0.2178 -0.0706
31592W        W47666   9.646   1.335  16.352 -0.2424 -0.0617  0.2939
31593W        W47667   1.226   8.147  12.563  0.0721 -0.2112  0.1888
31594W        W47668   6.818  12.331   3.077 -0.0746 -0.1921  0.1840
31595W        W47669  14.637   9.218   4.813 -0.2685  0.1920 -0.0535
31596W        W47670   3.083  14.606  12.988  0.2554 -0.1970  0.2023
31597W        W47671   6.249   3.089   2.220  0.3453  0.0133  0.2419
31598W        W47672  10.844   3.615   3.169 -0.2237 -0.4678 -0.1336
31599W        W47673   5.752   5.963  13.069  0.2579  0.2664  0.1967
31600W        W47674   1.542   3.513  13.220 -0.0780  0.0031 -0.0531
31601W        W47675  11.358   9.818  13.197 -0.2498  0.1081 -0.1497
31602W        W47676   4.095   4.384   2.774  0.3057  0.0626  0.0860
31603W        W47677  13.697  11.266  11.869  0.0768  0.0790 -0.1724
31604W        W47678   7.246  16.879   4.725  0.1653 -0.2234 -0.1643
31605W        W47679   0.068  13.101  12.407  0.1355 -0.0998 -0.1411
31606W        W47680   3.391  17.925   2.532 -0.1741 -0.0922  0.1681
31607W        W47681   3.303  10.118  15.511 -0.1922 -0.0386  0.0123
31608W        W47682  16.269   7.391   5.835  0.3209 -0.0483 -0.1856
31609W        W47683  12.773  17.993  14.937  0.0404 -0.2064  0.0216
31610W        W47684   4.104   6.100   1.745 -0.0951 -0.0855 -0.0689
31611W        W47685   3.190  15.834  16.228  0.3401  0.1915  0.2372
31612W        W47686   5.804   1.970  15.348 -0.0867  0.4999 -0.0171
31613W        W47687  17.249  14.138  16.086  0.0162 -0.0961 -0.1646
31614W        W47688  18.043   9.212  14.754 -0.1128  0.0136 -0.0853
31615W        W47689   4.006   2.613  16.076 -0.3085 -0.2588 -0.0511
31616W        W47690  10.406   6.126  13.420  0.1323 -0.3301  0.2730
31617W        W47691   5.629  12.230   5.011  0.3605 -0.0481 -0.2458
31618W        W47692  15.796  14.655  12.855 -0.2354 -0.0870 -0.0486
31619W        W47693  12.976  12.117   5.032 -0.0266  0.1636 -0.0418
31620W        W47694   3.728   1.761   5.280 -0.1760  0.0320 -0.0209
31621W        W47695  14.464   0.543   3.305 -0.0465  0.0601  0.2634
31622W        W47696   5.885  10.399   4.696 -0.0411  0.1607 -0.2174
31623W        W47697  11.894  14.884  15.711 -0.0599 -0.0327 -0.0765
31624W        W47698   0.598   8.984  14.842 -0.2800  0.1750  0.0159
31625W        W47699  10.649   9.321   2.946  0.1717  0.2040 -0.0573
31626W        W47700   9.627   4.183   4.255  0.1541 -0.1013 -0.1257
31627W        W47701   4.307   8.477   2.464 -0.0301  0.1105  0.0356
31628W        W47702   6.239  14.298   4.921  0.1288  0.0809 -0.0424
31629W        W47703   2.196   2.051  14.531  0.1876  0.0947 -0.1799
31630W        W47704   3.840   0.570   0.377 -0.0598 -0.1228 -0.1483
31631W        W47705  11.497  16.556   2.645  0.1911  0.3781  0.1570
31632W        W47706   7.487  12.463  13.345  0.1194  0.2483  0.0621
31633W        W47707   1.515  13.389  14.881 -0.2027 -0.4119 -0.1448
31634W        W47708   6.416  15.806  14.157 -0.2641 -0.2155  0.1617
31635W        W47709  11.916   5.251  14.803 -0.4005 -0.1454 -0.2935
31636W        W47710   6.772   5.161   1.854 -0.0175 -0.1101  0.0668
31637W        W47711  10.931   3.366   3.704  0.1493 -0.0100 -0.1124
31638W        W47712  15.482  11.833   2.088  0.0994 -0.0410  0.1153
31639W        W47713   2.737   3.445   4.011 -0.1895 -0.0251  0.2187
31640W        W47714  11.233  13.178  11.914  0.1993  0.0100  0.0917
31641W        W47715  15.188  17.456   0.899 -0.4365 -0.0080  0.1278
31642W        W47716   7.923   7.276  16.193 -0.1291  0.2528  0.2442
31643W        W47717   8.956  15.635   0.284  0.0863 -0.0664 -0.3248
31644W        W47718   9.890  16.034  11.651  0.2535 -0.1250  0.2819
31645W        W47719   2.001   5.200   4.198  0.1721  0.0172  0.1089
31646W        W47720   7.945  10.627  13.252 -0.0784 -0.2085  0.0198
31647W        W47721  11.594  14.599  11.834 -0.0715  0.1654  0.1309
31648W        W47722   2.792   4.287  12.800  0.0679  0.0122  0.0400
31649W        W47723   8.561  17.211   0.921  0.0561 -0.1313 -0.0491
31650W        W47724   6.576   4.054  10.111  0.0930 -0.0382  0.1497
31651W        W47725  13.995   4.655  16.147  0.1864  0.3614  0.3415
31652W        W47726   6.249  14.108   0.906 -0.1513  0.1110  0.3383
31653W        W47727  17.971  16.733   5.509  0.0398 -0.1379 -0.0330
31654W        W47728  13.790   7.157   3.147 -0.1908  0.0440  0.1246
31655W        W47729  13.089   2.656  11.648  0.5232  0.0662  0.3611
31656W        W47730  13.266  13.414  10.728 -0.0101 -0.1445  0.1736
31657W        W47731  13.041  15.236   1.788  0.1301 -0.0626  0.3149
31658W        W47732   3.856   1.228   1.909 -0.1588 -0.0058 -0.0264
31659W        W47733   6.693   4.079   5.001  0.3843 -0.0892 -0.1112
31660W        W47734  13.600   4.232  11.958 -0.1816 -0.2067  0.2162
31661W        W47735  15.143  14.786   3.011 -0.0602 -0.1680  0.1190
31662W        W47736  13.221   7.532  14.141 -0.3000 -0.0978 -0.0152
31663W        W47737   2.683   0.656   3.649  0.0381  0.1062 -0.0871
31664W        W47738  14.243  12.716   4.402 -0.0393 -0.2371 -0.4381
31665W        W47739  12.570   4.299  12.350  0.2675  0.0324  0.0177
31666W        W47740  13.086  10.523  12.168  0.1743  0.1559  0.1726
31667W        W47741  12.104  18.308   0.113  0.5106 -0.0159  0.0721
31668W        W47742  18.137  16.243  12.497 -0.2650  0.1990  0.0465
31669W        W47743   3.254  17.215   4.263 -0.1481 -0.0243  0.0629
31670W        W47744   0.396   4.879   4.748 -0.2397 -0.2171 -0.0209
31671W        W47745  11.165  10.568   4.517  0.0792 -0.2040  0.2812
31672W        W47746   0.380   8.089  11.928  0.0957 -0.0292 -0.3456
31673W        W47747   2.076   6.480  13.574  0.1300 -0.2025  0.0156
31674W        W47748   4.862  13.341  13.465 -0.2711  0.0168 -0.2427
31675W        W47749   0.546  10.060   4.183 -0.0851  0.1292 -0.1294
31676W        W47750  13.766   2.646   3.136  0.2298  0.1793 -0.4426
31677W        W47751   4.038   7.640   4.277  0.1372  0.4666 -0.3188
31678W        W47752  16.779  16.945  15.784  0.1584 -0.2329 -0.0696
31679W        W47753   0.341   4.810  16.021  0.1344  0.0925 -0.0330
31680W        W47754   5.901  17.318   4.246 -0.0476  0.0231  0.5458
31681W        W47755   3.935  15.597   1.352  0.1042  0.0052  0.1590
31682W        W47756   6.119   0.035   2.944 -0.1721 -0.3244 -0.2825
31683W        W47757   6.742  10.962  12.462  0.3255  0.0506  0.2580
31684W        W47758  11.976   7.842   1.786 -0.4080  0.0379 -0.2109
31685W        W47759   1.669  15.127   1.044  0.2320  0.3549 -0.1596
31686W        W47760   9.105  17.155   4.533 -0.1097 -0.3139 -0.0365
31687W        W47761   3.132   6.931   2.060  0.1817  0.1522  0.1079
31688W        W47762   3.553  13.500   2.491  0.0206  0.2050  0.1515
31689W        W47763   2.087  15.385   4.745  0.0019 -0.0496  0.0844
31690W        W47764   4.627  13.649  14.552 -0.1143  0.2839  0.0557
31691W        W47765  14.101   5.189  16.047  0.0707 -0.1752 -0.2569
31692W        W47766   9.264   9.269   5.197  0.0463 -0.4518 -0.0403
31693W        W47767  15.294  14.626   6.324  0.0595  0.0493  0.1421
31694W        W47768   9.871  17.441  11.409 -0.0504  0.2046 -0.1029
31695W        W47769   5.958  15.792   4.987  0.0105 -0.0922 -0.0289
31696W        W47770   6.014  11.283  10.626  0.0328  0.1677  0.1199
31697W        W47771  18.137  16.258  13.901  0.0112 -0.1135  0.2716
31698W        W47772  14.042  16.960  13.870  0.3240 -0.2896 -0.0392
31699W        W47773   6.941   9.898  15.310 -0.1467 -0.0332 -0.3095
31700W        W47774  10.307  17.934   0.942 -0.0103  0.2157  0.3679
31701W        W47775  12.470  17.409   4.543  0.2845  0.1950  0.1865
31702W        W47776   8.546   3.827  14.694  0.2584  0.0869 -0.4391
31703W        W47777   2.465  10.274  15.760  0.3896 -0.1795  0.0297
31704W        W47778  15.939   0.878  12.743 -0.0273 -0.1402  0.1033
31705W        W47779   8.510  15.502  14.084  0.0133  0.2080 -0.1809
31706W        W47780   4.124  17.753  14.689 -0.2047 -0.3634  0.0921
31707W        W47781  16.680  17.666  15.602 -0.0783  0.0219 -0.0486
31708W        W47782   3.909  14.005  12.534  0.0093 -0.1985 -0.1168
31709W        W47783   7.051   6.373   1.168 -0.2281 -0.2152  0.0979
31710W        W47784  10.728   6.670   2.395 -0.0970 -0.0536 -0.1914
31711W        W47785  14.508   7.115   4.504 -0.0094  0.1664 -0.0214
31712W        W47786   8.771   2.453   2.679 -0.2152  0.1963  0.0638
31713W        W47787   8.572  12.994   4.259  0.1853 -0.0451 -0.0640
31714W        W47788   1.066   3.904  15.037  0.0113 -0.0045  0.2335
31715W        W47789  11.360   0.995  15.644 -0.0776 -0.0892 -0.2473
31716W        W47790  12.730   0.625  13.499 -0.1764  0.0491 -0.0307
31717W        W47791  10.570   2.038   3.455  0.1413  0.1966  0.1402
31718W        W47792  11.282   3.870  14.979 -0.1192 -0.1195  0.0682
31719W        W47793   7.002   1.494   5.206  0.2263  0.5201  0.0618
31720W        W47794  12.306  15.763   3.796  0.1326  0.0476 -0.1743
31721W        W47795   4.207   2.025  12.790  0.1645 -0.0975  0.3596
31722W        W47796   3.772   1.690  12.954  0.0409 -0.0891  0.0664
31723W        W47797  16.815  10.522   2.756 -0.0419 -0.0885 -0.0555
31724W        W47798   7.315  10.667   5.140 -0.0247 -0.1772  0.0481
31725W        W47799   1.081  11.778   4.015  0.2512  0.1443  0.0507
31726W        W47800  10.277   7.083   9.738  0.1144 -0.0517 -0.1429
31727W        W47801  11.452   2.590   1.481 -0.4273 -0.2296  0.1122
31728W        W47802  12.150   4.000  13.702 -0.4557 -0.4223  0.0151
31729W        W47803   8.391  15.231  14.605 -0.0819  0.0510  0.0240
31730W        W47804   3.392  14.191   5.162 -0.0059  0.0799  0.1141
31731W        W47805   8.393  17.000  11.324 -0.0075  0.1049  0.0943
31732W        W47806   7.709  16.412  16.330  0.0811  0.1301 -0.0787
31733W        W47807   6.777   2.506   1.490 -0.0038  0.2788  0.2068
31734W        W47808  12.166  16.376  13.530 -0.0879 -0.2837 -0.2395
31735W        W47809  16.853   0.313  11.472  0.0621  0.1627 -0.3160
31736W        W47810   1.617   2.229  15.498 -0.0447  0.1062  0.1114
31737W        W47811  17.623  10.065   0.175 -0.1857 -0.0180 -0.0155
31738W        W47812   2.918  15.633   4.999 -0.2540 -0.0580  0.0684
31739W        W47813   9.559   9.573  14.985 -0.3167 -0.0163  0.1602
31740W        W47814   9.042   1.716  12.982  0.0534  0.1656 -0.0080
31741W        W47815  18.209   8.273   5.191 -0.1540  0.3971  0.4045
31742W        W47816   2.558   3.101  11.643 -0.0740 -0.2986  0.0518
31743W        W47817   9.652  16.814   3.836  0.1608 -0.1602 -0.2971
31744W        W47818  16.514  11.092   0.418 -0.0541  0.1232  0.1333
31745W        W47819   7.593   7.479   3.683 -0.2106  0.0116  0.1551
31746W        W47820   3.630  14.392   1.787  0.1012  0.1056 -0.1677
31747W        W47821   0.608   8.705   1.545  0.0908  0.2234 -0.1061
31748W        W47822  12.285   3.757  15.950  0.1370  0.0378 -0.6659
31749W        W47823   8.126  14.726  11.311  0.0833  0.1165  0.0102
31750W        W47824   2.564  16.887  12.285 -0.0176 -0.0563  0.2094
31751W        W47825   9.262  10.775   1.597  0.0154 -0.1681 -0.2345
31752W        W47826   4.133  14.209   4.684  0.1112 -0.1298 -0.1429
31753W        W47827   5.603   8.983   0.125  0.0311  0.0804 -0.0725
31754W        W47828   1.046   3.075  13.178 -0.2622  0.1198  0.0092
31755W        W47829  17.536  13.122   5.564 -0.0160 -0.1510  0.0201
31756W        W47830   2.687  10.309   3.461  0.1339  0.1179  0.0370
31757W        W47831   9.883   5.307  13.330 -0.2258  0.1073  0.2354
31758W        W47832  17.937   9.183   5.450 -0.2113 -0.2738 -0.0053
31759W        W47833   9.901   9.637   4.078  0.0969  0.0530 -0.0037
31760W        W47834   0.980   0.372   3.936  0.0079  0.0576 -0.2700
31761W        W47835  10.719   0.277   4.684 -0.4610  0.4047  0.1292
31762W        W47836   7.236   6.509   4.409  0.2088  0.0646 -0.0687
31763W        W47837   5.762   3.197   4.617 -0.1089  0.1121 -0.0627
31764W        W47838  15.163   6.177   4.013 -0.1076 -0.0118 -0.2084
31765W        W47839  11.150  13.867   2.840 -0.0656  0.0858  0.4742
31766W        W47840   8.406   7.654   6.009  0.1957  0.2103  0.2849
31767W        W47841   6.055   3.586  14.311  0.0625 -0.1662 -0.2095
31768W        W47842  13.997   7.482   4.483  0.2817 -0.3637  0.1814
31769W        W47843  17.386   2.938   5.542  0.0520 -0.1048 -0.2145
31770W        W47844   5.680   1.536   2.004  0.0487  0.1272 -0.2281
31771W        W47845  16.376   8.846  11.379 -0.0965 -0.2623  0.0496
31772W        W47846  12.582  14.415  12.345  0.0483  0.4385  0.1952
31773W        W47847  16.278   3.070  12.789  0.2878 -0.1071  0.0095
31774W        W47848   3.653   0.759  14.709  0.0928 -0.1054 -0.2055
31775W        W47849  15.868   6.473   2.096 -0.0241 -0.0000 -0.2901
31776W        W47850   3.245  17.332   4.764 -0.2239 -0.0405  0.0345
31777W        W47851   8.954  11.435   5.815  0.1264  0.0256 -0.0775
31778W        W47852  14.607   8.318  16.144  0.2413  0.0285  0.3678
31779W        W47853  17.156  15.172  12.329 -0.2519 -0.5024  0.0270
31780W        W47854   8.385  15.376  13.348 -0.0998 -0.0969 -0.1474
31781W        W47855  15.655   9.588   3.751 -0.4435 -0.0531 -0.2171
31782W        W47856  14.649  12.485  12.566  0.1781 -0.0505  0.0650
31783W        W47857   2.850   8.467   4.172 -0.2008 -0.0906 -0.1828
31784W        W47858  17.635   0.728   3.747  0.0541  0.1936 -0.0880
31785W        W47859   8.941   7.196   0.812  0.2569  0.1569  0.0242
31786W        W47860  13.692  10.757  13.605  0.0580  0.1120  0.0090
31787W        W47861   2.465  14.156  14.845  0.2103 -0.0016  0.1176
31788W        W47862  18.026  11.031   5.333 -0.1114 -0.1359 -0.1262
31789W        W47863  18.101   0.284  14.503  0.1280 -0.0901  0.2861
31790W        W47864  13.633   1.312   0.062  0.0039 -0.0273 -0.0791
31791W        W47865   4.575  17.370  15.689 -0.2101  0.4805  0.0004
31792W        W47866   7.489   7.138  16.011 -0.2943  0.0320 -0.2280
31793W        W47867   2.063  16.322   4.580  0.2296  0.0995 -0.0418
31794W        W47868  11.567   6.317   1.092 -0.0055  0.0397 -0.0774
31795W        W47869   1.091   1.293  14.120  0.0531 -0.0020  0.0340
31796W        W47870  12.821  12.310   3.232 -0.0430 -0.0598 -0.1690
31797W        W47871   0.098   3.926   1.106  0.0921 -0.2239 -0.0501
31798W        W47872  13.945   8.299   2.183 -0.2099  0.2335  0.0875
31799W        W47873  17.257   5.203  13.217 -0.1888  0.0987  0.1604
31800W        W47874  10.573   2.598  11.184 -0.3913 -0.4029 -0.1661
31801W        W47875   0.750   3.484   0.578 -0.0560  0.0502 -0.1682
31802W        W47876   8.831  16.789  15.516 -0.0843 -0.1784  0.1340
31803W        W47877  17.332   0.987  11.800  0.1479  0.5310 -0.2163
31804W        W47878   6.941  10.924   3.264 -0.0868  0.0140 -0.2793
31805W        W47879  13.645  17.920   4.032  0.0546  0.1934 -0.3054
31806W        W47880  16.530  13.469  15.557  0.2680  0.1767 -0.2741
31807W        W47881  16.535   5.214  15.623 -0.0260  0.0709 -0.0087
31808W        W47882   1.032   1.902   2.717  0.5298  0.3331  0.1051
31809W        W47883  14.325   1.039  12.077 -0.0681 -0.1515 -0.1817
31810W        W47884  17.818  15.133  10.440 -0.1539  0.1410  0.0221
31811W        W47885  16.307   4.303  15.022  0.2421  0.0018  0.1013
31812W        W47886   4.155   6.043   4.771 -0.0927  0.0199  0.1803
31813W        W47887   7.893   4.149  15.850  0.2483 -0.0316  0.0390
31814W        W47888  17.067  12.634  12.726  0.0630 -0.0712  0.0009
31815W        W47889   7.433  10.238   3.420  0.1096 -0.0858 -0.0957
31816W        W47890   5.605   0.338   5.755  0.2599 -0.3523  0.0019
31817W        W47891  18.253   6.628  14.991  0.0623  0.2067 -0.1843
31818W        W47892   5.858   6.104   0.730  0.3039  0.2048 -0.0323
31819W        W47893   7.178  14.416   3.841 -0.2620  0.0220 -0.2723
31820W        W47894  15.491  15.894   2.640  0.0624  0.3119  0.2913
31821W        W47895  12.489   1.473  13.029 -0.1172  0.0143  0.1141
31822W        W47896   9.318   3.185   2.251  0.3462  0.1618  0.2084
31823W        W47897   0.092  10.044  12.015 -0.0303  0.3713  0.1131
31824W        W47898   6.712   2.810  11.398 -0.0714 -0.1325 -0.0256
31825W        W47899   8.791  16.939   2.237 -0.2747 -0.1090 -0.2638
31826W        W47900   3.059   4.868  12.607  0.0739 -0.1705  0.3485
31827W        W47901  10.715   2.651   0.694 -0.0225  0.1388  0.0941
31828W        W47902  17.464   6.055   3.788 -0.0698 -0.0000 -0.0166
31829W        W47903   1.964   1.799   3.878  0.2285 -0.3982  0.0000
31830W        W47904   9.071   7.775   0.733 -0.0803 -0.0822  0.0013
31831W        W47905   6.753   0.766   5.332  0.1799 -0.1949 -0.0889
31832W        W47906   9.622  17.017  11.569  0.1808  0.2053 -0.0681
31833W        W47907   7.395   0.763   0.670 -0.1123  0.1727  0.0833
31834W        W47908  14.469   2.588  14.680 -0.2288  0.1574  0.2952
31835W        W47909  14.325   1.890  16.028  0.3732 -0.1968  0.0966
31836W        W47910   4.019  14.577   0.377  0.0208 -0.1593  0.1922
31837W        W47911   1.709   5.047  13.692  0.0363 -0.2881  0.2144
31838W        W47912  14.045   3.370   4.285  0.1046  0.2234 -0.0820
31839W        W47913   1.531   1.471   2.124  0.1158  0.0169 -0.0515
31840W        W47914   0.358   9.439  14.207  0.3136 -0.0460 -0.2412
31841W        W47915  15.346  15.541  14.993 -0.3279  0.0781  0.1365
31842W        W47916   0.345   8.413   1.889  0.0888 -0.1714 -0.1806
31843W        W47917   8.834  11.435   0.883 -0.0306  0.0062  0.0223
31844W        W47918  17.195   9.214  13.827 -0.1580 -0.2730  0.1662
31845W        W47919   1.112   1.988   1.252  0.1912 -0.3356 -0.3616
31846W        W47920   0.649   2.902   6.848  0.0864 -0.0265  0.1339
31847W        W47921   3.456   5.316  16.374 -0.1330 -0.0871  0.0128
31848W        W47922  10.388  13.222   5.304 -0.1747  0.0463 -0.4553
31849W        W47923   7.978   3.742   0.750  0.0720 -0.1062 -0.2461
31850W        W47924   3.029   7.724   4.324  0.1415  0.0506  0.0314
31851W        W47925  17.397   0.830   5.182 -0.2492 -0.1346  0.0254
31852W        W47926   1.186   6.892  15.675  0.0524  0.1214 -0.2018
31853W        W47927   0.208   7.661  14.227  0.2057  0.1227 -0.0764
31854W        W47928   2.680   5.805   4.577 -0.0110  0.2640  0.1822
31855W        W47929  13.296  15.617  13.077  0.0847 -0.4566  0.0338
31856W        W47930  16.180   5.855   5.171  0.0926 -0.0752 -0.1468
31857W        W47931  13.406   7.763   1.454  0.0026  0.1719 -0.1470
31858W        W47932  12.570   7.581   2.929  0.2415 -0.0172  0.0076
31859W        W47933  15.187  11.788   5.101 -0.0564 -0.2508  0.5144
31860W        W47934   1.420   1.571   0.507 -0.1495  0.1404  0.0697
31861W        W47935   8.362  14.979  16.142 -0.0564 -0.4650  0.1634
31862W        W47936  17.860   3.682  14.799 -0.1252 -0.0407 -0.1297
31863W        W47937   8.930   8.591   1.404 -0.0701  0.2105  0.0434
31864W        W47938   0.382  11.523  15.113  0.0045 -0.3121  0.0779
31865W        W47939  10.283   7.013  12.813 -0.1260 -0.1152  0.2012
31866W        W47940  15.212   6.427  13.362 -0.1663  0.1277  0.0828
31867W        W47941   2.823   9.458  13.361 -0.0787  0.2434  0.0290
31868W        W47942   7.017   3.885   2.364 -0.0753  0.0151 -0.0205
31869W        W47943  16.000  16.728  11.364 -0.1674  0.1522 -0.3311
31870W        W47944   0.421   6.907  13.844 -0.0965  0.4819  0.1080
31871W        W47945   0.578  16.749  12.942  0.0539 -0.1449  0.3673
31872W        W47946  18.100  18.146  15.623 -0.2290  0.1860 -0.2854
31873W        W47947  11.961  17.898   0.984  0.2664 -0.0581 -0.0482
31874W        W47948   3.470  14.394  15.830 -0.1688  0.0368 -0.1305
31875W        W47949  17.416   9.991  14.689 -0.2116  0.1300 -0.0621
31876W        W47950  10.822  13.706  15.127 -0.1467  0.3081 -0.0980
31877W        W47951   3.381  11.683  11.416 -0.1390 -0.2142  0.0578
31878W        W47952   0.215  13.898   3.063  0.0365 -0.4091  0.1774
31879W        W47953  11.708  11.460  13.216  0.1316 -0.0859  0.1852
31880W        W47954   7.824  17.158  14.364  0.2634  0.0192  0.0330
31881W        W47955   1.013   4.902   3.057 -0.2752 -0.0792  0.0316
31882W        W47956  17.856   2.608  14.981  0.0314 -0.2050  0.0100
31883W        W47957   0.670  17.627  15.592  0.0514 -0.0909 -0.1035
31884W        W47958   3.266  14.809  14.062 -0.2447  0.0856 -0.1344
31885W        W47959   0.840  10.358  12.647  0.1018 -0.1851  0.1277
31886W        W47960  16.686   9.151  13.888 -0.1362  0.1751  0.0903
31887W        W47961   6.073   3.375  13.125 -0.0222 -0.0403  0.1794
31888W        W47962   3.935  17.576  11.808 -0.1879  0.0924  0.0289
31889W        W47963  17.741  10.520   3.881  0.0434 -0.2210 -0.1416
31890W        W47964  10.274   0.012   0.299  0.1050 -0.1700  0.0595
31891W        W47965   2.599   4.428   1.347 -0.0738 -0.0651  0.2820
31892W        W47966   1.363  14.860   4.788  0.4797 -0.0685 -0.1376
31893W        W47967   1.062   9.581  12.674 -0.1502 -0.0354 -0.0487
31894W        W47968   4.498   1.607  12.497 -0.0194  0.1885 -0.0073
31895W        W47969  14.713   9.173  14.047 -0.2255  0.0409 -0.1950
31896W        W47970   8.549   7.300  16.019 -0.3066 -0.1703 -0.0777
31897W        W47971   9.299  11.420   0.195  0.1622 -0.1175 -0.1251
31898W        W47972  14.618   6.349  15.511  0.1252 -0.1149 -0.1197
31899W        W47973   3.596  18.085   3.491 -0.2439 -0.0512 -0.2690
31900W        W47974   1.827   6.088   2.743  0.1067 -0.2231  0.0544
31901W        W47975  10.975  17.580   0.648 -0.1713  0.3255 -0.2088
31902W        W47976   8.782   7.507   0.411 -0.0942  0.3337  0.4500
31903W        W47977  13.429   8.829  14.487  0.1036  0.0613 -0.0155
31904W        W47978   5.008  15.143  12.092 -0.1932  0.0067 -0.0845
31905W        W47979  17.580  16.313   2.104 -0.0237  0.0813 -0.1120
31906W        W47980   5.310  10.011  15.560 -0.0289  0.0702  0.3141
31907W        W47981  13.064   8.665   1.976  0.0959 -0.2946 -0.0489
31908W        W47982   1.249  14.597   1.721  0.1195 -0.0546 -0.1939
31909W        W47983  12.697  11.820   1.513 -0.2014  0.3534  0.2911
31910W        W47984  18.258  10.856  12.239  0.2156  0.0972 -0.4317
31911W        W47985   2.115   5.729  14.424  0.2625 -0.0248 -0.0926
31912W        W47986   2.940   4.215  13.345  0.1330  0.1177  0.1097
31913W        W47987  15.567   2.283   2.045  0.2742 -0.0687  0.2185
31914W        W47988   5.040  11.032  14.205  0.1284 -0.2228  0.0829
31915W        W47989  15.133   0.661   1.059  0.4301 -0.1163 -0.3084
31916W        W47990  13.034   2.021   3.503  0.6014  0.3053 -0.4667
31917W        W47991  15.611  11.841  13.332 -0.1004  0.0563 -0.2316
31918W        W47992  15.168  16.838  14.856 -0.0182  0.1757 -0.0466
31919W        W47993   7.317  17.835  14.180 -0.1036  0.4155  0.0807
31920W        W47994  15.349   6.526  12.538  0.1559 -0.1276 -0.1860
31921W        W47995  10.697   4.780   4.707 -0.0632  0.1163 -0.1741
31922W        W47996  11.693   0.458  14.235  0.1535 -0.0836 -0.1971
31923W        W47997  14.626  10.315   3.039 -0.0246 -0.0822 -0.3096
31924W        W47998  18.197   8.589   3.386  0.0805 -0.1988 -0.1861
31925W        W47999  11.342   1.073   1.895 -0.5296  0.0616  0.1546
31926W        W48000   5.902  10.400   2.002 -0.2041  0.1050 -0.0702
31927W        W48001  12.354   5.195  15.274 -0.1468 -0.1102 -0.0003
31928W        W48002   2.610   2.654  12.390 -0.2575  0.0052  0.1606
31929W        W48003  13.777   5.412   0.891 -0.0779 -0.0331  0.1695
31930W        W48004  14.512   4.703  12.886  0.1163  0.0148 -0.0822
31931W        W48005   8.447   8.498  14.239 -0.0429  0.0912  0.2273
31932W        W48006  10.791  16.652   0.714  0.0995 -0.2937  0.4395
31933W        W48007   7.614   6.957   1.638 -0.1531  0.3311 -0.2217
31934W        W48008   8.564   7.843  15.071  0.0168  0.0751  0.2011
31935W        W48009  15.994  17.097   1.607 -0.1156 -0.1215 -0.0474
31936W        W48010  16.727   7.926   1.706 -0.0467  0.0749 -0.0885
31937W        W48011   6.472  18.003  10.887 -0.0124 -0.1304  0.1396
31938W        W48012   6.939  12.201  14.862  0.0401 -0.0816  0.0789
31939W        W48013  15.663  15.460   4.007 -0.0052  0.0931 -0.0937
31940W        W48014  16.381  15.370  13.735 -0.3694  0.0493 -0.2515
31941W        W48015  13.423   1.134   2.981  0.1822 -0.3203 -0.2058
31942W        W48016   4.197   1.596   0.315  0.3036 -0.1222  0.0960
31943W        W48017  13.703  13.934  11.865  0.1128  0.4493  0.2080
31944W        W48018   3.572   2.050   5.680  0.2665  0.2021 -0.3684
31945W        W48019  18.128   5.601  14.963 -0.0608  0.1246 -0.2051
31946W        W48020   6.485  15.205   2.665  0.0779  0.2831 -0.1120
31947W        W48021  14.800   4.437   0.418  0.1088 -0.0817  0.1558
31948W        W48022  13.150   8.624   1.094  0.1536  0.0105  0.1659
31949W        W48023  12.755   5.292  13.761 -0.2515 -0.2035 -0.1291
31950W        W48024   5.037   8.623  12.639  0.0697 -0.1646  0.0331
31951W        W48025   6.473   4.042  11.941  0.2932  0.2246 -0.2598
31952W        W48026  12.766   3.917   2.941 -0.2468 -0.1502 -0.0872
31953W        W48027  11.036   4.043   3.194  0.0849  0.0962 -0.0556
31954W        W48028  11.372   1.479  13.027 -0.0691  0.3587 -0.1573
31955W        W48029  10.538   6.438   3.385  0.0757 -0.1167  0.1249
31956W        W48030   2.186   1.550   4.664  0.1659 -0.2338  0.0107
31957W        W48031   8.538  17.406   2.151  0.0342 -0.4029  0.0299
31958W        W48032   4.318  14.029   4.107 -0.0232 -0.1171  0.0015
31959W        W48033  14.929  16.111   6.386  0.0005  0.1189 -0.0733
31960W        W48034  10.158   8.460   3.537  0.3468 -0.2405 -0.1363
31961W        W48035  11.022   2.232  11.158 -0.1204  0.1466 -0.0602
31962W        W48036   1.652  13.430  13.935  0.2839 -0.1473 -0.3151
31963W        W48037  14.761   8.452   2.371 -0.1527 -0.0465  0.0031
31964W        W48038  10.481   1.090   3.489  0.0864 -0.0067  0.1891
31965W        W48039  15.300   9.398  14.936  0.0436  0.1782  0.0782
31966W        W48040  15.765  11.238  13.964 -0.1441  0.2545 -0.2950
31967W        W48041  10.025  13.825  13.193  0.1846  0.2288  0.2516
31968W        W48042   1.024   7.410   2.190 -0.0885 -0.0016 -0.1630
31969W        W48043  16.045   1.539   3.530  0.4834 -0.1778 -0.0635
31970W        W48044   8.347   2.080  16.276  0.1700  0.0767  0.1353
31971W        W48045  13.928  12.810  12.963  0.0197  0.1370 -0.0863
31972W        W48046   5.335  12.881  15.170  0.0787  0.0171 -0.3679
31973W        W48047  14.692   1.891  13.910 -0.0548 -0.2471  0.2044
31974W        W48048   8.507   7.736  12.401 -0.3078 -0.0844 -0.2283
31975W        W48049  14.388   3.096  13.672 -0.1381  0.0966  0.1421
31976W        W48050   6.200  17.574   3.953  0.3995  0.3722  0.0178
31977W        W48051   5.339  11.334   2.770 -0.0442 -0.1993  0.1736
31978W        W48052  13.957  14.179   3.877  0.2194 -0.2560 -0.1251
31979W        W48053  16.136   7.429  12.673 -0.1216  0.0303  0.0130
31980W        W48054  14.171   6.174  16.286 -0.1684 -0.4740  0.2849
31981W        W48055   6.498  13.739  14.714 -0.0650  0.0789 -0.1123
31982W        W48056  13.890   8.075   1.207 -0.1038  0.1451  0.0119
31983W        W48057  16.097   0.251   4.294  0.2757 -0.3103  0.1775
31984W        W48058  16.458   2.928   3.256 -0.3800 -0.0852 -0.0972
31985W        W48059  13.006   9.263  13.506  0.0829  0.0002 -0.2727
31986W        W48060   4.321   0.767   0.557  0.2844 -0.0287 -0.2019
31987W        W48061  14.715  11.080   3.477 -0.2016 -0.1623  0.1706
31988W        W48062   6.645  14.837   1.490 -0.3872  0.0964 -0.0401
31989W        W48063   8.702   0.686   2.564  0.0345 -0.1524  0.0123
31990W        W48064  15.685   7.621  13.582 -0.0492 -0.1519  0.0631
31991W        W48065  10.006  14.972  15.259  0.3997  0.4649  0.1794
31992W        W48066  14.101   6.275   5.008  0.1697  0.1742  0.0374
31993W        W48067   6.717   2.744   5.042  0.1782  0.2508 -0.0246
31994W        W48068   6.214   1.257  13.914  0.0308  0.0698 -0.0192
31995W        W48069   6.570   6.159   3.719 -0.2783  0.1231 -0.3441
31996W        W48070  16.309   3.187   3.812 -0.2517  0.2125 -0.1076
31997W        W48071   9.486   1.876   5.747  0.0849  0.3222  0.0877
31998W        W48072   4.809   1.205  13.040 -0.0467 -0.1712 -0.2305
31999W        W48073   1.066   0.025  15.325 -0.3106 -0.0501  0.3099
32000W        W48074  16.031   3.195   5.428 -0.2801 -0.2542 -0.2127
32001W        W48075   5.294   0.655   5.486 -0.0235 -0.0273 -0.3653
32002W        W48076   7.908   9.377  12.510 -0.1816 -0.0939 -0.2669
32003W        W48077   6.202   6.224  11.442  0.0440  0.3724 -0.1021
32004W        W48078  17.680   6.305  10.991 -0.1786 -0.0920 -0.1269
32005W        W48079  15.449  13.474  14.445 -0.1864  0.2685 -0.2001
32006W        W48080  15.391   0.043  13.126  0.0375 -0.0328  0.1052
32007W        W48081  15.170  14.343   3.254  0.1117 -0.3158  0.0591
32008W        W48082   6.478   1.215   1.788 -0.2556  0.0011 -0.0194
32009W        W48083  12.634  10.241  13.260 -0.1733  0.0044 -0.0842
32010W        W48084  14.034  15.252  13.226 -0.1577 -0.2235  0.1310
32011W        W48085   5.669   8.389  14.030  0.0962  0.1508  0.3842
32012W        W48086  13.506  13.238   5.253  0.4233  0.1311 -0.0802
32013W        W48087  12.728  10.901   1.216 -0.0697  0.1407 -0.1601
32014W        W48088  12.272  12.413   2.999  0.1818 -0.3104  0.1206
32015W        W48089  14.865   5.521   1.041 -0.1505  0.1301  0.0498
32016W        W48090   5.110  16.740  16.226 -0.1709  0.0944 -0.0510
32017W        W48091   7.758   9.020  15.819 -0.0059  0.0740  0.2736
32018W        W48092  16.393   0.591   1.276 -0.1165  0.1474  0.0782
32019W        W48093  15.240  14.589  16.283  0.2551  0.1773 -0.0943
32020W        W48094   0.149  15.100  15.932  0.2086 -0.2283  0.0565
32021W        W48095  14.614   0.587  13.526  0.1310  0.1567 -0.0245
32022W        W48096   3.231  17.439   2.497 -0.0428  0.0871  0.3757
32023W        W48097  14.646   7.820   2.127 -0.0465  0.0271  0.1667
32024W        W48098   1.057   3.051   0.487  0.0887 -0.2781 -0.1338
32025W        W48099  17.800  12.479   0.895  0.1514  0.0689 -0.0739
32026W        W48100  16.321   3.947   3.020  0.0804  0.0364 -0.0606
32027W        W48101   8.979   2.167   1.450  0.0195  0.4291 -0.0427
32028W        W48102   2.676   7.036   1.711  0.2647  0.0968  0.1863
32029W        W48103   5.500  10.176  11.922  0.1481  0.1483 -0.1148
32030W        W48104  14.603  15.920   3.985 -0.0201 -0.1926 -0.3285
32031W        W48105   4.024   2.710   0.638  0.0924  0.1012 -0.0397
32032W        W48106  17.431   5.058  12.753  0.0144  0.3812  0.1694
32033W        W48107   0.901  14.310   4.539 -0.0007 -0.2055  0.1949
32034W        W48108   1.180   6.589   2.168  0.0848  0.1038 -0.0269
32035W        W48109   6.439   8.271  13.908 -0.0901  0.0195  0.0170
32036W        W48110  13.676  15.057   3.631  0.2037 -0.1684  0.3118
32037W        W48111   4.444   4.323   4.692 -0.3669 -0.1317 -0.0962
32038W        W48112   4.724  10.707  14.417  0.3243  0.0807 -0.0260
32039W        W48113   0.952  15.927  13.189 -0.1201 -0.0642  0.0390
32040W        W48114   5.952  17.922   2.575  0.1746 -0.0765  0.1783
32041W        W48115   5.678   6.201   6.111 -0.1542 -0.0605  0.1905
32042W        W48116  18.154  17.820  14.072 -0.5396 -0.1866 -0.2463
32043W        W48117  11.499   0.803  13.887 -0.4725 -0.0902  0.2272
32044W        W48118   6.783   1.293   4.730  0.0082  0.0700  0.2456
32045W        W48119   8.333   3.409   0.098 -0.1447  0.0541 -0.5723
32046W        W48120  11.852  17.759  11.202  0.0309  0.1140 -0.0369
32047W        W48121   5.050   7.990   3.682  0.0248  0.1220 -0.0963
32048W        W48122   3.835   5.174  13.748  0.3508 -0.1873  0.1601
32049W        W48123   9.647   6.994   1.395 -0.0949 -0.0432  0.0057
32050W        W48124   9.851  14.991  16.100  0.0621 -0.2130 -0.1052
32051W        W48125  13.730   4.108  11.288 -0.2760 -0.1193  0.0180
32052W        W48126  15.708   7.631  12.759  0.0908 -0.0158  0.0889
32053W        W48127  16.590   2.177   0.148  0.3417  0.1277  0.3214
32054W        W48128  10.177  15.196  12.709 -0.2961 -0.0385  0.0571
32055W        W48129  13.206   4.817   4.858 -0.1390 -0.1085 -0.0531
32056W        W48130   5.403  14.870   3.570 -0.0058  0.1399 -0.2161
32057W        W48131   0.370  14.423   6.081 -0.1573  0.1318  0.2411
32058W        W48132  17.619   9.899   5.716  0.0403 -0.0746  0.1636
32059W        W48133  13.046   2.545  12.192 -0.0261 -0.2264  0.2775
32060W        W48134   1.454  11.754  11.682 -0.0500 -0.2498  0.1233
32061W        W48135  14.118  12.647  11.660  0.2840  0.2269 -0.0420
32062W        W48136   0.242  16.772  12.131 -0.0274  0.1045  0.2586
32063W        W48137   2.679   2.924   0.313  0.1241 -0.1071 -0.0023
32064W        W48138   5.861   0.884  13.162 -0.0391  0.0934  0.0423
32065W        W48139  12.970   9.692  14.934 -0.0232 -0.0251 -0.0480
32066W        W48140  13.469   8.903   3.318 -0.1942 -0.4420  0.0775
32067W        W48141   6.124  15.957   3.619  0.1195  0.1133 -0.0208
32068W        W48142  15.313   6.481   4.416  0.2203  0.0462 -0.0655
32069W        W48143  14.757   6.219   3.746 -0.0256  0.2858  0.1371
32070W        W48144   9.711   1.483  13.745  0.1197  0.0541  0.1178
32071W        W48145   2.097   4.636  14.324 -0.0038 -0.2233  0.2678
32072W        W48146  15.699   2.046  12.197 -0.0761  0.0249  0.3282
32073W        W48147  16.407   3.745   1.141 -0.0253 -0.0322  0.0290
32074W        W48148  12.138   2.274   2.207 -0.0777  0.3105  0.0162
32075W        W48149  11.834  14.418   0.379  0.1000 -0.1565 -0.1654
32076W        W48150   8.723   5.932  11.466 -0.3250 -0.2546  0.2581
32077W        W48151   7.636   4.208  14.715 -0.4117 -0.1274 -0.1646
32078W        W48152   1.112   8.641  11.053 -0.0344  0.3618 -0.2593
32079W        W48153  10.954   7.419   1.065 -0.0643 -0.2578  0.0232
32080W        W48154  12.072   6.313   3.506  0.0917 -0.1784 -0.2510
32081W        W48155   2.848   4.881   0.247 -0.0980 -0.1026 -0.1172
32082W        W48156   6.455   3.513  16.025  0.2076  0.2554 -0.2823
32083W        W48157   4.405  10.659  13.191  0.0044  0.0863 -0.2458
32084W        W48158   7.896  11.546   4.244  0.1276  0.1092 -0.0767
32085W        W48159   2.845   5.355  15.550  0.2880 -0.0334 -0.0723
32086W        W48160   9.033   6.605  15.661 -0.4755  0.2385 -0.1246
32087W        W48161  17.394   0.169   5.048  0.1325  0.0439 -0.1340
32088W        W48162  13.120   8.177   0.068 -0.4908  0.3547 -0.1897
32089W        W48163   7.450   3.831   0.875  0.2220  0.1012 -0.1231
32090W        W48164  10.990   5.182   2.854  0.0646 -0.1848 -0.0480
32091W        W48165  11.477   4.127  11.403 -0.2388  0.0234 -0.3052
32092W        W48166  11.241   2.505  16.091 -0.1179 -0.0936 -0.1098
32093W        W48167   6.544  12.695  16.059  0.2002 -0.1152 -0.0923
32094W        W48168  11.571   9.063   0.580 -0.1621 -0.0493 -0.0032
32095W        W48169  17.683  13.121   0.395  0.1838  0.1227  0.0499
32096W        W48170  13.726   7.934   1.803  0.0335  0.0367 -0.0123
32097W        W48171   7.223  15.640   0.995  0.1011 -0.0599  0.1885
32098W        W48172   0.397  16.238  11.241 -0.2277 -0.0354  0.0970
32099W        W48173  13.521   9.381  13.272  0.1792  0.0005 -0.0031
32100W        W48174  17.301   2.698  12.229  0.3098 -0.2731 -0.2584
32101W        W48175  10.115   4.394   1.013 -0.0671  0.0229 -0.1069
32102W        W48176   2.224   1.394   0.564 -0.2491  0.1742  0.0121
32103W        W48177  15.320  11.418  13.222  0.0437 -0.1111 -0.1033
32104W        W48178   9.289   2.297   0.309  0.0685 -0.4062  0.1724
32105W        W48179   4.253  17.050   3.793  0.0227  0.4415 -0.1171
32106W        W48180  16.034  15.091   0.074  0.2834  0.0501  0.0851
32107W        W48181  16.888   2.157  13.803 -0.1684 -0.1247  0.0457
32108W        W48182   0.886   0.228  16.095 -0.0696  0.0975 -0.0141
32109W        W48183  11.957   4.499   3.157  0.1650 -0.2792  0.2182
32110W        W48184  16.881   3.548   6.029  0.0187  0.3642  0.3011
32111W        W48185  12.558  10.046   3.848  0.0569 -0.2066 -0.3123
32112W        W48186   6.420  10.867   1.402  0.2604  0.2255 -0.0450
32113W        W48187   7.583   5.341  11.396 -0.2562 -0.3162 -0.3780
32114W        W48188  10.959  15.225   3.180 -0.1047  0.2204  0.1315
32115W        W48189  16.197  18.184   1.152 -0.2665 -0.1019 -0.1976
32116W        W48190   8.446  13.707  13.268  0.0266  0.3991 -0.0487
32117W        W48191  17.494   0.468   4.124 -0.1017  0.2571 -0.0404
32118W        W48192   4.917   6.214  14.003 -0.0259 -0.0152  0.1978
32119W        W48193   6.617  14.815   5.366  0.0275 -0.1717  0.3903
32120W        W48194  15.114   3.163  12.905  0.2253 -0.0504  0.2157
32121W        W48195  16.452   8.717   5.644 -0.0861  0.0556 -0.0966
32122W        W48196  17.908   3.066   1.663 -0.1944  0.1785 -0.1001
32123W        W48197  17.177  10.179   4.522  0.1668 -0.3301 -0.1689
32124W        W48198  12.723  17.337   0.823 -0.0323 -0.0812 -0.3251
32125W        W48199   1.933   7.623   6.054 -0.3215 -0.1499  0.1712
32126W        W48200  18.248  16.467   5.088  0.0129  0.0712  0.0212
32127W        W48201   4.017   8.003  13.976 -0.0179 -0.3215  0.0428
32128W        W48202  18.020   6.900  12.169 -0.1058 -0.1031 -0.1690
32129W        W48203  13.167   2.884  15.068  0.4254  0.2966  0.0019
32130W        W48204   2.348  14.728  13.014  0.1862 -0.0987 -0.0703
32131W        W48205   9.471  16.733  15.601 -0.2632 -0.2412  0.0612
32132W        W48206   1.990   9.283  15.124 -0.0116  0.4017 -0.0962
32133W        W48207  13.633   3.925  13.510  0.2187 -0.1795  0.2749
32134W        W48208   4.212   3.198   5.749  0.3920  0.6295  0.1585
32135W        W48209   0.909   4.689   2.602  0.1906 -0.0319  0.0797
32136W        W48210   4.844   8.129   5.370 -0.1314  0.0378 -0.1719
32137W        W48211  13.873   3.928   1.498  0.2379  0.1072  0.2316
32138W        W48212  11.587   3.393  14.869  0.2683  0.1713  0.2464
32139W        W48213   4.015  16.222  16.178 -0.0838  0.0124 -0.0663
32140W        W48214   6.112   5.898   2.739  0.0697 -0.1157 -0.0120
32141W        W48215   3.092   6.938  11.282 -0.0131  0.0605 -0.0139
32142W        W48216  11.363   9.874  12.419 -0.0330  0.1320 -0.1990
32143W        W48217   9.436   2.180   6.146 -0.0802  0.3361  0.0357
32144W        W48218  12.311  13.203   1.458 -0.0669 -0.1515  0.0839
32145W        W48219   4.917  10.398   2.969  0.1957  0.3955 -0.0238
32146W        W48220  14.403  12.588   2.514 -0.0566 -0.1716  0.3049
32147W        W48221  14.065   2.992  14.060  0.1024  0.0271  0.2921
32148W        W48222  10.782   3.628  10.929  0.1403  0.0350  0.0025
32149W        W48223   0.133  10.027   2.891  0.1010  0.2956  0.2852
32150W        W48224   5.314  10.296   4.423 -0.1492 -0.4000  0.0682
32151W        W48225  17.107   4.650  16.320 -0.1009  0.1770  0.0533
32152W        W48226   5.304  17.799  12.190 -0.0178  0.1817 -0.1297
32153W        W48227   4.812  12.030   4.227  0.0312 -0.0063 -0.0617
32154W        W48228  13.007  16.128   6.017 -0.1140  0.0485 -0.3423
32155W        W48229  18.070  10.138   4.119  0.2731 -0.1342  0.0392
32156W        W48230   2.732  14.297  12.154 -0.0792  0.0681 -0.0315
32157W        W48231  14.927   3.174  14.095 -0.2178  0.2555 -0.1638
32158W        W48232  12.701  16.519  13.390  0.3910 -0.2267  0.1297
32159W        W48233  18.103   6.085  15.827 -0.1056 -0.0976 -0.1949
32160W        W48234   4.663  17.812  10.862  0.1478 -0.4449  0.0708
32161W        W48235   9.180   8.951  16.158  0.2269 -0.3751  0.2694
32162W        W48236   1.362   1.035  13.724 -0.1551 -0.2853 -0.1068
32163W        W48237   3.605   8.475   1.449 -0.0897  0.0828  0.0020
32164W        W48238  12.087  16.342  12.677 -0.1606 -0.0231  0.0538
32165W        W48239   7.519  15.390   5.530 -0.2494 -0.0875  0.0823
32166W        W48240   6.941  13.269   0.710 -0.0994  0.0623  0.1105
32167W        W48241  13.203   7.142   0.346  0.0993 -0.3111  0.0870
32168W        W48242   7.856  11.113   0.993  0.1439  0.1378  0.0164
32169W        W48243   4.539  15.763  13.759 -0.2424  0.1564  0.1025
32170W        W48244   2.808  17.421   4.414 -0.0409  0.1657  0.3451
32171W        W48245  13.169   3.608   4.397 -0.1961  0.1209  0.3556
32172W        W48246  17.886   2.968  12.733 -0.0577  0.1719  0.2889
32173W        W48247  18.320  16.606   3.027  0.1179 -0.0692  0.1659
32174W        W48248  10.441  17.840  15.647 -0.0145 -0.0421  0.0561
32175W        W48249  14.148  13.996   2.067 -0.1146  0.0526 -0.2560
32176W        W48250   1.858  17.488  14.689  0.0633 -0.1353 -0.3253
32177W        W48251  17.058  13.715  14.230 -0.0450 -0.0796 -0.1778
32178W        W48252   5.792   6.486  16.147 -0.1813 -0.2317  0.1073
32179W        W48253   7.135  13.308  15.029  0.1096 -0.3960  0.0835
32180W        W48254   0.478   4.374   4.608  0.1400  0.1295  0.2203
32181W        W48255   9.821  14.002  14.712  0.0461 -0.1580  0.1362
32182W        W48256  13.172   7.991  13.963 -0.1622  0.1349 -0.0645
32183W        W48257   0.354   9.571   2.941  0.0172 -0.0974 -0.0570
32184W        W48258  11.491  17.365  11.215 -0.2584  0.0379  0.1757
32185W        W48259  13.048  11.885  12.156 -0.0379  0.0541  0.1407
32186W        W48260   8.209   1.851   3.152 -0.2411  0.2072  0.1889
32187W        W48261  10.196   2.436   2.788  0.1342  0.0590  0.1289
32188W        W48262   5.496  16.015   4.973  0.4512 -0.3121 -0.0542
32189W        W48263  14.379  18.291  15.236  0.3740 -0.1415  0.0275
32190W        W48264   1.327  14.834  14.060  0.0246 -0.1069 -0.0727
32191W        W48265   1.907  14.822   6.238 -0.1074 -0.0096  0.1235
32192W        W48266  16.775   8.161   3.981  0.0295 -0.0275 -0.1625
32193W        W48267   1.322  14.283  12.578 -0.0389 -0.3131  0.1723
32194W        W48268  17.767   5.107  16.049  0.0502  0.0780 -0.1137
32195W        W48269  10.879   3.158   0.755  0.1322 -0.0132 -0.1372
32196W        W48270   2.887   7.615   3.875  0.0584  0.0132 -0.1141
32197W        W48271   0.395   0.931   0.137 -0.0023 -0.0915  0.1493
32198W        W48272   1.837   5.629  13.990 -0.0270  0.1969  0.1085
32199W        W48273   6.073   4.137  12.393  0.3081  0.2443 -0.0252
32200W        W48274   1.714  14.205  15.414  0.1411  0.2069  0.1216
32201W        W48275   5.549  17.722   0.078 -0.1434 -0.0072  0.3678
32202W        W48276  16.269  12.694   0.420  0.3794  0.1608 -0.3350
32203W        W48277   9.920  10.995   3.968  0.0168  0.0291 -0.0640
32204W        W48278  11.553  17.165  14.102 -0.0285 -0.0804 -0.4664
32205W        W48279   4.102   6.518   4.616 -0.0412  0.0591  0.3335
32206W        W48280   5.108  13.715  11.201 -0.1619  0.0562  0.0541
32207W        W48281  13.616  17.432  15.104  0.1299 -0.0280  0.2794
32208W        W48282  16.125  12.700  13.798 -0.0778 -0.3050  0.0093
32209W        W48283  12.775   5.233  12.199  0.0973 -0.0421  0.0836
32210W        W48284  13.973   2.517  13.248 -0.1764 -0.1063 -0.1493
32211W        W48285   5.561  14.034  12.553 -0.0273  0.0091 -0.0033
32212W        W48286  14.117   0.363  13.612  0.1304  0.1365  0.3059
32213W        W48287   3.083   6.533  13.240  0.0056  0.1034  0.1943
32214W        W48288   4.676   6.906   1.656 -0.1696  0.0187 -0.0130
32215W        W48289   2.091  13.759   4.660 -0.2054 -0.0916 -0.1481
32216W        W48290   8.648  10.791  13.162 -0.3778  0.2882 -0.2692
32217W        W48291   2.348  15.052   1.045  0.3795 -0.0421  0.0410
32218W        W48292   0.680   9.163   4.663  0.0308 -0.1961  0.3665
32219W        W48293  10.735  16.821   1.314 -0.3138  0.0575 -0.1707
32220W        W48294   2.620   3.001   4.221  0.5415 -0.1626 -0.2108
32221W        W48295   1.703   9.207  13.047  0.0579  0.1150 -0.2262
32222W        W48296   1.506  14.955  13.613  0.2162 -0.5667 -0.1871
32223W        W48297   8.269   7.390  14.735  0.3496  0.2694 -0.0444
32224W        W48298  11.999  16.427   5.335 -0.1438  0.0383  0.0192
32225W        W48299   1.036  13.550  11.626  0.3711  0.0414  0.1681
32226W        W48300   4.273   1.465  12.922 -0.0549  0.2671 -0.0075
32227W        W48301  17.199   9.777   2.882  0.4681 -0.1056  0.1935
32228W        W48302  10.282   7.958   3.424 -0.2423  0.0702  0.0584
32229W        W48303  15.758  17.112  13.536  0.2000  0.1332 -0.0935
32230W        W48304   0.219   9.070  11.849  0.3235  0.2343 -0.2865
32231W        W48305   4.810   0.848   4.704 -0.0250  0.1730 -0.0006
32232W        W48306   6.896   8.033   2.833 -0.2886 -0.1368 -0.1650
32233W        W48307   3.142  11.495   2.218  0.3165 -0.0945  0.0238
32234W        W48308  16.662   7.913  15.637 -0.0657  0.3644 -0.2817
32235W        W48309  10.833   1.780  11.145  0.3605 -0.3230  0.2492
32236W        W48310   0.745  13.307  16.396 -0.1685 -0.1342  0.0498
32237W        W48311   7.077  14.187   1.945 -0.0253  0.0298 -0.4017
32238W        W48312   9.282  11.837  16.014  0.2355  0.1923 -0.2332
32239W        W48313   7.792   1.505   4.490 -0.0451  0.0128 -0.1064
32240W        W48314  11.757  16.863  15.999 -0.0604  0.2466  0.3203
32241W        W48315   6.007  11.624   1.012  0.2583  0.0442  0.0125
32242W        W48316   0.226   0.252   3.110 -0.3599  0.0660 -0.0125
32243W        W48317   1.039   0.863   4.825 -0.1300 -0.1633  0.1046
32244W        W48318   7.261   0.150  13.505 -0.1040  0.3272 -0.2175
32245W        W48319   8.222  12.719  12.495 -0.0339  0.0290  0.1501
32246W        W48320  15.036   1.520   3.438 -0.1263  0.1066  0.2155
32247W        W48321   6.017  13.910  12.686  0.1146 -0.1809  0.0408
32248W        W48322  17.719  17.986   3.806  0.1321  0.2571  0.0223
32249W        W48323   0.391   3.806   2.399 -0.0690  0.2733  0.3110
32250W        W48324   1.636   9.557   2.892 -0.2058  0.0377  0.2761
32251W        W48325   9.798   6.940  13.263 -0.1158  0.0600  0.5850
32252W        W48326   2.343  16.478  15.440  0.0585  0.1756  0.2689
32253W        W48327  13.090   7.184  11.241 -0.5298 -0.2117  0.2909
32254W        W48328  10.867   1.996  16.342  0.0334 -0.0397 -0.1002
32255W        W48329   9.103  12.457   1.951  0.0658  0.1437  0.0529
32256W        W48330  11.340  13.825  15.042  0.1716  0.3141  0.3267
32257W        W48331   2.030  11.239  14.743  0.3328 -0.3105  0.1461
32258W        W48332  15.264   1.449   3.962 -0.3097 -0.3327  0.2154
32259W        W48333   5.142   4.222  14.453 -0.1998 -0.0967 -0.2983
32260W        W48334   3.648  17.614   4.246 -0.1180  0.3715 -0.0212
32261W        W48335  15.216  15.500   2.407 -0.0270  0.1437  0.1652
32262W        W48336   7.462   5.552  15.066  0.1930 -0.1522  0.0473
32263W        W48337  16.690  14.145   4.386  0.0962  0.1311 -0.4987
32264W        W48338  10.671  13.756  12.225 -0.1221 -0.0576 -0.1790
32265W        W48339  15.372   4.541  13.676 -0.0335  0.1921 -0.0369
32266W        W48340  14.637   9.214  14.543 -0.0163  0.1695  0.0416
32267W        W48341   3.706   3.171  14.063  0.0050  0.2737 -0.0102
32268W        W48342   2.443   3.854   3.044 -0.1924  0.0494 -0.2097
32269W        W48343  16.531   5.948   2.478  0.2741 -0.3559 -0.1774
32270W        W48344   4.221   9.749  11.334  0.1749 -0.0157 -0.1063
32271W        W48345   6.030  10.885   2.256  0.1364 -0.0782 -0.0844
32272W        W48346  11.274  13.814   3.697  0.0754  0.2212 -0.2345
32273W        W48347  17.562  14.905   2.637 -0.0664 -0.4072 -0.2218
32274W        W48348   8.987   5.116   4.880 -0.2549 -0.1582  0.2376
32275W        W48349   2.151  13.975  15.189  0.0983  0.2159  0.1391
32276W        W48350  15.750   4.314  12.893 -0.0807 -0.3784  0.0001
32277W        W48351   7.005  12.506   4.813  0.0681 -0.3525  0.1222
32278W        W48352   3.416   0.414   4.618 -0.0140 -0.1183  0.1312
32279W        W48353   6.165  14.980   3.839 -0.0756 -0.2174  0.3446
32280W        W48354   9.678   0.935  15.142 -0.1138  0.0288 -0.2491
32281W        W48355  11.943  10.027   1.428  0.1858  0.0056  0.1748
32282W        W48356   6.539   0.301  13.509  0.0545 -0.2371 -0.1622
32283W        W48357   6.659  15.774  11.264 -0.1394 -0.4500 -0.0442
32284W        W48358   2.606   5.523  11.704 -0.0334 -0.1699 -0.1341
32285W        W48359   1.377  11.168  13.314  0.1999 -0.0184 -0.0032
32286W        W48360  16.147   3.334  15.664  0.1403  0.0728  0.0589
32287W        W48361   1.488  12.026   1.267 -0.4911 -0.0050 -0.4174
32288W        W48362  15.631   8.312   1.291 -0.0930 -0.0078 -0.2020
32289W        W48363  16.840  12.304   0.402  0.1221 -0.0555 -0.4485
32290W        W48364  16.256  15.521  16.260 -0.0420 -0.0348 -0.2947
32291W        W48365   6.888   6.924   5.052  0.3803  0.3106 -0.0231
32292W        W48366   8.959   4.313   2.086 -0.1901  0.2478 -0.0327
32293W        W48367  13.757   8.035  11.846  0.2449  0.0587 -0.2423
32294W        W48368   9.278   5.572   5.028  0.3903  0.0839 -0.1170
32295W        W48369   3.321  17.861   4.590  0.1833  0.1375  0.1651
32296W        W48370   1.871   6.010   1.774  0.1801  0.0864  0.2989
32297W        W48371  10.524  11.777   2.859  0.1221  0.2249  0.0429
32298W        W48372  10.705   6.656   1.290 -0.2557  0.2586  0.0392
32299W        W48373   4.750   3.633   5.088 -0.3321 -0.0108  0.2862
32300W        W48374   4.747   4.092  11.439  0.0675  0.3111  0.2112
32301W        W48375   8.913   8.917  11.670 -0.1086  0.2567  0.0774
32302W        W48376   6.553   5.447  16.316 -0.5717 -0.0289 -0.1036
32303W        W48377  15.745  13.634   5.105 -0.3150 -0.0082  0.1794
32304W        W48378   5.623  12.320   2.129 -0.2618 -0.2350  0.0263
32305W        W48379  17.617   5.875   5.623  0.2078  0.0635  0.0669
32306W        W48380   8.974   6.695   3.404 -0.0756 -0.0709 -0.0313
32307W        W48381  16.795  11.607   4.218  0.1967  0.0088  0.1920
32308W        W48382   4.768  15.226   2.884  0.3026  0.0518  0.0147
32309W        W48383  15.404   3.793  15.738 -0.0363 -0.0882 -0.1772
32310W        W48384  12.834  13.937   3.091  0.2250  0.1857 -0.1966
32311W        W48385   9.819  13.346   0.381  0.2243  0.1551 -0.2731
32312W        W48386   0.809  12.162  15.167 -0.0400  0.2411  0.0900
32313W        W48387   8.771  16.090   5.521  0.0451  0.2140 -0.2238
32314W        W48388   5.733   6.592  12.120  0.1273 -0.2497 -0.0963
32315W        W48389  12.601   1.040   5.445 -0.1371  0.1069  0.0751
32316W        W48390   2.108  13.328  11.098 -0.0655  0.2673 -0.0119
32317W        W48391  18.045  10.208   5.689 -0.0408 -0.1471  0.2388
32318W        W48392   4.062  13.949  13.885  0.1208 -0.0366 -0.1536
32319W        W48393   3.807  10.609   3.034  0.1537 -0.0744 -0.2861
32320W        W48394  11.745   1.158  12.975 -0.1903 -0.0105 -0.3154
32321W        W48395   0.259  16.223  11.793 -0.3483 -0.3582 -0.2552
32322W        W48396   4.461  16.403   4.062 -0.3077 -0.3251  0.0902
32323W        W48397   7.437  12.662   5.045  0.0104 -0.2628  0.2293
32324W        W48398  15.662   9.323   3.047 -0.2274  0.2643  0.0735
32325W        W48399  15.214   0.804   2.600  0.3464  0.1017 -0.0289
32326W        W48400   9.743   9.499   0.661  0.0315  0.1233 -0.0505
32327W        W48401   3.420  17.533   1.612  0.0730 -0.0938 -0.0658
32328W        W48402  16.992  13.966   3.322 -0.2816 -0.2292 -0.1640
32329W        W48403   8.470   3.153  11.431 -0.2063  0.0782 -0.1156
32330W        W48404   7.464  12.213  16.138  0.0062 -0.1004 -0.2140
32331W        W48405   5.786  16.297   3.836  0.1082  0.3066  0.1523
32332W        W48406   2.736   5.877  13.594 -0.3492  0.2105 -0.3271
32333W        W48407   0.396   0.346  12.048 -0.1800 -0.1592 -0.1123
32334W        W48408  18.183  10.208  13.496 -0.0495 -0.0076  0.0725
32335W        W48409  10.066  17.532   1.176  0.2958 -0.0385  0.2381
32336W        W48410  16.437   1.775  14.876 -0.2062  0.0123 -0.0174
32337W        W48411  14.579   7.127   5.029  0.7193  0.2513  0.2996
32338W        W48412  10.284  10.192  12.312  0.1209 -0.0149  0.0718
32339W        W48413   0.616  11.939   1.982 -0.2349  0.0212 -0.1517
32340W        W48414   0.123   1.121  11.670 -0.0871 -0.2892 -0.4577
32341W        W48415  14.742  12.163  12.088  0.4140  0.0739  0.1771
32342W        W48416   7.645   3.296   1.620  0.4757  0.1660 -0.2283
32343W        W48417   1.158   1.800   4.759  0.2133 -0.0802  0.4624
32344W        W48418  12.825   4.553   0.058  0.2685  0.0608 -0.0957
32345W        W48419  16.961   9.034  13.364  0.0813  0.5235  0.1501
32346W        W48420  16.045   1.492   0.137 -0.0286 -0.1262  0.2906
32347W        W48421   2.872   8.969  16.050  0.1340 -0.2258 -0.0088
32348W        W48422   6.689   0.253  15.633 -0.1480 -0.0685 -0.3987
32349W        W48423  17.078  11.882  15.629 -0.1005 -0.2412  0.1726
32350W        W48424  14.533   2.154   4.207 -0.5082 -0.1961 -0.0755
32351W        W48425   5.801   9.585   4.189 -0.0749  0.0780 -0.1434
32352W        W48426  15.660   9.473   2.576 -0.1305 -0.2235  0.0036
32353W        W48427   6.361  15.791   3.207  0.0888 -0.0479  0.1213
32354W        W48428   1.869   6.972   4.835  0.2903  0.1405 -0.1291
32355W        W48429  12.457   2.082   0.162 -0.0407 -0.1646  0.1792
32356W        W48430   0.541  16.595   1.421  0.2562 -0.0187 -0.1757
32357W        W48431  15.897   5.621  14.702  0.2463 -0.1880  0.0330
32358W        W48432  13.416  12.922  14.218  0.1464  0.0909  0.0179
32359W        W48433  11.628   1.462  12.567 -0.0041  0.0707  0.1009
32360W        W48434  12.857   3.814   4.860 -0.0491  0.2949 -0.0270
32361W        W48435   9.222   3.425  15.748  0.2453  0.0865 -0.0413
32362W        W48436  17.398  16.874  12.861  0.3884  0.0978  0.0635
32363W        W48437   2.703  16.077  16.184 -0.1783 -0.1369  0.0776
32364W        W48438  17.061   9.524  13.437  0.1692 -0.3567  0.1120
32365W        W48439  10.948   0.757  12.503 -0.0940  0.0364  0.0979
32366W        W48440   6.351   8.803   1.335 -0.0239 -0.1435 -0.2833
32367W        W48441   9.647  13.052  14.491 -0.2644  0.1774  0.3399
32368W        W48442   3.945   8.355   2.796 -0.0483 -0.0064  0.0853
32369W        W48443  15.056   2.132  13.489  0.3841  0.0115 -0.0758
32370W        W48444   9.453   1.492  15.224 -0.5319 -0.2235 -0.0254
32371W        W48445  13.891  14.418   4.882 -0.0431 -0.0501  0.0713
32372W        W48446   6.740   9.393   1.511  0.0481  0.1450  0.3977
32373W        W48447  12.495   6.801  11.582  0.3436  0.2133 -0.2024
32374W        W48448  14.222   7.945  15.475  0.1539  0.0279 -0.0643
32375W        W48449   2.378   0.574   4.495  0.0929 -0.1473 -0.2420
32376W        W48450   7.860  14.557  11.713 -0.0273 -0.3600 -0.2012
32377W        W48451  10.238   3.662   5.429  0.1840  0.0356  0.1128
32378W        W48452  12.017  17.489   2.828 -0.0582 -0.0139  0.2197
32379W        W48453   3.163  10.588   4.288  0.2554  0.0522  0.0719
32380W        W48454  18.052  10.925  15.510 -0.0654  0.3608 -0.0475
32381W        W48455   5.874  16.121   1.087  0.1216 -0.2164 -0.0548
32382W        W48456  17.102   8.450  11.874 -0.3504 -0.2924  0.2532
32383W        W48457   2.569  15.588  15.478 -0.3366  0.0644  0.0894
32384W        W48458  15.843   4.982  14.600  0.1479 -0.0677 -0.0952
32385W        W48459  16.551   3.928  16.265 -0.2388  0.0730 -0.1001
32386W        W48460   3.728  12.077  15.033  0.5046  0.0998  0.2253
32387W        W48461   3.330   0.202  12.585  0.1471 -0.0424 -0.0403
32388W        W48462   4.839  11.210  11.409 -0.0175  0.0329 -0.2656
32389W        W48463   6.889  11.426   0.934  0.5736  0.3190 -0.3774
32390W        W48464   1.611  17.996  15.902  0.1452  0.1707 -0.0600
32391ION     NA48465  12.872  17.129  10.435  0.3344  0.0971  0.3185
32392ION     NA48466   3.664  10.199   5.998 -0.0070 -0.0505 -0.1105
32393ION     NA48467  15.747  15.615  10.744 -0.1236 -0.2023 -0.0449
32394ION     NA48468  11.014   7.181  10.258 -0.1553  0.3223  0.4215
32395ION     NA48469  13.092  14.602   6.087  0.0949 -0.4828 -0.2262
32396ION     NA48470  14.618  12.089   3.477 -0.0679 -0.1105 -0.1872
32397ION     NA48471  13.694  10.009  10.589  0.0685 -0.3387  0.0700
32398ION     NA48472   1.702  16.968  13.950 -0.1327 -0.0617 -0.0588
32399ION     NA48473   2.410   7.542   5.867  0.0706 -0.1800  0.1656
32400ION     NA48474  12.643   0.855  10.196  0.0372  0.0190 -0.2967
32401ION     NA48475   6.778   7.348  10.241  0.3035  0.0632 -0.0321
32402ION     NA48476   3.610   3.974  10.652  0.0681  0.1449 -0.2425
32403ION     NA48477   3.785  12.076   4.702  0.0523 -0.0042 -0.3555
32404ION     NA48478   9.699   1.025   4.101  0.1547  0.0135 -0.3849
32405ION     NA48479  11.520   8.465  10.322  0.0645 -0.1450 -0.2799
32406ION     NA48480  10.012   1.138   3.227  0.1433 -0.1060  0.3193
32407ION     NA48481  16.097   3.145  11.342  0.0256  0.0005  0.0423
32408ION     NA48482  15.954  14.569  10.732  0.1086  0.2731 -0.1872
32409ION     NA48483  17.738   0.867  11.014 -0.2440 -0.2260 -0.2421
32410ION     NA48484  17.882  16.273   4.853 -0.0424  0.0414  0.3682
32411ION     NA48485  14.025   6.140  10.391  0.1115  0.1620 -0.1487
32412ION     NA48486   8.142   6.438  10.701  0.1507 -0.0691  0.2072
32413ION     NA48487   2.953  14.451   0.464 -0.1671 -0.0005  0.0003
32414ION     NA48488   2.965  12.696   5.778 -0.0835 -0.1573 -0.1192
32415ION     NA48489  10.280   8.675  14.539 -0.0043 -0.0554  0.1352
32416ION     NA48490   3.209   3.071  14.746 -0.0215 -0.3100  0.1337
32417ION     NA48491  15.618  11.893  10.562  0.2767 -0.0811  0.1475
32418ION     NA48492  15.724   9.977  10.660 -0.1408  0.0128 -0.0238
32419ION     NA48493   5.428  15.545  10.385  0.0986  0.0186  0.0331
32420ION     NA48494   4.080  14.942  10.313  0.1681 -0.1807  0.2253
32421ION     NA48495   4.476   1.210   5.649 -0.3403 -0.1277 -0.1044
32422ION     NA48496   4.942  16.479   6.133 -0.3696  0.2787 -0.0900
32423ION     NA48497  18.236   5.174  10.675 -0.1293  0.0310  0.0460
32424ION     NA48498  14.548   3.902   4.720  0.2855 -0.0560 -0.3711
32425ION     NA48499   0.607   9.864   2.188 -0.1009 -0.1800  0.2417
32426ION     NA48500   9.586  13.066  13.267  0.0281  0.1848  0.1964
32427ION     NA48501   3.316  12.954  10.509 -0.0362  0.2362  0.1758
32428ION     NA48502   7.883   4.196   9.741  0.0774 -0.1092 -0.1161
32429ION     NA48503   9.843  13.089  10.431 -0.0810  0.0293 -0.0834
32430ION     NA48504   7.267  16.051  12.917 -0.1476  0.0763 -0.5525
32431ION     NA48505  13.441   1.349  11.261 -0.1426 -0.1522  0.0597
32432ION     NA48506   4.345   4.066   1.827  0.0893  0.2275  0.1150
32433ION     NA48507  12.008   6.169  11.134 -0.1392 -0.0954 -0.2460
32434ION     NA48508   2.437  10.143  12.546 -0.3764 -0.3990  0.1398
32435ION     NA48509   8.944   8.354  10.013 -0.0094  0.2439  0.0277
32436ION     NA48510  17.977   0.057  10.897  0.3360 -0.1720  0.1058
32437ION     NA48511   6.124  11.633   6.028 -0.1739 -0.0035 -0.1107
32438ION     NA48512   7.834   7.567  10.252  0.4085  0.1179  0.1571
32439ION     NA48513   4.648   8.346  12.068 -0.1070  0.2078  0.1457
32440ION     NA48514   1.545  12.712  10.534 -0.4716  0.3237  0.0292
32441ION     NA48515  10.924   3.148   9.701 -0.0251 -0.1386 -0.1601
32442ION     NA48516   6.654  14.097   3.557 -0.4515  0.3137  0.2937
32443ION     NA48517   8.988   3.368   0.587  0.1330  0.2065  0.3084
32444ION     NA48518  15.275   4.919   6.066 -0.1047 -0.0254  0.0922
32445ION     NA48519   0.132   3.848  10.843  0.1013 -0.2035  0.0479
32446ION     NA48520   4.654  11.249   4.402 -0.3110  0.0339  0.1073
32447ION     NA48521   0.010  12.019  10.593  0.3456 -0.2027 -0.0729
32448ION     NA48522  13.398   2.836  10.295 -0.5945  0.1762  0.1595
32449ION     NA48523  14.841   9.162  10.423  0.1071  0.0945 -0.1017
32450ION     NA48524  10.248  14.711   4.793 -0.3188 -0.4212  0.1302
32451ION     NA48525  10.869  15.975   1.895 -0.2731 -0.3080 -0.0857
32452ION     NA48526   2.236  12.359  11.221  0.1427 -0.0112  0.0367
32453ION     NA48527  13.764  18.013   6.008 -0.1236 -0.1429  0.4397
32454ION     NA48528   6.837   0.060   0.449  0.2227 -0.3070 -0.3127
32455ION     NA48529   6.675   7.778  13.981 -0.1401 -0.0261  0.0590
32456ION     NA48530   5.567   4.433  10.345 -0.1249 -0.1297 -0.1283
32457ION     NA48531  15.488   6.343  10.744  0.1989  0.0604 -0.1988
32458ION     NA48532   6.162  17.446   5.730  0.1740 -0.0410 -0.1805
32459ION     NA48533   2.960   3.238  10.692 -0.0139  0.0429 -0.0510
32460ION     NA48534   1.318   5.097  10.579 -0.0480 -0.0893  0.3030
32461ION     NA48535   8.273  11.450  10.788  0.1364  0.2093  0.1459
32462ION     NA48536  10.483   0.803  10.199 -0.0084  0.0506  0.2553
32463ION     NA48537   0.254   1.861  10.922  0.2720 -0.0563  0.0512
32464ION     NA48538  12.494   6.723  10.330 -0.0591  0.1732  0.2480
32465ION     NA48539  17.289  11.733  10.754 -0.0001  0.3322 -0.1879
32466ION     NA48540   8.839  15.863   6.021 -0.0531 -0.2326  0.4333
32467ION     NA48541  11.836   7.083   2.879 -0.1099  0.0357  0.1514
32468ION     NA48542   1.429   1.820  10.982 -0.0401 -0.0029  0.1994
32469ION     NA48543   4.270   2.920  10.304 -0.1697 -0.2425 -0.0041
32470ION     NA48544  13.285   4.719  10.511  0.0538  0.1620 -0.0761
32471ION     NA48545   4.757  17.831   3.976 -0.1321 -0.0056  0.2754
32472ION     NA48546  10.400   6.033   5.546  0.1350 -0.0481 -0.1839
32473ION     NA48547   5.954  14.933  10.598 -0.1403  0.0024 -0.2861
32474ION     NA48548  15.385   7.295  10.524 -0.2526  0.0055  0.1589
32475ION     NA48549   5.700   0.709  10.311 -0.4129 -0.0498 -0.0212
32476ION     NA48550  18.218   1.595  11.024  0.0654 -0.0685 -0.1275
32477ION     NA48551  12.139  13.584   1.966 -0.1642 -0.1335  0.2005
32478ION     NA48552  11.732  10.479   4.475 -0.0386 -0.1756  0.0473
32479ION     NA48553  13.243   3.990   0.831  0.1504  0.0159  0.2214
32480ION     NA48554  13.037  17.383  11.064 -0.0764  0.0971 -0.2816
32481ION     NA48555  12.273  13.319  15.240 -0.0160 -0.0036 -0.3855
32482ION     NA48556  17.764   3.852  10.788  0.2096 -0.1407  0.0821
32483ION     NA48557  15.030  10.568  10.984 -0.0285  0.0890 -0.0210
32484ION     NA48558   2.560   6.000  14.534 -0.1182 -0.2795  0.1108
32485ION     NA48559  10.543  15.647  10.560 -0.2664  0.0104  0.0284
32486ION     NA48560  13.812  10.702  10.618  0.0074  0.1017  0.1834
32487ION     NA48561   5.247   1.076   2.280 -0.3766 -0.0448  0.2474
32488ION     NA48562  16.229  15.456  10.736 -0.0507  0.1145 -0.2047
32489ION     NA48563   2.179  10.165  10.493 -0.0917 -0.0502  0.2297
32490ION     NA48564  12.427  13.254  11.006  0.3217 -0.1406 -0.2702
32491ION     NA48565  16.468  15.988  14.129 -0.0484 -0.2456  0.1480
32492ION     NA48566   0.642   6.835  10.722 -0.0852  0.0565 -0.0579
32493ION     NA48567   7.205  13.947   1.131 -0.1335 -0.3611  0.2839
32494ION     NA48568  17.574   6.832  15.580  0.0038  0.1764 -0.1666
32495ION     NA48569   2.890   6.393  11.352  0.0377  0.1434 -0.1160
32496ION     NA48570  15.965   7.279  10.451 -0.1679  0.0662 -0.0684
32497ION     NA48571  12.218  14.645  11.201 -0.0439 -0.0659 -0.0301
32498ION     NA48572   4.403   9.093   3.394  0.0476  0.2237  0.1074
32499ION     NA48573   0.075  14.615  15.620  0.0373  0.2880 -0.0259
32500ION     NA48574  17.767   3.805   1.020 -0.6709  0.4115 -0.0433
32501ION     NA48575   8.712   5.851  10.118 -0.4717 -0.1263 -0.5263
32502ION     NA48576  13.388  13.508   6.226  0.0605 -0.1857  0.2647
32503ION     NA48577  16.786   2.652   4.759  0.2289  0.2250 -0.3249
32504ION     NA48578  12.699  16.188  10.643  0.0906  0.2533 -0.1881
32505ION     NA48579  15.225   9.257   3.748 -0.1371 -0.0268  0.2719
32506ION     NA48580   7.366   5.075   5.916 -0.1136 -0.1606  0.2942
32507ION     NA48581  12.841   8.203   2.033 -0.0749  0.4611 -0.2146
32508ION     NA48582   1.638   4.377  15.797 -0.4437  0.3773  0.0481
32509ION     NA48583   7.083   3.867  10.058  0.0126  0.1758 -0.1756
32510ION     NA48584  14.040  14.847  10.933 -0.0462 -0.5307  0.2268
32511ION     NA48585  17.308  10.852  16.305  0.2258 -0.1014 -0.3929
32512ION     NA48586   8.198  12.982  10.692  0.4227 -0.0941  0.0709
32513ION     NA48587   5.705   6.452  10.443  0.1319  0.1402  0.1448
32514ION     NA48588   6.373   0.952  10.634 -0.0619 -0.0329 -0.2325
32515ION     NA48589  14.278   2.406   3.826  0.1048 -0.1014 -0.1133
32516ION     NA48590  11.977   7.160  15.976 -0.0217 -0.2065 -0.0386
32517ION     NA48591  12.900  13.749  10.922  0.1539 -0.0608 -0.2556
32518ION     NA48592   7.133  10.866   4.652  0.2742 -0.0485 -0.1580
32519ION     NA48593  16.791   1.296   2.809  0.2019  0.3849  0.0669
32520ION     NA48594   1.906   3.435  10.672 -0.1585 -0.1272 -0.2694
32521ION     NA48595   2.685   5.659  10.721 -0.0542 -0.2920 -0.1010
32522ION     NA48596  14.510   7.717  10.275  0.1810 -0.0320 -0.1361
32523ION     NA48597  16.770   3.992   6.165  0.0763 -0.1719  0.1732
32524ION     NA48598   3.792  12.596   0.368 -0.1543  0.1222 -0.0383
32525ION     NA48599   0.857   3.372  10.634  0.2033  0.0559  0.0581
32526ION     NA48600   6.473  13.230  14.679  0.0610 -0.4560  0.0219
32527ION     NA48601   1.247   6.486  13.122  0.0652 -0.1527  0.0536
32528ION     NA48602  18.009  10.329  15.652  0.0988  0.1129 -0.2594
32529ION     NA48603   9.836   1.404   9.978  0.1088 -0.1175 -0.1390
32530ION     NA48604   1.830   1.624   2.473 -0.1418  0.1703 -0.1904
32531ION     NA48605   9.973   6.871   4.436  0.0001  0.0434  0.2925
32532ION     NA48606  10.111  10.318   6.226 -0.0569 -0.0569 -0.1812
32533ION     NA48607   6.472   6.973  10.368  0.2937  0.4353 -0.7105
32534ION     NA48608   7.845  14.768  12.331  0.1560 -0.0676 -0.1176
32535ION     NA48609   3.953   6.490  10.708 -0.2041  0.1066 -0.0843
32536ION     NA48610  10.475   3.147   9.984 -0.0349  0.1357 -0.0323
32537ION     NA48611  15.938   0.516  13.653 -0.0589 -0.3007  0.5178
32538ION     NA48612   2.245  18.055   2.854 -0.1363  0.1471 -0.0015
32539ION     NA48613   5.789  10.909   4.936  0.3290 -0.2309  0.2477
32540ION     NA48614  16.128   6.346  13.616  0.1971  0.0933 -0.0219
32541ION     NA48615  12.598   5.151   9.980 -0.0985 -0.1232  0.1024
32542ION     NA48616  15.737  10.959  10.866 -0.2260  0.4821 -0.1308
32543ION     NA48617   5.815   8.552  14.738 -0.0280  0.3280 -0.2863
32544ION     NA48618   8.673   6.832  10.029 -0.0909  0.0484  0.0022
32545ION     NA48619  12.190   7.472  11.270  0.3550 -0.0987  0.0891
32546ION     NA48620   2.243  10.634   3.478 -0.0197  0.1361  0.1584
32547ION     NA48621  12.822   8.426  10.336  0.1065  0.0898 -0.4373
32548ION     NA48622  13.011   2.463   5.905 -0.1004  0.0453 -0.0409
32549ION     NA48623   7.964   2.642   9.897 -0.0544 -0.0140  0.1193
32550ION     NA48624  10.580  10.426  11.119 -0.1511 -0.1038  0.2984
32551ION     NA48625  17.126  15.607  10.828  0.1768 -0.0107 -0.2580
32552ION     NA48626   7.883   0.990   9.952  0.3584  0.1837 -0.1260
32553ION     NA48627   8.483   4.311   9.505 -0.0487 -0.2296  0.0267
32554ION     NA48628   8.458   7.287   1.932 -0.1345 -0.3694  0.1726
32555ION     NA48629  13.883   4.110  10.328  0.0085  0.3079  0.2363
32556ION     NA48630   3.241   2.378  10.449 -0.0399  0.0512  0.0088
32557ION     NA48631   4.712  13.276  10.500 -0.3214 -0.0807  0.1671
32558ION     NA48632  15.493  13.954   5.435  0.2177  0.0134  0.0963
32559ION     NA48633  11.028   7.349   3.900  0.2587 -0.2391  0.0644
32560ION     NA48634   5.703   6.158   1.276 -0.1190  0.1327  0.0669
32561ION     NA48635  15.053  14.704  10.818  0.1150  0.1449  0.0230
32562ION     NA48636   3.312  16.662  10.610 -0.0296 -0.1837 -0.0235
32563ION     NA48637  12.730   9.646  10.559  0.0210 -0.1024  0.0673
32564ION     NA48638  10.251   3.885   9.768 -0.1193  0.1202 -0.0475
32565ION     NA48639  12.497  11.703   0.211 -0.1543 -0.2749  0.0939
32566ION     NA48640   1.121   4.343  12.291  0.5007 -0.2653 -0.0688
32567ION     NA48641   2.978   8.698  10.580  0.2492 -0.1914  0.0242
32568ION     NA48642  18.282   6.133  10.782  0.3679  0.3379 -0.2337
32569ION     NA48643   8.404   6.825   0.692  0.0565 -0.1442 -0.1311
32570ION     NA48644   4.599  16.124   4.586 -0.0221  0.1427  0.1062
32571ION     NA48645   5.516  12.614  10.594  0.2006  0.0883  0.2596
32572ION     NA48646   7.623  14.777  15.301  0.1882 -0.4476 -0.0087
32573ION     NA48647  15.140  17.217   1.325 -0.1925 -0.2105  0.1450
32574ION     NA48648  11.851  16.544  10.669  0.0260 -0.0491 -0.0191
32575ION     NA48649  17.767  15.648   6.120  0.2308  0.0601 -0.1158
32576ION     NA48650   3.782  15.953   4.293  0.1388 -0.2075  0.1129
32577ION     NA48651  17.888   9.792  15.588  0.2042 -0.1412  0.0377
32578ION     NA48652  12.151   1.081  10.192  0.1105  0.1340 -0.2539
32579ION     NA48653  14.896  17.302   2.344 -0.3566 -0.4715 -0.0835
32580ION     NA48654   9.437  10.875   5.595  0.2176 -0.0235 -0.2112
32581ION     NA48655   4.100   5.556   2.868  0.1256  0.0165 -0.4093
32582ION     NA48656   5.359  17.570   0.511 -0.1259 -0.2331  0.1002
32583ION     NA48657  11.194   3.593   0.093 -0.2571 -0.3835 -0.1192
32584ION     NA48658   1.008  13.449  10.400  0.2986 -0.2060 -0.3322
32585ION     NA48659  15.837  17.645  10.400 -0.0394 -0.2014  0.2282
32586ION     NA48660  12.045   0.988   5.564 -0.3557  0.0761  0.1451
32587ION     NA48661  11.276  14.741   5.813  0.0825  0.0146  0.2308
32588ION     NA48662   4.010  17.310  10.543  0.2623 -0.0117 -0.2143
32589ION     NA48663  17.119   3.752  10.679  0.1462  0.3249 -0.0116
32590ION     NA48664   8.914  10.743  10.815 -0.2795  0.0145 -0.1811
32591ION     NA48665  17.675  17.313   1.685 -0.1999  0.0366 -0.0260
32592ION     NA48666   8.882   3.073   9.688  0.0205 -0.2676  0.3056
32593ION     NA48667   9.232   4.346   3.036 -0.0407 -0.2359  0.0162
32594ION     NA48668   6.649   3.810  11.493 -0.3765 -0.2518 -0.2842
32595ION     NA48669  11.061  14.021  10.380 -0.0765 -0.3132 -0.0141
32596ION     NA48670   4.588   7.027  14.909 -0.1703  0.0146  0.0055
32597ION     NA48671   7.325  11.707  16.040 -0.2633 -0.0560 -0.1722
32598ION     NA48672  16.584  10.864   5.593 -0.1238 -0.1738 -0.0527
32599ION     NA48673  15.607   3.855  10.723 -0.1396  0.0279 -0.1646
32600ION     NA48674  11.905   4.002   5.898  0.0537  0.0408 -0.0171
32601ION     NA48675   0.107  10.452  13.151  0.0184  0.0170 -0.3135
32602ION     NA48676   3.442   1.529  10.612  0.2957 -0.0673  0.0442
32603ION     NA48677   5.825   7.542  10.877  0.0624  0.2299  0.3434
32604ION     NA48678   5.125   8.462   5.569 -0.0219  0.1503  0.1369
32605ION     NA48679   1.392   4.880   5.733  0.0858 -0.0209 -0.3363
32606ION     NA48680   8.792   0.414   3.040  0.2335 -0.4299  0.1800
32607ION     NA48681   7.273   9.034   5.726  0.0389  0.2834 -0.2046
32608ION     NA48682  10.754  18.092   4.346 -0.1207 -0.1911 -0.2971
32609ION     NA48683   7.532   7.085  11.832  0.3857  0.3764  0.0269
32610ION     NA48684   8.077   3.485   9.922  0.2359  0.1627 -0.1831
32611ION     NA48685  11.556   0.244   5.790 -0.0675 -0.2709  0.0176
32612ION     NA48686   7.868  18.043  10.745 -0.0034  0.6074  0.1408
32613ION     NA48687  17.902  16.759  10.974 -0.2157 -0.0375 -0.1589
32614ION     NA48688  10.648  16.280  12.516 -0.2286 -0.0470 -0.2715
32615ION     NA48689   6.376   5.974  10.374  0.0310 -0.0044  0.0181
32616ION     NA48690  18.311   6.952  10.697  0.1392 -0.0139 -0.1644
32617ION     NA48691  11.325  17.287  10.316  0.1151  0.0654 -0.0134
32618ION     NA48692   1.188  15.784  10.418  0.1371  0.1622  0.2406
32619ION     NA48693  14.641  18.288   5.947 -0.0484 -0.0095 -0.2284
32620ION     NA48694  10.327   7.125  13.285  0.0792 -0.2014  0.0322
32621ION     NA48695   4.470  15.023  15.186  0.0226 -0.0965 -0.0795
32622ION     NA48696   9.155  12.579  10.538  0.0714 -0.0526  0.1192
32623ION     NA48697  12.835  17.969   1.358 -0.1086  0.2246 -0.1831
32624ION     NA48698  13.610  16.424  10.575  0.0373  0.1794  0.1573
32625ION     NA48699  17.431  12.482   6.167  0.1421 -0.1094  0.1668
32626ION     NA48700   8.748   5.128  15.591 -0.0428 -0.1758  0.2327
32627ION     NA48701   3.719   4.908  10.823 -0.2804 -0.1454  0.3057
32628ION     NA48702   5.103   8.229  10.534  0.1215  0.3869 -0.0820
32629ION     NA48703   2.287   3.800  10.798  0.2468  0.1674 -0.1579
32630ION     NA48704   9.541   6.494   9.840 -0.1861  0.1414  0.1258
32631ION     NA48705   4.445   7.802  10.359 -0.1495 -0.0301 -0.0303
32632ION     NA48706   9.815   2.198  13.057  0.1706 -0.1675 -0.1377
32633ION     NA48707  16.791   7.490  10.776 -0.0098  0.1048 -0.4344
32634ION     NA48708   2.376  17.081  10.620  0.0112 -0.0547  0.0562
32635ION     NA48709   0.305   0.888  10.832  0.0126 -0.2237  0.1283
32636ION     NA48710  13.362  11.742  10.718  0.0683  0.0090  0.0792
32637ION     NA48711   2.795   3.535  11.635 -0.0103  0.2341 -0.1197
32638ION     NA48712  12.932   9.294   0.864 -0.0668 -0.0000  0.1783
32639ION     NA48713   9.927   5.577   9.763  0.1579 -0.2472 -0.1959
32640ION     NA48714  12.138   3.075  14.048  0.3254  0.3645 -0.0210
32641ION     NA48715   0.106   0.947   6.257 -0.0322  0.3340 -0.1148
32642ION     NA48716   3.114   4.117  10.506  0.0420  0.1132 -0.0425
32643ION     NA48717  13.476   8.902  12.545  0.0254 -0.2018 -0.3841
32644ION     NA48718  18.317   4.710  10.460 -0.0673  0.0197  0.0912
32645ION     NA48719  11.771   7.557   5.918  0.1703  0.0934 -0.3629
32646ION     NA48720  12.160   7.728  10.418  0.0014 -0.1426  0.1813
32647ION     NA48721  14.961  17.323   5.809 -0.1669  0.2706 -0.0580
32648ION     NA48722   4.943  14.671   6.114  0.0954  0.0067 -0.0605
32649ION     NA48723   4.874   6.291  10.749 -0.1598  0.1132  0.0484
32650ION     NA48724  10.082  11.185   1.262  0.0418 -0.2556  0.1521
32651ION     NA48725   2.826   6.772   5.967 -0.2112 -0.0914  0.0736
32652ION     NA48726   2.030  15.862  10.542 -0.0931  0.0562  0.0312
32653ION     NA48727   6.404  16.275   1.114  0.0018  0.0153 -0.0175
32654ION     NA48728  12.912  10.701  10.797 -0.0454  0.0709 -0.0889
32655ION     NA48729  13.822  13.376  10.668  0.1975  0.1236  0.1587
32656ION     NA48730  11.358  15.660  10.441  0.0013  0.1370  0.1437
32657ION     NA48731  14.780   1.511  10.778  0.4319  0.0100 -0.2452
32658ION     NA48732   0.389  14.986   5.977 -0.2170 -0.3544  0.1578
32659ION     NA48733   1.601   2.450   0.047  0.0131  0.1402 -0.1449
32660ION     NA48734   1.558   3.340  12.424  0.0430  0.1290 -0.0804
32661ION     NA48735   0.982  12.361  10.627 -0.1084  0.3356  0.0577
32662ION     NA48736   1.674  14.154  10.352  0.1620  0.2486  0.1499
32663ION     NA48737  16.624  18.264  10.564  0.2835  0.4124 -0.2834
32664ION     NA48738  17.173   5.673  10.832 -0.1668 -0.0325  0.3408
32665ION     NA48739   5.219   5.137   5.646  0.2477  0.0923  0.0597
32666ION     NA48740   7.602   9.870  10.607  0.2074  0.2746 -0.1516
32667ION     NA48741   8.267   0.365  10.641 -0.3449 -0.1695  0.1346
32668ION     NA48742   0.363  15.604  10.328 -0.0478  0.1623  0.1251
32669ION     NA48743  15.636  13.301  11.955  0.3836 -0.4349 -0.2415
32670ION     NA48744   3.332  11.260   2.695 -0.0107 -0.0706  0.3483
32671ION     NA48745   0.148  11.055  10.608  0.2681  0.2919 -0.2106
32672ION     NA48746   1.063  16.782  10.933 -0.0188  0.1540 -0.0178
32673ION     NA48747   1.090   2.411   4.597  0.1321  0.2130  0.0923
32674ION     NA48748   9.781  10.002  12.860  0.2124  0.1097 -0.0339
32675ION     NA48749  13.953   1.442  10.399 -0.1736  0.3737 -0.2097
32676ION     NA48750   0.492  10.815   3.839 -0.0148  0.2655 -0.0105
32677ION     NA48751   0.075  13.355  11.758  0.0503 -0.2032 -0.4294
32678ION     NA48752  12.284  10.699  13.792  0.0474  0.0908  0.1160
32679ION     NA48753   4.856   3.189  10.426  0.0085 -0.3449 -0.1181
32680ION     NA48754   1.348   8.579  10.211  0.1180  0.2748  0.3055
32681ION     NA48755  12.374   9.995  10.688  0.3549  0.1096 -0.3808
32682ION     NA48756   5.656  13.923   0.386  0.0599 -0.3842  0.2274
32683ION     NA48757  11.268   0.925  10.114 -0.1608 -0.1862 -0.3255
32684ION     NA48758   3.549   0.976   5.664 -0.3052  0.3108  0.1966
32685ION     NA48759  15.522   9.864  15.151 -0.0754  0.0181  0.1508
32686ION     NA48760  14.327   8.999  10.453 -0.1054  0.2048 -0.3513
32687ION     NA48761  10.382  17.310  10.589  0.0269  0.1575  0.1213
32688ION     NA48762   4.080   9.802  11.906 -0.1619 -0.0050  0.1076
32689ION     NA48763  14.292   7.380   2.868 -0.0075 -0.2996 -0.4301
32690ION     NA48764   4.036   6.826   5.835  0.0260  0.1255 -0.0993
32691ION     NA48765  11.549   5.093   4.633 -0.1923 -0.0725  0.0446
32692ION     NA48766   0.993  12.221  16.304  0.2956  0.0989 -0.0983
32693ION     NA48767  15.252   0.453  10.872  0.3832 -0.1330 -0.0530
32694ION     NA48768  15.022  11.407  10.536  0.0750 -0.0176 -0.0269
32695ION     NA48769   1.988  11.935  10.639 -0.0408 -0.2451 -0.0743
32696ION     NA48770   4.579  15.447  10.376  0.0229 -0.1003  0.1543
32697ION     NA48771  12.592   4.009  10.056 -0.1594  0.0804  0.1672
32698ION     NA48772  18.179   5.821  14.438 -0.0513  0.1364 -0.0555
32699ION     NA48773   5.419  16.368  10.246  0.0243 -0.0952 -0.0812
32700ION     NA48774   5.087  11.538  10.533  0.0023  0.2855  0.0487
32701ION     NA48775   3.541   9.277  10.180  0.1557 -0.0437  0.0065
32702ION     NA48776   5.135   0.933  10.830 -0.1349 -0.1338 -0.0737
32703ION     NA48777   8.794   4.286   3.872  0.0107  0.0005 -0.3042
32704ION     NA48778   6.684  10.479  10.511 -0.1058  0.2041  0.0008
32705ION     NA48779  15.005   2.344  10.788  0.1012 -0.6228  0.1207
32706ION     NA48780   0.515   6.622  11.409 -0.1591  0.4303 -0.1343
32707ION     NA48781   5.903   0.747  14.651 -0.1898 -0.1159  0.2237
32708ION     NA48782   3.712  12.101  10.553 -0.0117  0.1487 -0.0303
32709ION     NA48783  18.208   3.692   6.199  0.2161 -0.1730  0.1021
32710ION     NA48784   9.752   0.511  10.161  0.2351  0.3277  0.3257
32711ION     NA48785   0.045  16.996   6.300 -0.2954 -0.0528  0.0087
32712ION     NA48786  16.701  16.036  10.830 -0.1735 -0.2578  0.1998
32713ION     NA48787   4.377   7.239   2.853 -0.3305  0.3310  0.3138
32714ION     NA48788  16.813  17.151   3.278 -0.0746  0.1009 -0.0281
32715ION     NA48789  15.285   4.741  10.562 -0.1180  0.1362  0.0520
32716ION     NA48790  16.965  10.135  10.771  0.3044 -0.0142 -0.1681
32717ION     NA48791   3.832  10.884  10.348  0.0263 -0.3271  0.1492
32718ION     NA48792   5.067   7.106  10.390 -0.1437  0.1826 -0.1181
32719ION     NA48793  12.462   2.406  10.091 -0.4063 -0.3734 -0.0871
32720ION     NA48794   6.358  12.727   4.738  0.2685  0.3085 -0.0123
32721ION     NA48795  16.544   8.313  10.610  0.3167 -0.0321  0.1294
32722ION     NA48796   9.763   7.765   9.911 -0.1624  0.0151 -0.3330
32723ION     NA48797   4.314   4.872   5.996  0.5158 -0.0044  0.2524
32724ION     NA48798  12.849  17.722   5.995  0.0765  0.2094 -0.3205
32725ION     NA48799   9.545   5.807   9.894  0.0301 -0.2655  0.1452
32726ION     NA48800  13.495  10.992   3.829 -0.0636  0.1980 -0.1952
32727ION     NA48801  12.846  10.341   4.797  0.2900 -0.0353  0.0581
32728ION     NA48802  15.521  13.276  10.844  0.2141 -0.0418  0.2266
32729ION     NA48803   6.044   4.645   5.555  0.1429  0.1193 -0.0499
32730ION     NA48804  14.453  16.710  10.526 -0.1781 -0.1981  0.1132
32731ION     NA48805   9.193   4.923   9.756  0.2008 -0.1187  0.0499
32732ION     NA48806  17.790   2.146  10.826 -0.2548  0.2165 -0.0155
32733ION     NA48807   4.569   5.467  10.774 -0.0189  0.0259  0.1126
32734ION     NA48808   8.669   9.405   3.610  0.1424 -0.2004  0.2820
32735ION     NA48809   9.778  16.147  12.173 -0.1450 -0.0395 -0.0446
32736ION     NA48810  13.423   6.243   0.267  0.1082 -0.1456  0.2653
32737ION     NA48811  16.261   7.031   5.448  0.2302 -0.2137 -0.2279
32738ION     NA48812  11.279   4.079   9.706  0.1739  0.0629 -0.3399
32739ION     NA48813   8.588  12.149   6.128 -0.1016  0.0816 -0.1965
32740ION     NA48814   7.205   1.288  10.576 -0.0645 -0.1579 -0.1581
32741ION     NA48815   2.179   2.558   5.890  0.0691  0.0961  0.2127
32742ION     NA48816   4.531  13.881   5.851  0.3713  0.0606 -0.2389
32743ION     NA48817  16.812  13.385  10.986  0.1461  0.0657  0.1664
32744ION     NA48818   9.824  15.215   2.797  0.0480  0.2088  0.1292
32745ION     NA48819   3.691  11.060   5.719  0.0312 -0.1529 -0.1039
32746ION     NA48820  15.826   7.483  16.100 -0.1759 -0.4049 -0.3133
32747ION     NA48821  15.390   0.532   2.099 -0.1502 -0.3544  0.3155
32748ION     NA48822  10.733   0.983   0.227  0.0654 -0.3453  0.1960
32749ION     NA48823   6.356  10.863  10.547  0.2344  0.0756  0.0072
32750ION     NA48824   3.932  18.297  10.605  0.0075 -0.0090  0.2025
32751ION     NA48825   2.084   0.212  10.825 -0.2611 -0.0756 -0.0282
32752ION     NA48826   0.855   9.214   6.057 -0.0263 -0.1102  0.2279
32753ION     NA48827   7.585  15.897   2.385 -0.2167  0.0110 -0.2101
32754ION     NA48828   1.055  18.031   4.807 -0.1288 -0.0498 -0.2602
32755ION     NA48829  18.258   8.361  10.749 -0.0893 -0.3970 -0.0033
32756ION     NA48830   2.783   0.804   1.994 -0.1494 -0.1272  0.2317
32757ION     NA48831  17.275  12.346  10.501  0.2083  0.0388 -0.1320
32758ION     NA48832   1.625   9.999  10.457 -0.4956  0.2909  0.2033
32759ION     NA48833  18.029  15.825  10.770  0.1040  0.0463 -0.0276
32760ION     NA48834   4.663   0.320   6.156 -0.2684  0.0480  0.1215
32761ION     NA48835   8.649   7.324  10.942 -0.1860 -0.2596 -0.0144
32762ION     NA48836   6.923  11.474   3.373  0.0473 -0.0820  0.1724
32763ION     NA48837  10.020   0.339  11.204 -0.2526  0.0355  0.4395
32764ION     NA48838  15.238   6.381   1.272 -0.0136 -0.1552 -0.0855
32765ION     NA48839   5.623   1.522  10.322 -0.1712 -0.0931 -0.2503
32766ION     NA48840   5.026   3.696  14.346  0.0576 -0.1722 -0.0119
32767ION     NA48841  15.233   1.274  10.843 -0.1397  0.1368  0.0626
32768ION     NA48842  10.923   9.123   5.948 -0.0443  0.2804 -0.2771
32769ION     NA48843  17.219  13.332   5.976  0.2297  0.2697  0.1580
32770ION     NA48844   9.374   9.444  10.362 -0.1427 -0.3276  0.2380
32771ION     NA48845   3.226  13.737  10.195 -0.1133  0.0450 -0.1907
32772ION     NA48846   0.011  14.030   1.729 -0.2663  0.0228 -0.2721
32773ION     NA48847   3.480  14.491  14.400  0.0867 -0.0230  0.1239
32774ION     NA48848  17.505   4.666  10.768  0.1553  0.2359  0.0979
32775ION     NA48849  16.350   9.285  10.540  0.1467 -0.0226 -0.0403
32776ION     NA48850  18.134  11.844  11.613  0.0065 -0.1909 -0.0488
32777ION     NA48851  12.483   8.671  10.651 -0.1597 -0.0191 -0.2039
32778ION     NA48852  16.319   6.164  10.698  0.0025  0.3439  0.0421
32779ION     NA48853   4.182  14.460  12.437  0.3412 -0.0572 -0.1342
32780ION     NA48854  18.185  18.269  15.054 -0.1581  0.0316  0.1677
32781ION     NA48855   1.832   8.172   5.893  0.0397 -0.1173 -0.2912
32782ION     NA48856  13.619  12.608  11.655  0.0266  0.1407 -0.1058
32783ION     NA48857  11.298   3.079  11.406  0.0405 -0.4053  0.1937
32784ION     NA48858  11.716  10.833  10.707  0.0676  0.1348 -0.2242
32785ION     NA48859  16.217  14.150  13.642 -0.3619  0.2226  0.1098
32786ION     NA48860  11.713   7.616  10.405 -0.2235 -0.0225  0.0544
32787ION     NA48861  11.849   5.410  11.662 -0.2529  0.0125  0.2560
32788ION     NA48862   1.660  17.663  10.733 -0.2885  0.0456  0.0583
32789ION     NA48863   6.163  13.212  10.533  0.0408  0.0711 -0.1509
32790ION     NA48864  11.965  15.002  10.367 -0.0277  0.2667  0.1577
32791ION     NA48865  17.952  10.146  10.623 -0.2145 -0.0980 -0.0518
32792ION     NA48866   8.473   9.984  10.500 -0.2111  0.0825 -0.0113
32793ION     NA48867   6.493   0.254   4.289 -0.0234  0.0575  0.1429
32794ION     NA48868   1.000   6.635   6.289 -0.4921  0.2388  0.1739
32795ION     NA48869   9.840   4.859   4.928  0.0638 -0.1980  0.2408
32796ION     NA48870   0.317   1.436   6.195 -0.0717 -0.1404 -0.2155
32797ION     NA48871   0.478   4.475  11.300 -0.3201 -0.3911  0.2113
32798ION     NA48872   6.134   5.453   5.629 -0.2478  0.0737  0.1598
32799ION     NA48873  12.374   1.092   3.434  0.2267  0.2742  0.0459
32800ION     NA48874  13.421  15.549  10.698 -0.0446 -0.0495  0.1420
32801ION     NA48875   8.133  12.831   5.893  0.2786  0.1795  0.2389
32802ION     NA48876   1.027   0.868  13.290  0.1764  0.0221 -0.0549
32803ION     NA48877   9.987  10.442   5.095 -0.0335 -0.2892  0.0877
32804ION     NA48878  10.956   0.617  11.557  0.2733  0.1806 -0.1716
32805ION     NA48879   3.248   7.239  10.322  0.1729 -0.2316 -0.1948
32806ION     NA48880   0.200  16.353  10.720  0.0942  0.0050 -0.2792
32807ION     NA48881   6.612   0.346  10.434  0.0027 -0.0191 -0.2253
32808ION     NA48882  13.587  12.316   5.724  0.1298  0.2749  0.0641
32809ION     NA48883   7.023  13.512  10.456  0.2480 -0.3257 -0.0662
32810ION     NA48884   3.739   8.056  11.634  0.0911 -0.0465 -0.3998
32811ION     NA48885  15.108   6.690   4.935  0.4135 -0.0354  0.0774
32812ION     NA48886   9.229  13.073  12.407  0.2857 -0.2462  0.2024
32813ION     NA48887   6.534   1.745  10.372 -0.2789 -0.0480  0.0362
32814ION     NA48888  17.583  10.915  10.656 -0.1198  0.1822  0.0520
32815ION     NA48889   7.140  14.375  10.209 -0.1780  0.0071  0.0735
32816ION     NA48890   4.971   2.022  10.877  0.1615  0.4949 -0.0598
32817ION     NA48891   7.973  12.331  12.786 -0.2646  0.0074  0.1068
32818ION     NA48892   9.585  17.815  10.526 -0.0754 -0.2359 -0.0392
32819ION     NA48893  17.497   2.319   6.344  0.1198 -0.1839  0.1667
32820ION     NA48894   6.357  12.813  12.171  0.1741  0.1902 -0.0480
32821ION     NA48895   6.242   2.929   5.795  0.1218  0.1210 -0.0312
32822ION     NA48896  17.631   7.575   0.154  0.1902  0.2170 -0.2082
32823ION     NA48897  14.633  13.070  10.640 -0.0659  0.0787  0.0997
32824ION     NA48898  11.623  13.120   5.415 -0.0222  0.1948  0.0860
32825ION     NA48899  12.913  12.309  10.684 -0.2915 -0.2039  0.0582
32826ION     NA48900  11.945  16.923   1.344 -0.0022  0.0860 -0.0160
32827ION     NA48901   5.503   7.725   2.539 -0.2455 -0.0805  0.3835
32828ION     NA48902  10.707   1.616   9.890 -0.0297 -0.1507  0.0094
32829ION     NA48903   7.073  16.947  13.498 -0.0673  0.0433  0.1569
32830ION     NA48904  16.272  13.453  10.852  0.0182 -0.0999  0.0766
32831ION     NA48905   9.346   5.107   5.748  0.0190 -0.1520 -0.2864
32832ION     NA48906  15.539   5.453  10.568  0.2597 -0.1008  0.0510
32833ION     NA48907  13.340   9.755  15.993  0.2795 -0.0377  0.3400
32834ION     NA48908   9.477   6.976   0.854  0.3044 -0.2303  0.0811
32835ION     NA48909   5.701   1.309   4.482 -0.1823 -0.2529  0.1505
32836ION     NA48910  13.965   9.121  13.395 -0.0215  0.0686 -0.1830
32837ION     NA48911  10.711   9.453  10.764 -0.2572 -0.3592  0.4226
32838ION     NA48912  13.000   7.127  10.209 -0.0020  0.0863  0.2613
32839ION     NA48913   9.603  14.870  14.250  0.4072  0.2883 -0.0812
32840ION     NA48914   5.293  13.704   5.881  0.0831  0.0419 -0.3042
32841ION     NA48915   2.803  13.979   5.401 -0.0794 -0.1252  0.3160
32842ION     NA48916  10.445  11.510   2.473 -0.0586  0.0300  0.0712
32843ION     NA48917   1.839  13.778  11.166  0.0909  0.1266  0.3627
32844ION     NA48918  13.765  12.798   6.055 -0.0349 -0.0390 -0.2731
32845ION     NA48919  12.389  11.586  10.675 -0.0437 -0.0414  0.1202
32846ION     NA48920   6.154   9.877  10.621  0.3666  0.1307 -0.1042
32847ION     NA48921   9.955  13.036  14.905 -0.1037 -0.0423  0.3727
32848ION     NA48922   5.680  17.008  10.741  0.0405 -0.0097  0.2139
32849ION     NA48923  12.022   0.942   1.375  0.0913  0.3356 -0.1916
32850ION     NA48924  10.379  12.719  10.422  0.1394  0.0150  0.2701
32851ION     NA48925   1.747  11.461  11.447  0.2609  0.1091 -0.1653
32852ION     NA48926  15.254   5.425   4.312 -0.0738 -0.2025  0.0606
32853ION     NA48927   3.478  17.215   2.022  0.0770 -0.4094 -0.0045
32854ION     NA48928   3.074  16.769   6.052  0.1345  0.3271 -0.2892
32855ION     NA48929   6.796   3.081  10.170 -0.2317 -0.2444  0.0057
32856ION     NA48930  16.022   0.917   2.483  0.0638  0.0322  0.1929
32857ION     NA48931   5.778   9.043  10.493  0.1683  0.1839 -0.1242
32858ION     NA48932   2.789  17.960  10.745  0.0422 -0.2524  0.2490
32859ION     NA48933   9.090  16.697  10.277 -0.1387  0.0198 -0.1321
32860ION     NA48934   0.424   7.632  10.424  0.0788  0.0257 -0.1081
32861ION     NA48935  11.387   9.948  10.636 -0.4697  0.1383  0.0923
32862ION     NA48936   3.053  10.143  11.521 -0.0185  0.0273  0.3037
32863ION     NA48937   1.406  10.782  16.166  0.0335  0.0774  0.3963
32864ION     NA48938   3.447   8.516   5.603  0.1002 -0.2933 -0.1038
32865ION     NA48939   4.907   3.656  10.159 -0.0823 -0.0475  0.2974
32866ION     NA48940   8.813  17.759  15.573 -0.0290  0.2518 -0.0653
32867ION     NA48941   7.926   1.832   5.287 -0.1636 -0.1984  0.1531
32868ION     NA48942  10.009   7.363  10.164  0.0703 -0.0577 -0.1999
32869ION     NA48943  13.226   1.905  10.394  0.1421  0.0695  0.0115
32870ION     NA48944   2.256   9.770   0.762 -0.0064  0.4385 -0.1709
32871ION     NA48945   1.152  14.948   3.066  0.1717 -0.3282  0.1732
32872ION     NA48946  18.281   7.757   6.009  0.0762  0.1203 -0.1572
32873ION     NA48947  13.729   6.973  11.021  0.0587 -0.2776  0.0689
32874ION     NA48948   1.915  13.293  14.579  0.2535  0.0299  0.1661
32875ION     NA48949  14.645   4.337  10.686  0.1159 -0.0504 -0.0734
32876ION     NA48950  17.838  16.565  11.700 -0.2152 -0.4595 -0.4006
32877ION     NA48951  16.561  18.174   3.156  0.2409  0.0247 -0.1337
32878ION     NA48952  14.574  16.142   4.577  0.1799  0.4597 -0.0043
32879ION     NA48953  13.139   5.791  10.436 -0.1987 -0.3515 -0.0272
32880ION     NA48954   7.170  14.499  10.712  0.0824  0.1921 -0.0284
32881ION     NA48955   6.918   1.608   4.297 -0.1232  0.3711 -0.0694
32882ION     NA48956  15.550  12.838  10.565  0.1499 -0.1249  0.1538
32883ION     NA48957   7.527   1.768  10.085 -0.1888  0.0699  0.1875
32884ION     NA48958   0.798  14.419  10.537 -0.3219  0.0491  0.1844
32885ION     NA48959  11.784   4.376  10.533  0.0875  0.0455  0.1893
32886ION     NA48960   6.792   9.821   5.571 -0.0124  0.0106  0.0687
32887ION     NA48961  10.407  13.927  10.409  0.1118  0.2624  0.2864
32888ION     NA48962   1.540   8.195  14.394 -0.1156 -0.2964  0.3167
32889ION     NA48963   3.613   1.548   5.932  0.1690 -0.3399  0.4544
32890ION     NA48964  18.081   2.976  11.742  0.2151  0.1457  0.0678
32891ION     NA48965  10.885  16.435  10.578 -0.0177 -0.2636 -0.0716
32892ION     NA48966   1.565  10.939  10.559  0.1403  0.2008 -0.0409
32893ION     NA48967  17.218  13.390   4.054 -0.2825  0.0242 -0.0689
32894ION     NA48968   7.415  12.397  11.593  0.3980 -0.2621 -0.0866
32895ION     NA48969   3.953  13.804  10.385  0.1477 -0.0590 -0.0532
32896ION     NA48970  16.767   7.410   5.958  0.2772 -0.0174  0.1123
32897ION     NA48971   6.726  11.978  10.508 -0.1277 -0.3488  0.0262
32898ION     NA48972   9.618  12.060  10.493 -0.1940  0.1807  0.0445
32899ION     NA48973   2.246   7.018  10.869  0.0795  0.1127 -0.2732
32900ION     NA48974  13.247  15.864   4.576  0.1826 -0.2641  0.0126
32901ION     NA48975   4.749   5.812  11.614  0.1071 -0.2396  0.1514
32902ION     NA48976   0.202   6.057  12.138 -0.0647 -0.4673 -0.0397
32903ION     NA48977   4.035   0.215   5.810 -0.1051 -0.0671  0.1672
32904ION     NA48978  10.300  14.705   3.398  0.0608 -0.0244  0.4507
32905ION     NA48979  15.883  16.312  10.840 -0.2200 -0.3836 -0.0694
32906ION     NA48980  12.230  17.958   2.836 -0.0231 -0.1334 -0.0977
32907ION     NA48981  15.435  17.085   5.045 -0.0806 -0.2130  0.1238
32908ION     NA48982  13.511   9.038  10.398 -0.0783 -0.0783  0.0241
32909ION     NA48983  12.612   3.436   5.790 -0.4438  0.0489  0.3976
32910ION     NA48984  16.363  12.631  10.593 -0.1331  0.0339 -0.1543
32911ION     NA48985   6.096   2.777   0.173  0.0428  0.0664  0.0161
32912ION     NA48986   4.476   8.732  10.575 -0.0673 -0.2125 -0.0119
32913ION     NA48987   0.765  15.951  14.747  0.1311 -0.1227 -0.4671
32914ION     NA48988  16.251  16.923  10.873  0.0241  0.0165  0.2040
32915ION     NA48989  10.157  13.141   5.900  0.0831  0.1828 -0.2863
32916ION     NA48990   4.154   7.424  12.386 -0.5108 -0.1253 -0.0753
32917ION     NA48991   0.374   9.816  10.530 -0.1085 -0.1211  0.4830
32918ION     NA48992  17.710  14.856  12.788  0.2250  0.3257 -0.3402
32919ION     NA48993   2.475  12.560  10.269  0.2120  0.0647  0.0621
32920ION     NA48994  10.282  14.686   1.892 -0.0222 -0.1305 -0.2192
32921ION     NA48995   1.712   0.843   0.543 -0.3920 -0.1666 -0.0155
32922ION     NA48996  14.090  13.922  10.869  0.1343 -0.1899 -0.2233
32923ION     NA48997  17.728  13.111  10.714  0.0982 -0.0230 -0.2230
32924ION     NA48998   6.633   6.307   5.760 -0.3607 -0.0623 -0.0829
32925ION     NA48999  10.690   5.065   9.857  0.0330  0.3128  0.2826
32926ION     NA49000   1.825   2.907   5.893 -0.0813 -0.0622  0.0359
32927ION     NA49001   0.881   7.757  10.504  0.0961 -0.0666  0.2301
32928ION     NA49002  15.570   2.793  11.964  0.0166  0.1463 -0.1473
32929ION     NA49003  10.862   8.511  10.517 -0.3201 -0.1725 -0.0368
32930ION     NA49004   8.063  10.626  10.795 -0.3053 -0.1718  0.3012
32931ION     NA49005  17.346  14.258  10.689 -0.0508  0.0826  0.5241
32932ION     NA49006   2.776   5.146  10.789 -0.2380  0.0309  0.1410
32933ION     NA49007   1.659   7.623  10.540 -0.0878  0.1080 -0.0912
32934ION     NA49008   7.336   9.358  10.400 -0.0173 -0.0769  0.2317
32935ION     NA49009   6.305   8.227  10.259 -0.0315  0.0609 -0.1604
32936ION     NA49010   1.073   8.940   0.636  0.3887 -0.2415  0.0297
32937ION     NA49011   3.969   0.959   5.148  0.0351 -0.1300  0.0367
32938ION     NA49012   5.736  17.482  10.436 -0.2430 -0.2136 -0.3221
32939ION     NA49013   5.763   5.332  10.322 -0.0230 -0.0959 -0.1756
32940ION     NA49014   6.390   9.008   5.543 -0.2959  0.3596  0.2015
32941ION     NA49015   6.281  14.087  10.629  0.2216  0.1123  0.0741
32942ION     NA49016   0.534   8.659  10.566 -0.0113 -0.0554 -0.2640
32943ION     NA49017  14.979  12.278  10.711 -0.3098 -0.2418  0.1162
32944ION     NA49018  12.372  14.166   0.360 -0.1354  0.3629  0.0715
32945ION     NA49019   0.054  11.074   5.938  0.2988  0.1659 -0.2088
32946ION     NA49020  13.874  12.555  10.594 -0.1311  0.0738  0.1686
32947ION     NA49021  13.510   0.622  10.487  0.1335 -0.1815  0.1408
32948ION     NA49022   2.192  13.373  10.272 -0.3447 -0.0633  0.2130
32949ION     NA49023  13.569  17.175   5.637 -0.0074 -0.2602  0.3382
32950ION     NA49024   9.372   9.978  10.426  0.1899 -0.0000 -0.0598
32951ION     NA49025   4.751   7.616   5.521  0.0375  0.4286  0.2709
32952ION     NA49026   0.141   9.318  10.732  0.0338 -0.1620  0.3691
32953ION     NA49027   1.812  15.063  10.344  0.0194 -0.0916  0.0882
32954ION     NA49028   5.321  18.252  10.457 -0.1164 -0.0677 -0.1314
32955ION     NA49029   2.958   6.137  15.591  0.3583 -0.0321  0.0303
32956ION     NA49030   1.095  10.638   5.980 -0.1926  0.0306 -0.0112
32957ION     NA49031  15.647  11.832  15.289  0.0268 -0.2258 -0.1801
32958ION     NA49032   9.342   3.887   9.686  0.0371 -0.0600  0.1422
32959ION     NA49033  10.167   5.079  15.529  0.1759  0.1872  0.2272
32960ION     NA49034  11.401  18.253  10.125  0.1040 -0.0765 -0.0654
32961ION     NA49035  15.580   7.460   4.700  0.0970 -0.2438  0.0227
32962ION     NA49036   4.879  17.840   1.849  0.0097 -0.1777  0.3005
32963ION     NA49037   0.200   8.224  15.888 -0.2134  0.0455 -0.0976
32964ION     NA49038   1.900   9.327  10.217  0.0662 -0.0495 -0.1134
32965ION     NA49039  12.738  14.799  16.164  0.0127 -0.0733  0.0899
32966ION     NA49040   3.608   7.592  10.279 -0.1734 -0.1598 -0.2581
32967ION     NA49041  14.004   7.758  13.980  0.1243  0.1423 -0.2192
32968ION     NA49042  17.019  11.153  12.408  0.2499 -0.0308  0.0702
32969ION     NA49043   5.262   3.468  16.290 -0.1510 -0.2749  0.0523
32970ION     NA49044   0.013  16.276   5.782 -0.0216 -0.0952  0.0949
32971ION     NA49045   4.634  12.300  10.500 -0.2836 -0.4106 -0.4015
32972ION     NA49046  17.556   9.266  10.810 -0.1964  0.1201  0.3822
32973ION     NA49047  14.031   2.249  10.686 -0.3415 -0.0999 -0.1921
32974ION     NA49048  10.025  14.829   5.910 -0.1968  0.1062 -0.0240
32975ION     NA49049  13.384  14.524  11.072  0.1822  0.2599  0.0729
32976ION     NA49050  16.559   3.135   1.343  0.0406  0.0711 -0.1494
32977ION     NA49051   2.574   7.819  10.293  0.3642  0.0590 -0.1781
32978ION     NA49052   9.481   0.719   1.008 -0.1098 -0.1087  0.1100
32979ION     NA49053  12.073   1.581  10.131  0.2241 -0.3489  0.1451
32980ION     NA49054   4.207  16.545  10.651  0.1679 -0.1741  0.3094
32981ION     NA49055  15.617   1.988  10.861  0.2950  0.2783  0.0144
32982ION     NA49056   5.633   5.307  10.840 -0.1650  0.3479 -0.1132
32983ION     NA49057   7.026  15.271  10.418  0.2199 -0.0463  0.1900
32984ION     NA49058   4.976  14.058   2.921  0.0967  0.3812 -0.4424
32985ION     NA49059  16.250  16.915  15.687  0.0636  0.0946 -0.0971
32986ION     NA49060   0.376  17.813  10.899  0.2940 -0.0574  0.0175
32987ION     NA49061  16.812  17.772   6.185 -0.0916 -0.2570  0.1712
32988ION     NA49062   4.319   8.505   1.275 -0.2980 -0.1522 -0.2177
32989ION     NA49063  11.383  11.650  10.619  0.1890 -0.1466  0.1669
32990ION     NA49064  13.944  11.446   0.875  0.0551  0.0991  0.1289
32991ION     NA49065  11.980  16.416   5.928 -0.2314 -0.0363 -0.0231
32992ION     NA49066  12.860  17.902  15.511 -0.4459  0.2281  0.1358
32993ION     NA49067   0.061   2.971  10.765 -0.1152  0.0263  0.1500
32994ION     NA49068  14.330   0.137  10.571 -0.0607 -0.1690  0.1349
32995ION     NA49069  17.806  17.668  10.981 -0.0792 -0.2604  0.0159
32996ION     NA49070   9.458   9.218   6.155 -0.3110 -0.1095 -0.0891
32997ION     NA49071   4.963  14.494  10.484 -0.0045  0.1130  0.0802
32998ION     NA49072   9.773   8.556  10.296 -0.0996  0.0839 -0.0047
32999ION     NA49073   9.865   9.957   3.213 -0.0704  0.1199 -0.1056
33000ION     NA49074  12.333  14.033   6.253 -0.1662  0.1427  0.3716
33001ION     NA49075   6.390   2.517   9.954  0.1456  0.0351 -0.3329
33002ION     NA49076  16.045  13.063   5.705 -0.0899  0.0674 -0.2139
33003ION     NA49077   8.569   8.986  10.228  0.1591  0.0304  0.0336
33004ION     NA49078  14.500  10.776  10.655 -0.1501  0.0734 -0.0001
33005ION     NA49079   2.005   4.685  11.186  0.0776  0.1488  0.0271
33006ION     NA49080  12.676  15.329  10.502  0.0220  0.0425 -0.1452
33007ION     NA49081   7.740  15.916  14.417  0.1691 -0.1053  0.1067
33008ION     NA49082   4.405  12.584   1.919 -0.1002  0.1296  0.1628
33009ION     NA49083  14.931  10.619   4.461 -0.2175  0.2100  0.0996
33010ION     NA49084   5.972  13.049   0.557 -0.0758 -0.1358 -0.1566
33011ION     NA49085   7.658  17.926  15.516  0.1060  0.2448 -0.2653
33012ION     NA49086  16.012   2.692   3.366 -0.5083 -0.2470 -0.2927
33013ION     NA49087   3.886   2.470   5.942 -0.0918  0.0633 -0.1639
33014ION     NA49088   7.623  17.747  10.383  0.2177 -0.3674 -0.1975
33015ION     NA49089  12.442  17.072   5.615 -0.0480 -0.5447  0.0797
33016ION     NA49090  10.490  11.689  10.685  0.0606  0.0607 -0.3293
33017ION     NA49091  11.742   9.069  13.710 -0.0219  0.1758 -0.2866
33018ION     NA49092  10.007   8.196   5.345  0.0375 -0.1689 -0.0481
33019ION     NA49093  11.159   5.075  10.036  0.2916 -0.0400  0.5444
33020ION     NA49094   8.302   1.132   5.777 -0.0528  0.0369  0.1566
33021ION     NA49095  13.830  17.217  10.718 -0.2406  0.0233  0.0881
33022ION     NA49096   1.101   9.298  10.609  0.0479 -0.0721 -0.2369
33023ION     NA49097   0.213  12.899  10.333  0.0792  0.1308  0.2545
33024ION     NA49098   0.753  10.545  10.431 -0.2805  0.1204 -0.3989
33025ION     NA49099  16.572  11.382  10.625 -0.2436  0.1506 -0.0697
33026ION     NA49100   7.947  16.976  10.493  0.1818 -0.0701  0.1426
33027ION     NA49101   1.936   1.823  14.901  0.1132  0.0872 -0.1637
33028ION     NA49102   4.166   5.215  11.045 -0.3821 -0.1884 -0.2036
33029ION     NA49103   0.735  11.483  10.502  0.1166 -0.0747 -0.1625
33030ION     NA49104   3.182   0.221  11.185 -0.0953  0.0170 -0.1564
33031ION     NA49105   9.188  13.600   5.972  0.0510  0.0408  0.0470
33032ION     NA49106   3.583   5.784  10.774  0.2007 -0.3179  0.0760
33033ION     NA49107   0.950   2.556  10.662 -0.0560  0.2273  0.0430
33034ION     NA49108  17.462   8.709  10.787 -0.1773 -0.2472  0.0012
33035ION     NA49109   3.263  16.861   3.269 -0.0036  0.3827  0.1546
33036ION     NA49110  17.100   1.325  10.634  0.1124 -0.3278 -0.2078
33037ION     NA49111  17.263   5.619   4.127 -0.2836  0.0303  0.1199
33038ION     NA49112   7.473   0.345  10.454 -0.1489  0.2189 -0.0862
33039ION     NA49113  10.450  18.299  10.266  0.1342 -0.2852  0.1699
33040ION     NA49114   6.721   0.397  12.701 -0.1712  0.2237  0.1795
33041ION     NA49115   6.249  16.245  10.509 -0.0425  0.3628 -0.1610
33042ION     NA49116   3.968   4.551  12.493  0.1995 -0.0477  0.2076
33043ION     NA49117  16.760  14.871  10.751 -0.1456 -0.1316 -0.1321
33044ION     NA49118   6.578   2.735  12.195  0.0347 -0.1611 -0.0537
33045ION     NA49119  11.656  12.374  10.425  0.0432 -0.2270  0.1855
33046ION     NA49120   4.489   7.354   1.359  0.1209 -0.1753 -0.0487
33047ION     NA49121   2.164   4.953  10.757  0.2918 -0.2277 -0.0269
33048ION     NA49122  17.278  17.748  11.217  0.2709  0.2221  0.1346
33049ION     NA49123   0.097  13.655  10.561  0.1426 -0.0240 -0.2246
33050ION     NA49124   9.484   0.012  10.122  0.4804 -0.1741 -0.1962
33051ION     NA49125   0.512   0.583  14.419  0.0760  0.5781  0.0134
33052ION     NA49126   9.299  14.874  10.480 -0.1945 -0.0800 -0.2265
33053ION     NA49127   3.116  10.114  10.656 -0.1993  0.0080 -0.1533
33054ION     NA49128   4.949  16.220  10.594  0.2531 -0.0093  0.3948
33055ION     NA49129   4.137  11.710  10.367  0.1349 -0.3008  0.0852
33056ION     NA49130   7.985  14.324   5.757  0.0926  0.0468  0.0524
33057ION     NA49131  14.717   6.796  10.322 -0.0883  0.0268  0.0767
33058ION     NA49132   6.095  15.397  14.390 -0.1499  0.3538  0.2107
33059ION     NA49133   8.371  14.856   9.995 -0.0174 -0.1313  0.0342
33060ION     NA49134   1.467   2.642  10.515 -0.0178 -0.1468 -0.0388
33061ION     NA49135  16.535   8.578  15.034 -0.3696  0.1548  0.0831
33062ION     NA49136   0.094   2.812   0.320 -0.0734  0.1644 -0.1979
33063ION     NA49137   5.714  11.235   3.617 -0.0549 -0.2056  0.0976
33064ION     NA49138   2.175  14.396  10.377 -0.1949 -0.0085 -0.0582
33065ION     NA49139  10.500   3.975  11.198  0.0873 -0.1361 -0.0286
33066ION     NA49140  15.794   9.087  10.474 -0.1768  0.0129 -0.0292
33067ION     NA49141  14.815  13.760  10.842  0.1633 -0.0782 -0.1858
33068ION     NA49142   4.968   1.186  14.801 -0.2806  0.4058  0.1223
33069ION     NA49143  12.200   6.016  10.280 -0.1493 -0.1885  0.0570
33070ION     NA49144  12.435   8.632   4.778  0.1932  0.2066  0.2261
33071ION     NA49145   4.976  10.334  11.063  0.0030  0.1489 -0.0810
33072ION     NA49146  13.757  16.398   1.869 -0.1543 -0.4368  0.1504
33073ION     NA49147  12.306  12.367   5.681  0.1138 -0.4405 -0.0125
33074ION     NA49148   5.099  18.056  13.996  0.1438  0.1658 -0.0432
33075ION     NA49149  16.307   5.082  10.632  0.3146 -0.0055  0.1060
33076ION     NA49150   0.092  18.272   4.935 -0.2585 -0.2629  0.1373
33077ION     NA49151  14.814  17.499  10.549 -0.0709  0.1693  0.0432
33078ION     NA49152  12.745  17.956  10.398  0.1900 -0.3166  0.1681
33079ION     NA49153   4.762   2.149   0.553 -0.2864 -0.2648  0.1273
33080ION     NA49154  12.059   2.447   0.231  0.2097  0.1739  0.3772
33081ION     NA49155   2.525  11.740   5.757  0.0620 -0.1714  0.1817
33082ION     NA49156   9.568  14.019  10.458  0.1342  0.1077 -0.2715
33083ION     NA49157   5.383  13.536  10.763  0.0319  0.3424 -0.0153
33084ION     NA49158  14.343  14.684   6.426  0.3793  0.1261 -0.5750
33085ION     NA49159  15.011  13.160   4.224  0.4275  0.0279  0.1930
33086ION     NA49160   7.740  12.175  10.805 -0.0076 -0.3085  0.2416
33087ION     NA49161   1.980   1.070  10.710  0.2751  0.3126  0.2680
33088ION     NA49162  16.944   2.045  10.829  0.0570 -0.3060 -0.0089
33089ION     NA49163   8.674  14.246  10.405 -0.0253 -0.0950 -0.0415
33090ION     NA49164  10.761   5.941  10.046 -0.0238  0.0612  0.0078
33091ION     NA49165  16.052  15.524  11.814 -0.2192  0.1520  0.0834
33092ION     NA49166   8.306  16.798   5.651  0.1508  0.4687  0.0532
33093ION     NA49167   2.937   6.444  10.442  0.2983  0.0114 -0.1080
33094ION     NA49168   9.335  11.403   6.086 -0.1297 -0.0890  0.0263
33095ION     NA49169   9.748  10.779  10.558  0.1306  0.0996  0.0178
33096ION     NA49170  11.633   6.630  10.129  0.1845 -0.0023 -0.0166
33097ION     NA49171   3.722   8.428  10.245  0.0877  0.0183  0.0391
33098ION     NA49172  10.552   9.582  16.277  0.1701  0.1525 -0.1757
33099ION     NA49173  15.379   3.283  10.763 -0.0220  0.1200  0.1254
33100ION     NA49174  17.709   9.044   3.976 -0.0587  0.2411  0.0182
33101ION     NA49175  17.055   9.784  11.975  0.0216 -0.1129 -0.0415
33102ION     NA49176   4.951  16.846  11.816 -0.2353  0.3220  0.2600
33103ION     NA49177   9.058   3.530  12.510 -0.0595 -0.1178  0.0497
33104ION     NA49178   9.086  15.842  10.850  0.3253  0.0119 -0.1573
33105ION     NA49179   3.578  15.890  10.528 -0.1288 -0.0283  0.0468
33106ION     NA49180   8.846  17.503  10.249  0.3026 -0.1034  0.1328
33107ION     NA49181   5.426   9.123  11.454  0.0757 -0.2350 -0.1852
33108ION     NA49182   8.870   6.078   2.415  0.0613  0.1494  0.0240
33109ION     NA49183  17.566   7.025  10.644  0.3756  0.1031 -0.4242
33110ION     NA49184  14.585   9.908  10.600 -0.0937 -0.2298 -0.0187
33111ION     NA49185  11.595   1.766  10.028  0.1088 -0.2095 -0.1996
33112ION     NA49186  15.140   8.150   5.777 -0.2021  0.2912  0.1274
33113ION     NA49187  12.638   4.695   4.829  0.4050  0.0232 -0.0076
33114ION     NA49188  13.183  14.740  10.638  0.2620  0.2914  0.2964
33115ION     NA49189  17.475  11.594  15.323 -0.2883  0.0608  0.2361
33116ION     NA49190  11.690  13.195  10.756  0.2349 -0.0054  0.1879
33117ION     NA49191   1.824  16.303  10.814 -0.2210 -0.1012 -0.0097
33118ION     NA49192   7.214   5.546  10.184  0.4743  0.1048 -0.0891
33119ION     NA49193   7.266   4.714  10.144  0.1218 -0.1680  0.1922
33120ION     NA49194   7.174  16.245  10.436  0.1085  0.4477  0.1162
33121ION     NA49195   9.084   0.881   2.332 -0.2070  0.1341  0.0899
33122ION     NA49196   7.868   8.556  10.240 -0.1134  0.0161  0.2676
33123ION     NA49197   6.169  17.156  10.537  0.0165  0.4051  0.0841
33124ION     NA49198  13.119  10.680   6.135 -0.0708  0.1191  0.0647
33125ION     NA49199   4.205   1.962  10.448 -0.0119  0.4193 -0.3361
33126ION     NA49200   8.560   2.850   5.587  0.0156  0.0394  0.0652
33127ION     NA49201  10.939   1.405   4.972 -0.0573 -0.4075 -0.2304
33128ION     NA49202   6.143   6.712   0.087 -0.0702 -0.1127 -0.1079
33129ION     NA49203   6.660  14.443   2.165 -0.2677 -0.1026  0.0531
33130ION     NA49204  13.953   7.323  10.172  0.1148  0.0131 -0.0764
33131ION     NA49205   7.406  11.413  10.896 -0.3592  0.3416  0.1808
33132ION     NA49206   8.988  16.507   5.457  0.0744  0.1289  0.0594
33133ION     NA49207   2.585   2.313  14.814 -0.4842  0.3468 -0.3709
33134ION     NA49208  16.814   2.734  10.950 -0.0560 -0.1136 -0.1240
33135ION     NA49209  11.042  14.774  10.523 -0.2596  0.2738 -0.0436
33136ION     NA49210   2.630   1.799  10.616  0.0008  0.1079 -0.1671
33137ION     NA49211   2.319   6.186   3.509  0.0543  0.4967  0.0948
33138ION     NA49212   3.308   7.934   4.826 -0.0786  0.2876 -0.0017
33139ION     NA49213   4.404  10.732  10.465 -0.0100 -0.1039  0.0503
33140ION     NA49214   2.262   2.520  10.524 -0.0424 -0.2118  0.1645
33141ION     NA49215   7.817  13.909  10.478 -0.1494 -0.4601 -0.0568
33142ION     NA49216   3.269  14.471  10.437  0.1531 -0.1404  0.5742
33143ION     NA49217  10.082   9.250  11.537 -0.3269  0.1046 -0.0517
33144ION     NA49218   9.626   2.434   9.841 -0.2239 -0.0515 -0.1597
33145ION     NA49219  10.757  15.782   4.996 -0.1974  0.1188 -0.0710
33146ION     NA49220  10.768  11.223  10.787 -0.0073 -0.0056  0.0335
33147ION     NA49221   1.163   9.816  10.501 -0.1198  0.5091  0.1102
33148ION     NA49222   9.951  10.377  13.812 -0.0006  0.0615 -0.2404
33149ION     NA49223  15.215   3.406   0.641 -0.1193 -0.1693  0.0146
33150ION     NA49224  10.511   4.880  11.956 -0.5268  0.0258 -0.1617
33151ION     NA49225   5.406  10.567  10.501  0.0222  0.0352  0.2836
33152ION     NA49226   9.510   8.961   1.521  0.1918 -0.0035 -0.1328
33153ION     NA49227  11.926   5.566   9.784  0.1041 -0.0772 -0.0854
33154ION     NA49228  16.012   0.980  10.731  0.2147  0.0393 -0.1491
33155ION     NA49229  12.576  14.365   3.356  0.0121 -0.1166  0.0279
33156ION     NA49230  14.599   5.258  10.500 -0.1011  0.0395  0.2402
33157ION     NA49231   8.367   5.390   5.630 -0.0237  0.2129  0.0222
33158ION     NA49232   0.111   6.784   5.930  0.4042 -0.0700 -0.0580
33159ION     NA49233  12.291   0.070   5.724  0.1898 -0.2903  0.2522
33160ION     NA49234  11.888   2.889   9.973  0.0923  0.1011  0.1078
33161ION     NA49235   4.172   4.214   5.707  0.0143 -0.1189  0.1941
33162ION     NA49236   5.534   2.518  10.376  0.3969 -0.2721 -0.0621
33163ION     NA49237  15.049   8.370  10.608  0.0241  0.2994 -0.2177
33164ION     NA49238   8.299   1.864   9.794 -0.1926  0.0469  0.1106
33165ION     NA49239   2.719  16.201  10.573 -0.5326 -0.1236  0.0331
33166ION     NA49240   7.035   1.048  10.105 -0.3518 -0.0442  0.3183
33167ION     NA49241  16.272  16.301   6.058  0.1918  0.1487 -0.1589
33168ION     NA49242  16.892   0.817  10.714  0.3319 -0.0973  0.0419
33169ION     NA49243   5.907   9.212  15.529 -0.0894  0.0257  0.0823
33170ION     NA49244   2.656  15.272  10.561  0.0342 -0.0802  0.0785
33171ION     NA49245   9.626  13.853  10.932  0.1145 -0.2658 -0.2170
33172ION     NA49246   7.026   1.903   9.878 -0.2075  0.1842 -0.0379
33173ION     NA49247   6.992  17.284  10.524 -0.2491  0.2041 -0.0694
33174ION     NA49248   2.874  16.004   2.261 -0.0908  0.0230  0.1404
33175ION     NA49249   1.269   5.966  10.452  0.1248  0.0049 -0.1595
33176ION     NA49250  16.156   6.651   2.906 -0.0509 -0.1223  0.2273
33177ION     NA49251  13.718   8.332  10.474 -0.0175 -0.1025  0.1932
33178ION     NA49252   8.035   5.173   9.974 -0.1027 -0.0430  0.0700
33179ION     NA49253   9.476  18.241   4.816  0.1023  0.0048 -0.2543
33180ION     NA49254  11.190  12.934   6.003 -0.1791 -0.0080 -0.1725
33181ION     NA49255  17.798   3.157  14.178 -0.3157 -0.0395  0.2187
33182ION     NA49256   4.467   9.694  10.436 -0.0443 -0.0142  0.1425
33183ION     NA49257   2.595   1.013  10.568  0.1174  0.2771 -0.2116
33184ION     NA49258  13.620  11.443   6.070 -0.1840 -0.0673  0.3267
33185ION     NA49259  13.024   5.383   5.688  0.0451  0.0594 -0.2170
33186ION     NA49260   0.215   5.743  15.884 -0.0770  0.0833 -0.0186
33187ION     NA49261  10.114  14.729  10.421 -0.0370 -0.1368 -0.0145
  18.33424  18.33424  16.39783
