INSANE! Membrane UpperLeaflet>loPI:POPI:DPPI:PYPI:ERGO=180.0:5.0:3.0:2.0:10.0 LowerLeaflet>PSPI:POPI:POPS:YOPS:POPE:YOPE:POPC:YOPC:ERGO=6.0:14.0:21.0:9.0:9.0:21.0:12.0:48.0:60.0
49261
    1loPI    C1    1   0.334   1.717  11.223  0.1058  0.1864  0.1330
    1loPI    C2    2   0.653   1.958  11.228  0.1156  0.1780 -0.0339
    1loPI    C3    3   0.288   2.108  11.295  0.1300  0.2262 -0.0628
    1loPI   PO4    4   0.274   1.579  10.984 -0.0088 -0.0885  0.1066
    1loPI   GL1    5   0.430   1.397  10.635 -0.2045  0.0972 -0.1418
    1loPI   GL2    6   0.202   1.203  10.482  0.1715 -0.0267 -0.0342
    1loPI   C1A    7   0.699   1.142  10.311  0.0070 -0.1055  0.0624
    1loPI   C2A    8   0.665   1.202   9.851  0.1054 -0.0087 -0.2280
    1loPI   C3A    9   0.771   1.251   9.397 -0.1722  0.3359 -0.1595
    1loPI   C4A   10   0.721   1.316   9.050  0.0218  0.3450  0.3692
    1loPI   C5A   11   0.739   1.285   8.584 -0.0682  0.0406  0.4008
    1loPI   C6A   12   0.557   1.478   8.312  0.2851 -0.1121 -0.2933
    1loPI   C1B   13   0.170   1.077  10.056 -0.0215  0.0488 -0.1233
    1loPI   C2B   14   0.157   1.224   9.553  0.0312 -0.2251 -0.0636
    1loPI   C3B   15   0.223   1.220   9.107  0.0568  0.0441  0.4562
    1loPI   C4B   16   0.189   1.177   8.651  0.0208  0.1966  0.0845
    2loPI    C1   17  16.791   4.370  11.059 -0.1362  0.0399  0.2677
    2loPI    C2   18  17.164   4.499  11.119 -0.0393 -0.0670 -0.0785
    2loPI    C3   19  16.932   4.407  11.431  0.2774 -0.1554  0.1367
    2loPI   PO4   20  16.850   4.222  10.831  0.0972  0.2259  0.1666
    2loPI   GL1   21  16.622   4.116  10.400 -0.3285 -0.3328  0.0325
    2loPI   GL2   22  16.704   3.799  10.467  0.2262  0.0155 -0.2928
    2loPI   C1A   23  16.432   4.314  10.051  0.2209 -0.1081 -0.0771
    2loPI   C2A   24  16.360   4.236   9.571 -0.1441 -0.2268 -0.1440
    2loPI   C3A   25  16.315   4.224   9.035  0.2152  0.3848  0.2918
    2loPI   C4A   26  16.318   4.056   8.645  0.0832 -0.0229 -0.0484
    2loPI   C5A   27  16.650   4.049   8.363 -0.0921  0.0671  0.0190
    2loPI   C6A   28  16.717   3.809   7.934 -0.0244 -0.3591 -0.0717
    2loPI   C1B   29  16.616   3.824  10.045 -0.2206  0.0858  0.0225
    2loPI   C2B   30  16.614   3.759   9.535  0.3045  0.0741  0.2220
    2loPI   C3B   31  16.606   3.872   9.191 -0.0227  0.0496  0.0105
    2loPI   C4B   32  16.705   3.747   8.811 -0.1585  0.1392 -0.0764
    3loPI    C1   33   0.833   0.067  11.277 -0.0127 -0.2094 -0.0428
    3loPI    C2   34   1.010  -0.258  11.428  0.2682  0.0265  0.1454
    3loPI    C3   35   1.086   0.102  11.584  0.0128  0.1933 -0.1051
    3loPI   PO4   36   0.843   0.026  11.056  0.0474  0.0437 -0.0605
    3loPI   GL1   37   0.668  -0.187  10.612  0.2655 -0.0697 -0.1730
    3loPI   GL2   38   0.946  -0.156  10.566 -0.0240 -0.1109  0.1526
    3loPI   C1A   39   0.641  -0.117  10.130 -0.0508 -0.2570  0.1715
    3loPI   C2A   40   0.578  -0.048   9.750 -0.1683 -0.0209  0.3192
    3loPI   C3A   41   0.683  -0.058   9.357 -0.0701  0.0813 -0.0105
    3loPI   C4A   42   0.697  -0.165   8.928 -0.0760 -0.3855 -0.1441
    3loPI   C5A   43   0.922  -0.508   8.600  0.0047 -0.5461 -0.0898
    3loPI   C6A   44   0.763  -0.861   8.379  0.0869  0.0740  0.0536
    3loPI   C1B   45   1.121  -0.042  10.114  0.0910  0.0926 -0.0126
    3loPI   C2B   46   1.168  -0.035   9.640  0.1679  0.0922 -0.1216
    3loPI   C3B   47   1.216  -0.096   9.115 -0.0408 -0.1075 -0.0770
    3loPI   C4B   48   1.257  -0.089   8.621  0.0450 -0.0901  0.2749
    4loPI    C1   49  12.345   1.936  11.005 -0.1160  0.1987 -0.0744
    4loPI    C2   50  12.555   2.179  11.243 -0.0143  0.1711 -0.1351
    4loPI    C3   51  12.156   2.206  11.232 -0.0238  0.1376  0.0767
    4loPI   PO4   52  12.389   1.990  10.795  0.2559 -0.0755 -0.0610
    4loPI   GL1   53  12.451   1.944  10.418  0.0470 -0.0296 -0.1720
    4loPI   GL2   54  12.760   2.134  10.501 -0.1149  0.0436 -0.3237
    4loPI   C1A   55  12.443   1.924  10.060  0.2469  0.3318 -0.0194
    4loPI   C2A   56  12.456   1.887   9.673 -0.4773  0.0079 -0.2411
    4loPI   C3A   57  12.490   1.944   9.276  0.1627 -0.0124  0.1921
    4loPI   C4A   58  12.357   1.936   8.896  0.0269 -0.0601 -0.0569
    4loPI   C5A   59  12.243   1.895   8.566  0.2892 -0.0200 -0.1889
    4loPI   C6A   60  12.208   2.167   8.218 -0.0492  0.0338 -0.0401
    4loPI   C1B   61  12.901   1.888  10.275 -0.0236  0.0168  0.1199
    4loPI   C2B   62  13.028   1.981   9.924  0.2275 -0.1526 -0.2011
    4loPI   C3B   63  12.957   1.943   9.481 -0.1059 -0.0160  0.1175
    4loPI   C4B   64  12.968   2.046   9.060 -0.0045 -0.1700 -0.3744
    5loPI    C1   65  10.169   6.205  11.448 -0.1684 -0.0150  0.3377
    5loPI    C2   66  10.232   5.918  11.719  0.1331 -0.1523  0.1276
    5loPI    C3   67  10.431   6.264  11.745  0.1108 -0.1389  0.1196
    5loPI   PO4   68  10.051   6.037  11.173 -0.0216  0.0220 -0.2131
    5loPI   GL1   69  10.154   6.247  10.664  0.0124  0.0175 -0.1730
    5loPI   GL2   70  10.495   6.313  10.540 -0.1317 -0.3829 -0.1093
    5loPI   C1A   71   9.880   6.176  10.234 -0.0071 -0.1579  0.2410
    5loPI   C2A   72   9.889   6.265   9.867  0.0024  0.0309 -0.1131
    5loPI   C3A   73   9.933   6.367   9.405  0.1665  0.0962 -0.2592
    5loPI   C4A   74   9.942   6.334   9.041  0.0415 -0.1451  0.2691
    5loPI   C5A   75   9.978   6.381   8.661  0.2256  0.0297 -0.1527
    5loPI   C6A   76  10.260   6.075   8.492 -0.0171 -0.1137  0.1617
    5loPI   C1B   77  10.413   6.328  10.078 -0.0890  0.0797 -0.0031
    5loPI   C2B   78  10.399   6.404   9.664 -0.2079  0.0471 -0.3179
    5loPI   C3B   79  10.434   6.432   9.188 -0.4290  0.1580 -0.0550
    5loPI   C4B   80  10.479   6.395   8.770  0.1599  0.1497 -0.0257
    6loPI    C1   81  10.107   1.228  11.156  0.0348 -0.1330 -0.2849
    6loPI    C2   82   9.894   0.924  11.305  0.0380 -0.0199 -0.0452
    6loPI    C3   83  10.286   0.949  11.382  0.0554 -0.0026 -0.1387
    6loPI   PO4   84  10.025   1.244  10.861  0.0896 -0.0394 -0.0373
    6loPI   GL1   85  10.385   1.121  10.496  0.1323 -0.0747 -0.1958
    6loPI   GL2   86  10.270   1.447  10.493 -0.1874 -0.1493 -0.0546
    6loPI   C1A   87  10.421   0.940  10.035  0.0632 -0.0740 -0.0611
    6loPI   C2A   88  10.465   0.881   9.570  0.2160  0.1775 -0.0248
    6loPI   C3A   89  10.430   0.916   9.113  0.0320 -0.2713  0.0941
    6loPI   C4A   90  10.371   0.829   8.763  0.0666  0.0607  0.1990
    6loPI   C5A   91  10.221   0.818   8.322 -0.1042 -0.0373  0.3395
    6loPI   C6A   92   9.976   0.588   7.927 -0.0684  0.3172  0.1772
    6loPI   C1B   93  10.161   1.382  10.085  0.1357 -0.0231  0.0938
    6loPI   C2B   94  10.189   1.327   9.644  0.1565 -0.0730 -0.0508
    6loPI   C3B   95  10.132   1.279   9.263 -0.2412 -0.0436  0.0400
    6loPI   C4B   96  10.158   1.292   8.735 -0.0957 -0.2640 -0.1114
    7loPI    C1   97   5.809   8.615  10.884 -0.1324 -0.1574  0.0557
    7loPI    C2   98   5.771   8.228  10.978 -0.1074 -0.1576  0.0654
    7loPI    C3   99   5.913   8.487  11.249  0.0915 -0.1810 -0.0151
    7loPI   PO4  100   5.875   8.586  10.663 -0.2806  0.1342 -0.1375
    7loPI   GL1  101   6.101   8.567  10.367 -0.0339 -0.2947 -0.2928
    7loPI   GL2  102   6.449   8.621  10.415  0.0196 -0.0607  0.1296
    7loPI   C1A  103   6.067   8.654   9.963 -0.3907 -0.2389 -0.0863
    7loPI   C2A  104   6.075   8.604   9.493 -0.0752  0.2304 -0.4973
    7loPI   C3A  105   5.972   8.667   9.057 -0.0888 -0.0161  0.0302
    7loPI   C4A  106   5.950   8.615   8.664  0.2448 -0.1681 -0.0426
    7loPI   C5A  107   5.769   8.659   8.296 -0.2357  0.1031  0.0081
    7loPI   C6A  108   5.789   8.969   7.960  0.0364  0.1374 -0.1155
    7loPI   C1B  109   6.594   8.644   9.976  0.0705 -0.1142  0.0077
    7loPI   C2B  110   6.527   8.710   9.641 -0.2663 -0.0927 -0.0239
    7loPI   C3B  111   6.444   8.739   9.180  0.1080 -0.0571  0.1210
    7loPI   C4B  112   6.491   8.692   8.742 -0.0256 -0.0518 -0.3534
    8loPI    C1  113   4.023  13.622  11.464 -0.0160 -0.1642  0.1411
    8loPI    C2  114   4.326  13.877  11.523 -0.1679  0.0812 -0.1114
    8loPI    C3  115   4.008  13.884  11.765  0.0353 -0.1964  0.1717
    8loPI   PO4  116   4.057  13.651  11.154 -0.2058 -0.1920  0.2914
    8loPI   GL1  117   3.926  13.628  10.723  0.3376  0.1662  0.2891
    8loPI   GL2  118   4.320  13.814  10.643 -0.0042  0.0646 -0.0155
    8loPI   C1A  119   3.907  13.842  10.366  0.0202  0.2557  0.2626
    8loPI   C2A  120   3.906  13.822   9.892 -0.2100 -0.3745 -0.2269
    8loPI   C3A  121   3.949  13.771   9.535  0.0456  0.1357  0.0231
    8loPI   C4A  122   3.861  13.780   9.150 -0.3710 -0.1628  0.2965
    8loPI   C5A  123   3.896  13.860   8.805 -0.1116  0.2102  0.2017
    8loPI   C6A  124   3.745  13.889   8.386  0.0444 -0.2914 -0.1196
    8loPI   C1B  125   4.380  13.851  10.180  0.0447 -0.0070  0.1440
    8loPI   C2B  126   4.375  13.912   9.717 -0.0938 -0.0431 -0.0436
    8loPI   C3B  127   4.378  13.949   9.288 -0.0370  0.0410 -0.3330
    8loPI   C4B  128   4.411  13.917   8.904 -0.2507  0.0311  0.3710
    9loPI    C1  129  11.807   2.593  11.265  0.1771 -0.2936 -0.2039
    9loPI    C2  130  12.191   2.682  11.331  0.1396 -0.0177 -0.3406
    9loPI    C3  131  11.908   2.820  11.578  0.1385 -0.3566 -0.1454
    9loPI   PO4  132  11.855   2.548  10.956 -0.0308  0.1867  0.2332
    9loPI   GL1  133  11.968   2.239  10.674 -0.2131  0.1586 -0.0620
    9loPI   GL2  134  11.912   1.917  10.555 -0.0187 -0.0975  0.2167
    9loPI   C1A  135  12.152   2.325  10.293  0.1142  0.0303  0.0738
    9loPI   C2A  136  12.154   2.389   9.903 -0.0301  0.0679  0.2466
    9loPI   C3A  137  12.161   2.344   9.355 -0.0924 -0.1256 -0.2072
    9loPI   C4A  138  12.094   2.415   9.008 -0.1554  0.0596  0.0567
    9loPI   C5A  139  12.040   2.487   8.657 -0.1092  0.0746 -0.0437
    9loPI   C6A  140  12.333   2.754   8.355  0.3457  0.1781  0.0000
    9loPI   C1B  141  11.972   1.809  10.120  0.3546  0.0510  0.0423
    9loPI   C2B  142  11.958   1.888   9.689 -0.2145  0.0062  0.0925
    9loPI   C3B  143  11.964   1.850   9.331 -0.1726 -0.3169 -0.1288
    9loPI   C4B  144  11.860   1.885   8.895  0.1559 -0.1825  0.0180
   10loPI    C1  145  13.008  16.495  11.391  0.2489  0.1639 -0.0228
   10loPI    C2  146  12.842  16.773  11.625  0.0330 -0.0105  0.0341
   10loPI    C3  147  12.703  16.398  11.631  0.0715 -0.0335 -0.3214
   10loPI   PO4  148  13.099  16.661  11.170  0.1573  0.1331 -0.2396
   10loPI   GL1  149  13.481  16.702  10.817  0.4202 -0.0216  0.0620
   10loPI   GL2  150  13.077  16.690  10.659  0.0638 -0.1749 -0.0738
   10loPI   C1A  151  13.437  16.741  10.341 -0.3465  0.0011  0.0886
   10loPI   C2A  152  13.569  16.673   9.969 -0.2342 -0.1426 -0.0674
   10loPI   C3A  153  13.549  16.624   9.468  0.1004  0.1000 -0.0777
   10loPI   C4A  154  13.383  16.554   9.103  0.4194 -0.3870 -0.0185
   10loPI   C5A  155  13.223  16.856   8.660  0.0599 -0.1597 -0.1326
   10loPI   C6A  156  13.160  17.268   8.612 -0.1696 -0.0919 -0.2175
   10loPI   C1B  157  12.942  16.614  10.263 -0.2582 -0.1255  0.4820
   10loPI   C2B  158  13.020  16.636   9.857 -0.0073  0.2134  0.1781
   10loPI   C3B  159  12.920  16.542   9.340  0.0489 -0.0005  0.1999
   10loPI   C4B  160  12.848  16.523   8.937 -0.0717 -0.0036 -0.0349
   11loPI    C1  161  14.646  15.891  11.409  0.0380 -0.3530  0.1428
   11loPI    C2  162  14.727  16.120  11.727  0.0802 -0.1290 -0.0266
   11loPI    C3  163  14.916  15.771  11.679  0.0186 -0.2000  0.2318
   11loPI   PO4  164  14.666  15.998  11.203 -0.2215  0.1643  0.1206
   11loPI   GL1  165  14.639  16.041  10.667 -0.1540 -0.2185  0.0893
   11loPI   GL2  166  14.756  16.309  10.638  0.1840  0.4462  0.4112
   11loPI   C1A  167  14.705  15.945  10.212  0.0667 -0.0270 -0.4488
   11loPI   C2A  168  14.603  15.855   9.800  0.0847  0.1193 -0.0882
   11loPI   C3A  169  14.504  15.791   9.394  0.1690  0.3734  0.1715
   11loPI   C4A  170  14.557  15.985   8.995  0.0483 -0.1418 -0.0849
   11loPI   C5A  171  14.559  15.984   8.547 -0.2330 -0.2294  0.2574
   11loPI   C6A  172  14.358  15.883   8.260  0.2224 -0.1389  0.0629
   11loPI   C1B  173  14.885  16.386  10.242  0.1300 -0.2304 -0.0269
   11loPI   C2B  174  14.820  16.309   9.820  0.2362 -0.2174  0.1818
   11loPI   C3B  175  14.733  16.370   9.378  0.0077  0.0430 -0.0900
   11loPI   C4B  176  14.716  16.458   8.940 -0.0898  0.2073 -0.0742
   12loPI    C1  177  14.124   2.399  11.329  0.1535  0.2841  0.1535
   12loPI    C2  178  14.290   2.136  11.581  0.0952  0.1366  0.0388
   12loPI    C3  179  14.214   2.509  11.703  0.4184  0.1782  0.1234
   12loPI   PO4  180  14.321   2.384  11.121 -0.0391  0.0917 -0.1810
   12loPI   GL1  181  14.462   2.276  10.729 -0.3900  0.1590 -0.1057
   12loPI   GL2  182  14.211   2.309  10.675 -0.3589  0.2224  0.0790
   12loPI   C1A  183  14.549   2.257  10.306 -0.2202  0.2206  0.0150
   12loPI   C2A  184  14.522   2.249   9.879 -0.1290  0.2653  0.1153
   12loPI   C3A  185  14.519   2.152   9.529 -0.2822  0.0400  0.1350
   12loPI   C4A  186  14.460   2.177   9.119  0.0884  0.4601 -0.0029
   12loPI   C5A  187  14.327   2.162   8.755  0.1384 -0.4975  0.1836
   12loPI   C6A  188  13.941   2.111   8.586  0.0421 -0.0431  0.2113
   12loPI   C1B  189  14.020   2.294  10.321 -0.0847 -0.0214 -0.0824
   12loPI   C2B  190  13.996   2.257   9.894 -0.2048  0.1041  0.3260
   12loPI   C3B  191  14.010   2.161   9.475 -0.0615  0.0857 -0.3142
   12loPI   C4B  192  13.939   2.091   9.108 -0.0486  0.3880  0.1882
   13loPI    C1  193  17.478  17.340  11.253  0.0869 -0.0083  0.1328
   13loPI    C2  194  17.350  17.447  11.617 -0.1036  0.0872  0.0394
   13loPI    C3  195  17.365  17.060  11.516 -0.1873  0.0680  0.0994
   13loPI   PO4  196  17.328  17.531  11.122  0.1707 -0.0853 -0.2175
   13loPI   GL1  197  17.405  17.509  10.578  0.1598  0.1459 -0.2969
   13loPI   GL2  198  17.110  17.448  10.676 -0.1991 -0.1686  0.0235
   13loPI   C1A  199  17.308  17.501  10.137  0.1279  0.3295 -0.3897
   13loPI   C2A  200  17.339  17.523   9.681 -0.1200 -0.1221 -0.1845
   13loPI   C3A  201  17.356  17.526   9.217  0.0027  0.1813 -0.0248
   13loPI   C4A  202  17.474  17.623   8.842  0.2521 -0.0091 -0.0728
   13loPI   C5A  203  17.752  17.847   8.557  0.0856  0.0358 -0.0505
   13loPI   C6A  204  17.907  18.237   8.291  0.0432 -0.0896  0.1969
   13loPI   C1B  205  16.841  17.426  10.276 -0.2977 -0.0378  0.0776
   13loPI   C2B  206  16.893  17.463   9.864  0.0824 -0.2949 -0.4456
   13loPI   C3B  207  16.913  17.438   9.391  0.2106  0.0405  0.5065
   13loPI   C4B  208  16.734  17.481   8.973 -0.0030  0.1690  0.0840
   14loPI    C1  209   3.072   3.787  11.353  0.1404  0.1841  0.0158
   14loPI    C2  210   2.921   3.867  11.715  0.1428  0.1426  0.0260
   14loPI    C3  211   3.190   3.574  11.670  0.0677  0.0810 -0.0257
   14loPI   PO4  212   2.938   3.760  11.184  0.3626  0.1789 -0.0963
   14loPI   GL1  213   2.796   3.793  10.775  0.1870 -0.3583 -0.1527
   14loPI   GL2  214   3.109   3.699  10.736  0.0799  0.2723  0.0822
   14loPI   C1A  215   2.759   3.754  10.354  0.1188  0.0500  0.0196
   14loPI   C2A  216   2.771   3.756   9.867  0.1328  0.0771 -0.0534
   14loPI   C3A  217   2.756   3.682   9.426 -0.1267  0.0706  0.0002
   14loPI   C4A  218   2.766   3.764   9.065 -0.2167 -0.1792  0.0860
   14loPI   C5A  219   2.885   3.827   8.752  0.3116  0.0829 -0.2478
   14loPI   C6A  220   3.122   3.584   8.546  0.0628 -0.2744 -0.1503
   14loPI   C1B  221   3.341   3.801  10.336  0.3527  0.1563 -0.3276
   14loPI   C2B  222   3.315   3.773   9.911 -0.0559  0.0385  0.4565
   14loPI   C3B  223   3.307   3.762   9.444 -0.1566  0.0728  0.0200
   14loPI   C4B  224   3.363   3.736   8.998 -0.2451 -0.1316 -0.1330
   15loPI    C1  225   7.769  16.379  11.021 -0.0620 -0.0078  0.3541
   15loPI    C2  226   7.937  16.246  11.359  0.2617 -0.0358  0.1862
   15loPI    C3  227   8.152  16.464  11.101  0.0026  0.0290  0.0211
   15loPI   PO4  228   7.661  16.190  10.882  0.2268 -0.1188  0.0631
   15loPI   GL1  229   7.525  16.075  10.567 -0.1538 -0.1412 -0.0928
   15loPI   GL2  230   7.812  16.043  10.337 -0.2604 -0.2922 -0.1761
   15loPI   C1A  231   7.355  15.958  10.187  0.4617  0.3262 -0.2075
   15loPI   C2A  232   7.283  15.949   9.734  0.3739  0.1852  0.1137
   15loPI   C3A  233   7.265  15.937   9.286 -0.2302  0.2019  0.3361
   15loPI   C4A  234   7.148  15.913   8.778  0.0481  0.0169  0.2403
   15loPI   C5A  235   7.083  16.358   8.492 -0.2393  0.1692 -0.1224
   15loPI   C6A  236   6.786  16.641   8.297 -0.2005  0.2048 -0.0319
   15loPI   C1B  237   7.795  16.135   9.898  0.0185 -0.1760 -0.0596
   15loPI   C2B  238   7.802  16.145   9.536  0.0943 -0.0750 -0.0910
   15loPI   C3B  239   7.775  15.962   9.177 -0.2543 -0.2653 -0.0872
   15loPI   C4B  240   7.747  15.939   8.790 -0.2488 -0.2813 -0.0193
   16loPI    C1  241  13.892   6.384  11.233  0.2858  0.3046 -0.1916
   16loPI    C2  242  13.666   6.658  11.417 -0.2315 -0.1789 -0.0783
   16loPI    C3  243  14.003   6.527  11.589 -0.1819  0.1023  0.0441
   16loPI   PO4  244  13.911   6.498  11.027  0.0593 -0.0550  0.2681
   16loPI   GL1  245  13.949   6.417  10.607  0.2837  0.0905  0.0156
   16loPI   GL2  246  14.033   6.665  10.499 -0.3287 -0.1487  0.0957
   16loPI   C1A  247  13.788   6.201  10.233  0.0520 -0.2505 -0.1911
   16loPI   C2A  248  13.784   6.200   9.804 -0.2118  0.2066 -0.1466
   16loPI   C3A  249  13.801   6.260   9.313 -0.0539  0.0842  0.1856
   16loPI   C4A  250  13.787   6.325   8.865  0.0194  0.1453  0.0698
   16loPI   C5A  251  13.722   6.372   8.451  0.0826  0.1476 -0.0331
   16loPI   C6A  252  13.735   6.794   8.311 -0.0394 -0.0887 -0.1960
   16loPI   C1B  253  14.059   6.619  10.013  0.1467 -0.2795 -0.1864
   16loPI   C2B  254  13.995   6.738   9.593 -0.3107 -0.2156  0.2284
   16loPI   C3B  255  13.948   6.754   9.133 -0.2414  0.0198 -0.2180
   16loPI   C4B  256  14.010   6.822   8.741  0.0361 -0.1914 -0.3088
   17loPI    C1  257  15.935   4.497  11.308 -0.2728  0.2013 -0.0173
   17loPI    C2  258  16.035   4.880  11.247  0.1309  0.1233  0.1243
   17loPI    C3  259  15.844   4.774  11.582 -0.1126  0.2198  0.0184
   17loPI   PO4  260  15.924   4.413  11.039  0.3141 -0.0880  0.4696
   17loPI   GL1  261  15.790   4.437  10.647  0.3140 -0.1665  0.0204
   17loPI   GL2  262  15.558   4.247  10.493  0.5403 -0.1578  0.1659
   17loPI   C1A  263  16.022   4.584  10.276  0.4938  0.0171  0.0606
   17loPI   C2A  264  16.028   4.714   9.925  0.0131 -0.3525  0.0136
   17loPI   C3A  265  16.016   4.599   9.458  0.5678 -0.1512  0.3163
   17loPI   C4A  266  15.926   4.688   9.021  0.2937 -0.0659  0.0746
   17loPI   C5A  267  15.891   4.715   8.541 -0.0014  0.0229  0.1263
   17loPI   C6A  268  15.500   4.503   8.245  0.0179 -0.2857  0.3732
   17loPI   C1B  269  15.352   4.160  10.047  0.1885 -0.0591 -0.2346
   17loPI   C2B  270  15.283   4.089   9.611  0.3288  0.0457  0.0277
   17loPI   C3B  271  15.289   4.095   9.208 -0.0684  0.0124 -0.0449
   17loPI   C4B  272  15.249   4.016   8.721  0.0684 -0.1563 -0.1394
   18loPI    C1  273  11.099   5.761  11.313  0.0493 -0.1863 -0.1660
   18loPI    C2  274  10.944   5.913  11.649  0.1113  0.0340 -0.2356
   18loPI    C3  275  10.806   5.566  11.504  0.0750 -0.0554  0.0087
   18loPI   PO4  276  11.061   5.935  11.032 -0.0021 -0.2929  0.0295
   18loPI   GL1  277  10.737   5.906  10.727 -0.3910 -0.0344  0.1622
   18loPI   GL2  278  10.460   5.822  10.896 -0.2670 -0.0135 -0.1384
   18loPI   C1A  279  10.736   5.899  10.209 -0.2399  0.1329  0.0860
   18loPI   C2A  280  10.665   6.001   9.784  0.1137  0.0109  0.0161
   18loPI   C3A  281  10.672   6.026   9.304  0.0168 -0.2320 -0.2554
   18loPI   C4A  282  10.685   5.907   8.935  0.0273 -0.3312  0.4938
   18loPI   C5A  283  10.994   5.741   8.670  0.0185 -0.0052  0.1931
   18loPI   C6A  284  11.292   5.381   8.471  0.1644 -0.1763  0.0092
   18loPI   C1B  285  10.265   5.701  10.486  0.0270 -0.1506 -0.4471
   18loPI   C2B  286  10.250   5.802  10.048  0.5412  0.3818  0.1280
   18loPI   C3B  287  10.198   5.847   9.545 -0.1753  0.1426  0.0092
   18loPI   C4B  288  10.226   5.895   9.139  0.0351 -0.1397 -0.4117
   19loPI    C1  289  15.241  11.958  11.107  0.0134  0.0071 -0.0273
   19loPI    C2  290  15.446  12.138  11.400  0.0178  0.0458 -0.0541
   19loPI    C3  291  15.060  12.047  11.453  0.0737 -0.1400  0.0430
   19loPI   PO4  292  15.144  12.040  10.885  0.0796  0.3048  0.2283
   19loPI   GL1  293  15.166  12.147  10.457 -0.0007 -0.0033 -0.2065
   19loPI   GL2  294  14.888  12.262  10.292 -0.1674  0.2520 -0.0648
   19loPI   C1A  295  15.249  11.879  10.150  0.3031 -0.2975 -0.1510
   19loPI   C2A  296  15.271  11.882   9.799  0.1332  0.2445 -0.1771
   19loPI   C3A  297  15.255  11.915   9.367  0.1230 -0.1687  0.3007
   19loPI   C4A  298  15.275  11.894   8.947  0.0772  0.2376  0.3930
   19loPI   C5A  299  15.323  11.869   8.485 -0.1464  0.2312  0.1746
   19loPI   C6A  300  15.282  12.078   8.068  0.1495 -0.2177 -0.2087
   19loPI   C1B  301  14.967  12.278   9.755  0.2326  0.3014  0.0029
   19loPI   C2B  302  14.935  12.271   9.275 -0.2909 -0.2784  0.2368
   19loPI   C3B  303  14.941  12.307   8.816  0.2067 -0.1127  0.0399
   19loPI   C4B  304  15.091  12.476   8.304  0.1778 -0.1422 -0.3652
   20loPI    C1  305  12.610  17.559  11.421 -0.1127  0.0845 -0.0761
   20loPI    C2  306  12.512  17.930  11.536 -0.0815  0.0261  0.1444
   20loPI    C3  307  12.793  17.726  11.736 -0.0610 -0.0973 -0.0083
   20loPI   PO4  308  12.640  17.592  11.138 -0.0535 -0.0392  0.0437
   20loPI   GL1  309  12.568  17.889  10.684 -0.3308 -0.4558  0.3824
   20loPI   GL2  310  12.746  18.125  10.616  0.0721 -0.2806 -0.3431
   20loPI   C1A  311  12.685  17.948  10.166 -0.0772  0.2747  0.1201
   20loPI   C2A  312  12.561  17.863   9.717  0.1463 -0.0741  0.1795
   20loPI   C3A  313  12.577  17.878   9.306 -0.1120  0.0081  0.2003
   20loPI   C4A  314  12.458  17.969   8.836 -0.0089  0.1134  0.1144
   20loPI   C5A  315  12.380  18.363   8.527 -0.3710  0.1549  0.0528
   20loPI   C6A  316  12.657  18.593   8.349  0.0602  0.1728 -0.0353
   20loPI   C1B  317  12.439  18.351  10.362 -0.2578  0.0621 -0.3684
   20loPI   C2B  318  12.295  18.384   9.970 -0.2296  0.2508 -0.3817
   20loPI   C3B  319  12.280  18.298   9.483 -0.1015  0.1710  0.0782
   20loPI   C4B  320  12.286  18.407   9.099  0.1276  0.0570  0.0358
   21loPI    C1  321   6.360  16.226  11.190 -0.1251 -0.0070 -0.2682
   21loPI    C2  322   6.216  16.595  11.244  0.2503  0.1039  0.0156
   21loPI    C3  323   6.604  16.542  11.160  0.2129 -0.2297  0.0412
   21loPI   PO4  324   6.145  16.102  11.068  0.3183 -0.1345  0.0469
   21loPI   GL1  325   5.951  16.050  10.753 -0.0322 -0.1435 -0.0477
   21loPI   GL2  326   5.637  16.001  10.716  0.0137 -0.2691 -0.2672
   21loPI   C1A  327   6.003  16.236  10.370 -0.1109  0.1113 -0.2016
   21loPI   C2A  328   5.920  16.267   9.962  0.0127 -0.2966 -0.0578
   21loPI   C3A  329   5.854  16.257   9.608 -0.1629 -0.1462  0.1197
   21loPI   C4A  330   5.842  16.284   9.147  0.0189 -0.3711  0.0071
   21loPI   C5A  331   5.976  16.164   8.725  0.1545 -0.2427  0.0115
   21loPI   C6A  332   5.964  16.046   8.304  0.0282  0.2260 -0.0536
   21loPI   C1B  333   5.806  15.788  10.369 -0.0735 -0.1336  0.1135
   21loPI   C2B  334   5.773  15.768   9.816 -0.1434  0.0384 -0.0044
   21loPI   C3B  335   5.694  15.838   9.446 -0.3712  0.0146  0.1526
   21loPI   C4B  336   5.742  15.728   8.964 -0.2529  0.0912  0.0604
   22loPI    C1  337   4.712   0.878  11.021  0.1817 -0.0555 -0.0338
   22loPI    C2  338   4.512   0.739  11.339 -0.1654  0.2395 -0.1165
   22loPI    C3  339   4.563   1.133  11.291  0.5714  0.1705 -0.0237
   22loPI   PO4  340   4.555   0.751  10.821 -0.1382  0.0816  0.0066
   22loPI   GL1  341   4.292   0.743  10.497  0.3024 -0.1572  0.1347
   22loPI   GL2  342   3.896   0.700  10.530  0.4725 -0.2706  0.3207
   22loPI   C1A  343   4.351   0.775  10.028  0.1160  0.1342  0.1283
   22loPI   C2A  344   4.321   0.767   9.575 -0.3326  0.1876  0.0568
   22loPI   C3A  345   4.431   0.638   9.196  0.2906 -0.0343 -0.0639
   22loPI   C4A  346   4.444   0.721   8.718  0.0157 -0.0402  0.0496
   22loPI   C5A  347   4.274   1.001   8.463  0.1598  0.1722 -0.0475
   22loPI   C6A  348   3.951   1.332   8.461 -0.0295 -0.0038 -0.3625
   22loPI   C1B  349   3.832   0.710  10.113  0.1772 -0.0926 -0.1992
   22loPI   C2B  350   3.805   0.748   9.638  0.6793  0.1571 -0.0835
   22loPI   C3B  351   3.920   0.719   9.285 -0.0808 -0.1938 -0.1733
   22loPI   C4B  352   3.993   0.572   8.857 -0.3191  0.0524  0.1602
   23loPI    C1  353  10.620   9.035  11.087  0.1276  0.7342  0.0969
   23loPI    C2  354  10.970   8.844  11.114 -0.2621 -0.0558 -0.1351
   23loPI    C3  355  10.780   8.962  11.446 -0.0350 -0.1145  0.0183
   23loPI   PO4  356  10.621   9.155  10.879  0.2450  0.1724  0.0369
   23loPI   GL1  357  10.713   9.065  10.388 -0.0475  0.0675 -0.1488
   23loPI   GL2  358  10.353   9.059  10.488  0.0494 -0.1160  0.0762
   23loPI   C1A  359  10.637   9.025   9.945 -0.0161  0.0433  0.0277
   23loPI   C2A  360  10.640   9.028   9.466 -0.1669  0.1754 -0.2244
   23loPI   C3A  361  10.552   9.098   9.126  0.1317  0.2125  0.0742
   23loPI   C4A  362  10.583   9.155   8.682 -0.0262 -0.2292 -0.0094
   23loPI   C5A  363  10.553   9.043   8.284 -0.0818  0.0479  0.2751
   23loPI   C6A  364  10.545   8.781   7.935  0.2096 -0.0851  0.0210
   23loPI   C1B  365  10.119   8.935  10.190 -0.1920  0.0748 -0.1110
   23loPI   C2B  366  10.179   8.973   9.711 -0.0757 -0.2525 -0.2065
   23loPI   C3B  367  10.102   9.014   9.286  0.1083 -0.1882 -0.0225
   23loPI   C4B  368   9.905   8.953   8.931 -0.4627 -0.0649 -0.0246
   24loPI    C1  369  11.380   4.633  11.356  0.0735  0.1122 -0.0889
   24loPI    C2  370  11.679   4.452  11.161  0.1124 -0.0092  0.0815
   24loPI    C3  371  11.505   4.272  11.474 -0.2089  0.0148 -0.0791
   24loPI   PO4  372  11.234   4.671  11.155 -0.0588 -0.0575  0.1233
   24loPI   GL1  373  11.077   4.940  10.840 -0.0995  0.0197 -0.0272
   24loPI   GL2  374  11.412   4.909  10.608 -0.1290  0.1246 -0.2821
   24loPI   C1A  375  10.917   5.036  10.440  0.1306  0.1647  0.2787
   24loPI   C2A  376  10.866   5.044   9.951  0.1372  0.1559 -0.1835
   24loPI   C3A  377  10.803   5.075   9.583  0.1521  0.5440 -0.1686
   24loPI   C4A  378  10.795   5.074   9.136 -0.1096 -0.2876 -0.3107
   24loPI   C5A  379  10.720   5.293   8.717 -0.0082  0.0385  0.0459
   24loPI   C6A  380  10.683   5.534   8.326  0.1110  0.0223 -0.1034
   24loPI   C1B  381  11.353   5.040  10.191  0.2654 -0.0996 -0.0030
   24loPI   C2B  382  11.301   5.065   9.751 -0.1054  0.0768 -0.1744
   24loPI   C3B  383  11.258   5.199   9.377  0.4032  0.2599  0.1044
   24loPI   C4B  384  11.347   5.104   8.910  0.3022 -0.0751 -0.2029
   25loPI    C1  385   1.538   1.865  10.943  0.0841  0.1372 -0.0249
   25loPI    C2  386   1.811   1.590  11.041  0.0939  0.1299 -0.0723
   25loPI    C3  387   1.652   1.824  11.324  0.0609  0.0528 -0.0270
   25loPI   PO4  388   1.612   1.956  10.719  0.0457  0.0831 -0.3596
   25loPI   GL1  389   2.022   1.857  10.557  0.0772  0.2891 -0.2520
   25loPI   GL2  390   2.360   1.893  10.619  0.0210  0.0774 -0.2976
   25loPI   C1A  391   1.875   1.745  10.191 -0.1326 -0.1686  0.1976
   25loPI   C2A  392   1.981   1.844   9.823 -0.0891 -0.3379 -0.2302
   25loPI   C3A  393   2.029   1.755   9.448  0.0771 -0.2347 -0.0969
   25loPI   C4A  394   2.039   1.830   9.091 -0.1441 -0.2292 -0.0260
   25loPI   C5A  395   2.042   1.881   8.673 -0.1577 -0.0707 -0.0123
   25loPI   C6A  396   1.832   2.102   8.344  0.1842 -0.0204  0.1321
   25loPI   C1B  397   2.440   1.876  10.179 -0.0529 -0.0546  0.4869
   25loPI   C2B  398   2.462   1.883   9.734 -0.3037 -0.1542 -0.2776
   25loPI   C3B  399   2.522   1.899   9.260  0.0575 -0.0772 -0.0896
   25loPI   C4B  400   2.539   1.903   8.898 -0.0939 -0.0318  0.2666
   26loPI    C1  401   1.388   8.508  11.398 -0.3157  0.0109  0.3315
   26loPI    C2  402   1.255   8.144  11.495  0.2935 -0.2815  0.1189
   26loPI    C3  403   1.597   8.280  11.652  0.1805  0.1153  0.0315
   26loPI   PO4  404   1.328   8.559  11.109  0.2314 -0.2248  0.0737
   26loPI   GL1  405   1.301   8.452  10.686 -0.3161 -0.2057 -0.2113
   26loPI   GL2  406   1.233   8.151  10.607 -0.2029  0.0770  0.2232
   26loPI   C1A  407   1.127   8.537  10.206  0.0809 -0.1779  0.0583
   26loPI   C2A  408   1.130   8.534   9.874 -0.0960  0.2293  0.3771
   26loPI   C3A  409   1.022   8.658   9.504 -0.1170 -0.0674  0.1888
   26loPI   C4A  410   0.962   8.638   9.133  0.1527 -0.0752 -0.2091
   26loPI   C5A  411   1.216   8.566   8.778  0.1136 -0.3820  0.1522
   26loPI   C6A  412   1.412   8.227   8.565 -0.2015  0.2784  0.0841
   26loPI   C1B  413   1.448   8.180  10.246 -0.5522  0.1367  0.0796
   26loPI   C2B  414   1.510   8.173   9.811 -0.2250  0.3472  0.4171
   26loPI   C3B  415   1.411   8.213   9.406 -0.0943  0.1604  0.0974
   26loPI   C4B  416   1.248   8.168   9.055 -0.0708  0.1771  0.0537
   27loPI    C1  417  16.931   8.160  11.156  0.1584  0.0345  0.0050
   27loPI    C2  418  16.813   8.515  11.014 -0.2207 -0.1876 -0.2536
   27loPI    C3  419  16.695   8.395  11.377  0.1459  0.0680 -0.0439
   27loPI   PO4  420  16.866   7.962  10.986  0.2122  0.0430 -0.1289
   27loPI   GL1  421  16.826   7.837  10.615  0.0754  0.1453  0.0001
   27loPI   GL2  422  17.153   7.889  10.439  0.0319  0.2177 -0.0760
   27loPI   C1A  423  16.517   7.814  10.260  0.2507  0.0180 -0.1023
   27loPI   C2A  424  16.497   7.919   9.896 -0.2732  0.1542 -0.1721
   27loPI   C3A  425  16.483   7.948   9.434  0.1829 -0.1497 -0.3839
   27loPI   C4A  426  16.424   7.975   8.961 -0.1036  0.2687 -0.1106
   27loPI   C5A  427  16.303   7.969   8.533 -0.1215  0.1373  0.0577
   27loPI   C6A  428  16.331   7.869   8.003  0.2679  0.1012 -0.0690
   27loPI   C1B  429  17.002   7.880  10.060  0.0259 -0.0452  0.4039
   27loPI   C2B  430  17.055   8.029   9.552  0.0769 -0.2894 -0.1815
   27loPI   C3B  431  16.945   7.952   9.126 -0.2765 -0.1907  0.2583
   27loPI   C4B  432  17.165   7.940   8.634 -0.3428 -0.0145  0.0429
   28loPI    C1  433  11.411  13.468  11.472 -0.2157 -0.3834  0.2428
   28loPI    C2  434  11.719  13.632  11.667 -0.0475 -0.0575 -0.2766
   28loPI    C3  435  11.351  13.651  11.822  0.1271 -0.0893  0.1535
   28loPI   PO4  436  11.533  13.501  11.219  0.2887  0.0672 -0.1642
   28loPI   GL1  437  11.506  13.777  10.893 -0.0407  0.0251 -0.1281
   28loPI   GL2  438  11.762  13.883  10.789 -0.0530  0.0379 -0.0355
   28loPI   C1A  439  11.301  13.685  10.591 -0.0213 -0.3747  0.0049
   28loPI   C2A  440  11.197  13.748  10.165 -0.0573  0.4053  0.2127
   28loPI   C3A  441  11.285  13.714   9.727 -0.3085 -0.0513 -0.1068
   28loPI   C4A  442  11.195  13.675   9.339  0.0015  0.0022  0.2177
   28loPI   C5A  443  11.170  13.591   8.903 -0.4676 -0.3210  0.0898
   28loPI   C6A  444  10.844  13.751   8.725 -0.1338  0.1723  0.0604
   28loPI   C1B  445  11.732  13.782  10.374 -0.3239  0.0744 -0.1439
   28loPI   C2B  446  11.721  13.691  10.027  0.0835 -0.0007 -0.2316
   28loPI   C3B  447  11.775  13.700   9.687 -0.1229  0.0367  0.1964
   28loPI   C4B  448  11.703  13.708   9.324 -0.0576 -0.2877 -0.1128
   29loPI    C1  449  13.074   0.826  11.274  0.2785 -0.2136  0.2115
   29loPI    C2  450  12.746   0.641  11.408  0.1171 -0.0436  0.0572
   29loPI    C3  451  13.000   0.811  11.667 -0.0452  0.0384  0.1644
   29loPI   PO4  452  13.050   0.727  10.915 -0.0361  0.1375  0.1154
   29loPI   GL1  453  12.853   0.887  10.621 -0.0073 -0.1312  0.0568
   29loPI   GL2  454  12.983   1.202  10.447 -0.3256 -0.0689  0.0086
   29loPI   C1A  455  12.871   0.716  10.218  0.2358 -0.4193  0.0312
   29loPI   C2A  456  12.757   0.605   9.711  0.0940 -0.2876  0.0937
   29loPI   C3A  457  12.790   0.660   9.293 -0.2418  0.0222  0.1935
   29loPI   C4A  458  12.777   0.771   8.876  0.2690 -0.3623 -0.1496
   29loPI   C5A  459  12.823   0.424   8.523 -0.1252  0.1458  0.3400
   29loPI   C6A  460  12.929   0.015   8.649  0.2580  0.0688 -0.1565
   29loPI   C1B  461  13.035   1.129   9.975 -0.1591 -0.0439 -0.0200
   29loPI   C2B  462  13.116   1.125   9.617  0.0828 -0.0628 -0.2160
   29loPI   C3B  463  13.069   1.054   9.227 -0.1656 -0.1164 -0.1730
   29loPI   C4B  464  13.038   1.191   8.835  0.0680 -0.0535 -0.0367
   30loPI    C1  465   2.750  10.286  11.262 -0.0837  0.2563  0.0261
   30loPI    C2  466   3.034  10.076  11.450  0.0507  0.3355 -0.0859
   30loPI    C3  467   2.717  10.212  11.653  0.0601  0.1915  0.0266
   30loPI   PO4  468   2.698  10.097  11.042 -0.1668  0.2427 -0.0861
   30loPI   GL1  469   2.608  10.005  10.620  0.1605  0.1178  0.1548
   30loPI   GL2  470   2.862   9.966  10.603  0.1881  0.4330 -0.0401
   30loPI   C1A  471   2.519   9.747  10.320  0.1316  0.3005 -0.3963
   30loPI   C2A  472   2.520   9.733   9.908  0.2088  0.2248 -0.1378
   30loPI   C3A  473   2.501   9.595   9.501  0.1573 -0.0933  0.1424
   30loPI   C4A  474   2.506   9.686   9.079  0.1773  0.3561 -0.1587
   30loPI   C5A  475   2.401   9.538   8.685  0.1036 -0.2535  0.0276
   30loPI   C6A  476   2.265   9.401   8.475  0.2786  0.1118 -0.1959
   30loPI   C1B  477   2.791  10.116  10.140 -0.3205  0.1609  0.0904
   30loPI   C2B  478   2.707  10.101   9.670  0.2138 -0.0269  0.0504
   30loPI   C3B  479   2.706  10.071   9.221 -0.0008 -0.0883 -0.2675
   30loPI   C4B  480   2.637  10.016   8.702  0.1638  0.0876  0.1670
   31loPI    C1  481  15.465  14.817  11.012 -0.0437 -0.0727  0.0210
   31loPI    C2  482  15.804  14.763  11.217  0.0426  0.0193 -0.0961
   31loPI    C3  483  15.470  14.874  11.407  0.0609 -0.1382  0.0293
   31loPI   PO4  484  15.517  14.964  10.774  0.6054 -0.1223  0.0851
   31loPI   GL1  485  15.664  14.971  10.434  0.0325 -0.0159  0.0538
   31loPI   GL2  486  15.805  15.188  10.488  0.1198 -0.0253 -0.4056
   31loPI   C1A  487  15.700  15.083  10.041 -0.1512 -0.2138  0.4870
   31loPI   C2A  488  15.721  15.058   9.600 -0.0984 -0.1729  0.0689
   31loPI   C3A  489  15.613  15.135   9.053  0.2233 -0.1436 -0.4647
   31loPI   C4A  490  15.737  15.235   8.615 -0.3845 -0.0945  0.3533
   31loPI   C5A  491  16.023  15.091   8.271  0.2401  0.1142 -0.1218
   31loPI   C6A  492  16.382  15.368   8.120  0.0489  0.0579 -0.1716
   31loPI   C1B  493  16.126  15.280  10.169  0.0615 -0.0770  0.1210
   31loPI   C2B  494  16.279  15.147   9.696  0.0943  0.1000  0.1326
   31loPI   C3B  495  16.228  15.159   9.216 -0.3685 -0.3868  0.0643
   31loPI   C4B  496  16.225  15.173   8.702 -0.3814  0.1016 -0.2405
   32loPI    C1  497   3.782   1.687  11.787 -0.1095 -0.2189  0.1078
   32loPI    C2  498   4.108   1.697  12.019  0.0131 -0.1963 -0.0638
   32loPI    C3  499   3.807   1.951  12.087  0.0573 -0.1752  0.0569
   32loPI   PO4  500   3.907   1.753  11.500 -0.1941 -0.0513  0.1315
   32loPI   GL1  501   3.914   1.846  10.981 -0.0115  0.1114  0.1755
   32loPI   GL2  502   3.806   1.569  10.779  0.2849  0.1032  0.0159
   32loPI   C1A  503   4.011   2.073  10.570  0.0772  0.2643 -0.0212
   32loPI   C2A  504   4.063   2.072  10.063  0.2079  0.0589 -0.2870
   32loPI   C3A  505   4.110   2.114   9.720 -0.1809  0.0272  0.1426
   32loPI   C4A  506   4.001   2.052   9.316 -0.0613  0.0444  0.1626
   32loPI   C5A  507   3.961   2.108   8.931 -0.2169  0.0934  0.3590
   32loPI   C6A  508   4.093   2.198   8.525  0.2526 -0.2408 -0.2896
   32loPI   C1B  509   3.845   1.580  10.347  0.0897 -0.3180  0.2859
   32loPI   C2B  510   3.829   1.572   9.909  0.0615  0.0457  0.1359
   32loPI   C3B  511   3.872   1.605   9.535 -0.1435  0.0279 -0.0426
   32loPI   C4B  512   3.839   1.549   9.008  0.1262  0.2318 -0.1014
   33loPI    C1  513   9.407  11.277  11.290  0.0106 -0.0465 -0.2992
   33loPI    C2  514   9.357  10.938  11.496  0.5683  0.0361 -0.0056
   33loPI    C3  515   9.251  11.288  11.658  0.4161  0.0462 -0.1241
   33loPI   PO4  516   9.340  11.256  11.104 -0.0053  0.1536  0.4130
   33loPI   GL1  517   9.249  11.387  10.655  0.0421  0.1366 -0.2957
   33loPI   GL2  518   8.956  11.527  10.563  0.0885  0.1093  0.0553
   33loPI   C1A  519   9.208  11.252  10.262 -0.3123 -0.0946  0.0974
   33loPI   C2A  520   9.158  11.194   9.941 -0.0764  0.3766 -0.0929
   33loPI   C3A  521   9.130  11.156   9.540 -0.2330 -0.0291  0.1492
   33loPI   C4A  522   8.992  11.213   9.120 -0.3847 -0.0069  0.2698
   33loPI   C5A  523   8.938  11.121   8.724  0.1314 -0.3145  0.1846
   33loPI   C6A  524   8.782  11.004   8.348 -0.1116  0.0061  0.0937
   33loPI   C1B  525   8.959  11.626  10.080  0.1778 -0.2926  0.0013
   33loPI   C2B  526   8.837  11.595   9.689  0.0206  0.2554 -0.0684
   33loPI   C3B  527   8.760  11.624   9.303 -0.1292  0.1404  0.0149
   33loPI   C4B  528   8.760  11.591   8.873  0.1211 -0.2080 -0.1636
   34loPI    C1  529  11.404   8.165  10.944  0.1146 -0.2079 -0.0158
   34loPI    C2  530  11.047   8.327  11.024  0.0760 -0.2104 -0.1806
   34loPI    C3  531  11.374   8.467  11.205 -0.0041 -0.1866 -0.0532
   34loPI   PO4  532  11.368   8.158  10.633 -0.0222  0.2246 -0.0888
   34loPI   GL1  533  11.251   8.300  10.383  0.2568 -0.3087  0.4569
   34loPI   GL2  534  10.887   8.210  10.531  0.1054 -0.2701  0.2518
   34loPI   C1A  535  11.340   8.172   9.898  0.2891 -0.1353  0.0235
   34loPI   C2A  536  11.167   8.249   9.465  0.0416  0.0253  0.0806
   34loPI   C3A  537  11.196   8.373   8.973 -0.2553 -0.2452 -0.1860
   34loPI   C4A  538  11.146   8.451   8.622  0.1211  0.1074  0.0223
   34loPI   C5A  539  11.114   8.778   8.268 -0.0072 -0.4262 -0.0217
   34loPI   C6A  540  10.964   8.995   7.881  0.0330  0.1520 -0.0769
   34loPI   C1B  541  10.847   8.176  10.030  0.2174 -0.0061  0.0651
   34loPI   C2B  542  10.662   8.111   9.633 -0.1550  0.0738  0.0194
   34loPI   C3B  543  10.703   8.178   9.291 -0.0550  0.1179 -0.3037
   34loPI   C4B  544  10.750   8.314   8.916 -0.1361 -0.3184 -0.0556
   35loPI    C1  545   1.990  10.216  11.307 -0.0188  0.1894 -0.0765
   35loPI    C2  546   2.338  10.034  11.384 -0.3111 -0.2320  0.3007
   35loPI    C3  547   2.236  10.364  11.586 -0.0624 -0.0100  0.0704
   35loPI   PO4  548   1.878  10.167  11.085 -0.1042 -0.1525  0.1032
   35loPI   GL1  549   2.097  10.327  10.680  0.0075  0.3289 -0.2133
   35loPI   GL2  550   1.935  10.555  10.737  0.0565 -0.0437  0.1840
   35loPI   C1A  551   2.106  10.127  10.306 -0.0413  0.0553  0.1007
   35loPI   C2A  552   2.179  10.124   9.820 -0.0178  0.0508 -0.1886
   35loPI   C3A  553   2.174  10.092   9.440  0.0551 -0.0069 -0.1321
   35loPI   C4A  554   2.181  10.155   9.034 -0.1269  0.1401  0.0420
   35loPI   C5A  555   2.234  10.450   8.592 -0.1042 -0.0034  0.0706
   35loPI   C6A  556   2.033  10.586   8.211  0.0255 -0.1527  0.0160
   35loPI   C1B  557   1.901  10.562  10.273 -0.1289 -0.3017 -0.2328
   35loPI   C2B  558   1.863  10.582   9.748 -0.1368 -0.1065 -0.3938
   35loPI   C3B  559   1.933  10.548   9.289 -0.2849 -0.0517  0.0748
   35loPI   C4B  560   1.812  10.480   8.878 -0.1747  0.2063  0.3477
   36loPI    C1  561  11.118  15.739  11.391  0.1842  0.0857 -0.1265
   36loPI    C2  562  11.166  15.490  11.700  0.0122  0.2483  0.0339
   36loPI    C3  563  11.303  15.865  11.722 -0.0530  0.2783 -0.0641
   36loPI   PO4  564  11.260  15.612  11.205  0.1517  0.3504  0.2198
   36loPI   GL1  565  11.228  15.538  10.775  0.1165  0.2841  0.0686
   36loPI   GL2  566  10.919  15.458  10.651 -0.1504 -0.0335  0.0537
   36loPI   C1A  567  11.456  15.440  10.425 -0.1274 -0.1887  0.2553
   36loPI   C2A  568  11.502  15.546  10.027 -0.0499 -0.0689  0.0694
   36loPI   C3A  569  11.572  15.533   9.546  0.1856  0.2578  0.1798
   36loPI   C4A  570  11.488  15.425   9.076 -0.1329  0.1906  0.0370
   36loPI   C5A  571  11.474  15.568   8.675  0.1707 -0.2134 -0.1791
   36loPI   C6A  572  11.372  15.773   8.261  0.2984 -0.1429  0.2291
   36loPI   C1B  573  11.014  15.568  10.216  0.1975 -0.1146 -0.1540
   36loPI   C2B  574  10.958  15.479   9.794  0.0043  0.3470  0.0907
   36loPI   C3B  575  11.036  15.441   9.379  0.0304 -0.0785 -0.1237
   36loPI   C4B  576  10.997  15.447   8.978  0.1660 -0.1708  0.0588
   37loPI    C1  577  15.177   2.651  11.274 -0.0367  0.0538 -0.1222
   37loPI    C2  578  15.281   2.887  11.579 -0.0185 -0.0444 -0.0518
   37loPI    C3  579  15.297   2.489  11.620 -0.3031 -0.0608 -0.0806
   37loPI   PO4  580  15.218   2.835  11.076  0.1565  0.1528 -0.2923
   37loPI   GL1  581  15.286   3.194  10.767  0.1346  0.0783  0.0215
   37loPI   GL2  582  15.236   3.472  10.776 -0.1349  0.3223 -0.2285
   37loPI   C1A  583  14.934   3.234  10.427 -0.0323  0.1644 -0.2128
   37loPI   C2A  584  14.919   3.133  10.068  0.1516 -0.1830  0.1701
   37loPI   C3A  585  14.941   3.189   9.591  0.1629  0.1259  0.0209
   37loPI   C4A  586  14.882   3.133   9.185  0.1853 -0.4230 -0.0817
   37loPI   C5A  587  14.834   3.089   8.797  0.0147  0.0410  0.0400
   37loPI   C6A  588  15.070   3.149   8.414 -0.1035 -0.0982 -0.2688
   37loPI   C1B  589  15.432   3.348  10.309  0.0510  0.0474 -0.3298
   37loPI   C2B  590  15.389   3.251   9.919 -0.2945  0.0777  0.0144
   37loPI   C3B  591  15.473   3.272   9.525  0.1685 -0.0079 -0.5322
   37loPI   C4B  592  15.348   3.208   9.151 -0.1446 -0.2818 -0.2469
   38loPI    C1  593   1.824   6.875  11.383  0.1128 -0.4143  0.3240
   38loPI    C2  594   2.191   7.033  11.397 -0.0749  0.0914 -0.1151
   38loPI    C3  595   1.940   7.083  11.704  0.0756  0.1160  0.0052
   38loPI   PO4  596   1.646   6.934  11.153 -0.0324  0.1752  0.0669
   38loPI   GL1  597   1.686   6.930  10.750  0.0874 -0.0088  0.4424
   38loPI   GL2  598   1.393   6.790  10.658 -0.0324 -0.0631 -0.1201
   38loPI   C1A  599   1.890   6.741  10.360  0.3314  0.1650 -0.1081
   38loPI   C2A  600   1.796   6.884   9.952  0.1829  0.1352  0.1666
   38loPI   C3A  601   1.812   6.827   9.537 -0.0160  0.2237  0.0107
   38loPI   C4A  602   1.719   6.804   9.132 -0.1202  0.2008  0.3485
   38loPI   C5A  603   1.619   6.868   8.659  0.1844 -0.0628  0.2759
   38loPI   C6A  604   1.284   6.874   8.424  0.1502 -0.1941  0.2982
   38loPI   C1B  605   1.363   6.884  10.202 -0.3114 -0.1047 -0.1020
   38loPI   C2B  606   1.371   6.708   9.792  0.0633 -0.2766  0.1125
   38loPI   C3B  607   1.257   6.795   9.415  0.0157 -0.1861 -0.1673
   38loPI   C4B  608   1.272   6.774   8.995 -0.0848 -0.1480 -0.2279
   39loPI    C1  609  17.516  12.005  11.451 -0.0210  0.0317  0.0059
   39loPI    C2  610  17.822  12.260  11.418 -0.0546  0.0616 -0.0770
   39loPI    C3  611  17.494  12.366  11.621  0.0701 -0.0456  0.1848
   39loPI   PO4  612  17.362  11.969  11.178  0.0374  0.5302  0.3496
   39loPI   GL1  613  17.330  11.862  10.710 -0.1833 -0.1072  0.2266
   39loPI   GL2  614  17.447  12.130  10.534 -0.1541  0.4922  0.2999
   39loPI   C1A  615  17.214  11.683  10.265 -0.0760  0.3340  0.1823
   39loPI   C2A  616  17.155  11.511   9.834 -0.0381 -0.3104 -0.1193
   39loPI   C3A  617  17.140  11.609   9.365  0.3636 -0.1129  0.1399
   39loPI   C4A  618  17.120  11.652   8.990  0.2725  0.1475  0.3307
   39loPI   C5A  619  17.070  11.667   8.571 -0.2556 -0.0174 -0.3663
   39loPI   C6A  620  17.300  11.569   8.231  0.0177  0.0821 -0.2944
   39loPI   C1B  621  17.307  12.165  10.168  0.1812 -0.2112  0.1020
   39loPI   C2B  622  17.393  12.123   9.760  0.3405 -0.0709  0.0919
   39loPI   C3B  623  17.246  12.150   9.266  0.2214  0.1316 -0.0285
   39loPI   C4B  624  17.267  12.056   8.785 -0.1311  0.1806 -0.1176
   40loPI    C1  625  11.399   2.232  11.523  0.2443 -0.1100 -0.0321
   40loPI    C2  626  11.785   2.159  11.598  0.2921  0.2831  0.1273
   40loPI    C3  627  11.594   2.450  11.796 -0.0454  0.1967 -0.0637
   40loPI   PO4  628  11.406   2.188  11.240  0.0978  0.0208  0.0918
   40loPI   GL1  629  11.352   2.422  10.861 -0.2486 -0.0887 -0.0575
   40loPI   GL2  630  11.124   2.254  10.848  0.0238  0.1179  0.2142
   40loPI   C1A  631  11.582   2.345  10.412  0.2153 -0.2574  0.0383
   40loPI   C2A  632  11.677   2.315   9.933 -0.1440  0.1148 -0.1390
   40loPI   C3A  633  11.612   2.314   9.530  0.0841 -0.0189 -0.2907
   40loPI   C4A  634  11.606   2.266   9.121 -0.0874 -0.3997 -0.4645
   40loPI   C5A  635  11.548   2.278   8.755  0.0808  0.0980  0.0009
   40loPI   C6A  636  11.083   2.264   8.588 -0.2220 -0.1270  0.0799
   40loPI   C1B  637  11.118   2.291  10.411 -0.0825  0.1081  0.0312
   40loPI   C2B  638  11.152   2.274   9.939 -0.0818 -0.1138  0.0635
   40loPI   C3B  639  11.083   2.213   9.481  0.0077  0.0177 -0.1980
   40loPI   C4B  640  11.093   2.309   9.093 -0.0286 -0.3220  0.1077
   41loPI    C1  641   1.651   2.653  11.020 -0.2144 -0.1719 -0.1416
   41loPI    C2  642   1.724   2.587  11.408  0.0960  0.1079 -0.1480
   41loPI    C3  643   1.638   2.281  11.165  0.0015 -0.0811  0.1194
   41loPI   PO4  644   1.855   2.803  10.960  0.2725 -0.1209 -0.2751
   41loPI   GL1  645   1.910   2.773  10.484 -0.1302 -0.0934  0.0670
   41loPI   GL2  646   2.226   2.777  10.423 -0.0007  0.1095  0.3329
   41loPI   C1A  647   1.863   2.760  10.116 -0.1161  0.0130 -0.0347
   41loPI   C2A  648   1.896   2.765   9.550  0.2617 -0.3603 -0.3962
   41loPI   C3A  649   1.898   2.845   9.101 -0.0835  0.2793 -0.0475
   41loPI   C4A  650   1.903   2.914   8.679  0.1309 -0.2313  0.0344
   41loPI   C5A  651   1.731   2.615   8.405  0.1274 -0.1452  0.1402
   41loPI   C6A  652   1.482   2.373   8.116  0.1432 -0.2913  0.3047
   41loPI   C1B  653   2.374   2.819   9.992  0.3016  0.0102  0.0246
   41loPI   C2B  654   2.415   2.791   9.571  0.1735 -0.0679 -0.1710
   41loPI   C3B  655   2.417   2.773   9.116 -0.1246  0.0892 -0.1832
   41loPI   C4B  656   2.410   2.918   8.725 -0.1076  0.0480  0.0939
   42loPI    C1  657  13.269  17.669  11.466 -0.0574 -0.1814 -0.0379
   42loPI    C2  658  13.586  17.429  11.509  0.0413 -0.0340  0.0696
   42loPI    C3  659  13.632  17.826  11.523 -0.1262 -0.0080 -0.0687
   42loPI   PO4  660  13.120  17.553  11.296 -0.2604 -0.0396  0.0459
   42loPI   GL1  661  13.097  17.628  10.842  0.1325  0.2017  0.2042
   42loPI   GL2  662  13.252  17.990  10.737  0.2259  0.0204  0.0425
   42loPI   C1A  663  13.425  17.558  10.495 -0.1113 -0.2454 -0.2814
   42loPI   C2A  664  13.322  17.582  10.142  0.1649  0.2096  0.2200
   42loPI   C3A  665  13.342  17.487   9.701 -0.1705  0.1116  0.1802
   42loPI   C4A  666  13.366  17.572   9.270 -0.3600 -0.3812  0.1955
   42loPI   C5A  667  13.379  17.629   8.869 -0.0897  0.0417  0.0862
   42loPI   C6A  668  13.463  17.654   8.398 -0.0135  0.2680  0.2492
   42loPI   C1B  669  13.153  18.042  10.259 -0.0057  0.2997  0.2717
   42loPI   C2B  670  13.128  17.981   9.783 -0.1913  0.0313  0.0851
   42loPI   C3B  671  13.079  17.920   9.460  0.2856  0.2211 -0.0219
   42loPI   C4B  672  13.033  18.006   9.074 -0.0161  0.2334  0.0060
   43loPI    C1  673   3.831  11.627  11.547 -0.1385  0.1363  0.2001
   43loPI    C2  674   4.187  11.701  11.713 -0.0324 -0.0109  0.0411
   43loPI    C3  675   3.876  11.939  11.793  0.1561  0.2528  0.0041
   43loPI   PO4  676   3.961  11.547  11.215  0.4409  0.0731  0.0419
   43loPI   GL1  677   4.106  11.453  10.773  0.2793  0.3560 -0.1153
   43loPI   GL2  678   4.278  11.595  10.583 -0.0217 -0.0271 -0.0580
   43loPI   C1A  679   4.208  11.125  10.414  0.0673  0.0876  0.3856
   43loPI   C2A  680   4.196  11.166   9.936  0.0437 -0.1086 -0.2022
   43loPI   C3A  681   4.110  11.193   9.610  0.0378 -0.2295  0.1200
   43loPI   C4A  682   3.975  11.220   9.227 -0.0051  0.0903 -0.1793
   43loPI   C5A  683   4.010  11.150   8.779 -0.0410 -0.0466  0.1194
   43loPI   C6A  684   4.258  10.895   8.503  0.0277 -0.0284 -0.0744
   43loPI   C1B  685   4.446  11.542  10.136  0.0927 -0.3270  0.1586
   43loPI   C2B  686   4.379  11.611   9.718 -0.0568  0.4145 -0.2462
   43loPI   C3B  687   4.364  11.606   9.248 -0.1126 -0.0802  0.0337
   43loPI   C4B  688   4.282  11.702   8.778 -0.0731 -0.1443  0.0229
   44loPI    C1  689   2.739  11.254  11.186 -0.1988  0.0066 -0.1596
   44loPI    C2  690   2.985  11.213  11.499 -0.0802 -0.0396 -0.2582
   44loPI    C3  691   2.941  11.570  11.325 -0.1852 -0.0030 -0.1575
   44loPI   PO4  692   2.802  11.001  11.033  0.1524 -0.2546 -0.0441
   44loPI   GL1  693   2.818  10.993  10.561 -0.3781 -0.0128  0.1267
   44loPI   GL2  694   2.607  11.086  10.404  0.1899  0.0785 -0.2468
   44loPI   C1A  695   3.077  10.915  10.238 -0.1501 -0.2130 -0.1160
   44loPI   C2A  696   3.238  11.002   9.779  0.1798 -0.0694  0.1755
   44loPI   C3A  697   3.065  11.052   9.304  0.0554 -0.0275 -0.0793
   44loPI   C4A  698   2.973  11.097   8.877  0.2188  0.5989 -0.0958
   44loPI   C5A  699   2.866  10.917   8.435 -0.3996 -0.0285  0.0396
   44loPI   C6A  700   2.560  10.850   8.216 -0.0054 -0.0536 -0.0345
   44loPI   C1B  701   2.684  11.064   9.968 -0.2773 -0.3002  0.0048
   44loPI   C2B  702   2.661  11.003   9.570 -0.2276 -0.0420 -0.0661
   44loPI   C3B  703   2.559  11.125   9.086  0.0611  0.1013 -0.1862
   44loPI   C4B  704   2.479  11.142   8.593  0.0162 -0.2861  0.0546
   45loPI    C1  705   1.157   4.239  11.099  0.0026  0.0531 -0.0915
   45loPI    C2  706   1.104   3.925  11.340 -0.0637  0.0196 -0.1495
   45loPI    C3  707   0.814   4.197  11.300  0.0823  0.2124  0.0804
   45loPI   PO4  708   1.211   4.110  10.846 -0.0379 -0.0675 -0.0890
   45loPI   GL1  709   1.537   4.101  10.695 -0.1881  0.2317 -0.0818
   45loPI   GL2  710   1.742   4.333  10.746 -0.0280  0.2523  0.2711
   45loPI   C1A  711   1.520   4.132  10.205 -0.1523  0.0110  0.0947
   45loPI   C2A  712   1.539   3.993   9.798  0.3050 -0.0690 -0.0702
   45loPI   C3A  713   1.496   4.021   9.320  0.2512 -0.0641 -0.0104
   45loPI   C4A  714   1.490   4.248   8.909  0.0346  0.1384  0.1575
   45loPI   C5A  715   1.313   4.104   8.521  0.1302  0.2157 -0.0991
   45loPI   C6A  716   0.867   4.053   8.365  0.1503  0.1760 -0.2930
   45loPI   C1B  717   1.690   4.555  10.429 -0.1625 -0.2650 -0.1510
   45loPI   C2B  718   1.658   4.615  10.013 -0.0338  0.0689 -0.5377
   45loPI   C3B  719   1.767   4.519   9.613 -0.2235 -0.0631 -0.0668
   45loPI   C4B  720   1.653   4.565   9.278 -0.0698  0.2817 -0.0932
   46loPI    C1  721   0.805   5.346  11.140  0.1333 -0.2973 -0.0268
   46loPI    C2  722   0.517   5.421  11.407  0.0305 -0.0802 -0.1955
   46loPI    C3  723   0.882   5.315  11.531  0.0020  0.0823  0.0335
   46loPI   PO4  724   0.707   5.323  10.905  0.3597  0.2831 -0.2263
   46loPI   GL1  725   0.432   5.300  10.551  0.1576 -0.3010 -0.0857
   46loPI   GL2  726   0.541   5.597  10.546 -0.1671  0.0616  0.0756
   46loPI   C1A  727   0.566   5.332  10.140 -0.1548  0.0132 -0.1953
   46loPI   C2A  728   0.613   5.342   9.703  0.0838  0.0247 -0.0582
   46loPI   C3A  729   0.586   5.288   9.254  0.0546  0.0752 -0.1354
   46loPI   C4A  730   0.408   5.311   8.842 -0.1577  0.0120  0.2418
   46loPI   C5A  731   0.483   5.096   8.494 -0.0663  0.1320 -0.3338
   46loPI   C6A  732   0.201   4.792   8.375 -0.2535 -0.0576 -0.1341
   46loPI   C1B  733   0.321   5.759  10.108 -0.3338 -0.2845 -0.2201
   46loPI   C2B  734   0.369   5.733   9.591  0.2453  0.0986 -0.2785
   46loPI   C3B  735   0.239   5.713   9.150 -0.1316 -0.0268  0.2082
   46loPI   C4B  736   0.199   5.881   8.799  0.0918  0.1232  0.4374
   47loPI    C1  737  13.664  12.160  11.297  0.1782  0.0163 -0.2269
   47loPI    C2  738  13.926  11.925  11.487  0.2379  0.2560 -0.0077
   47loPI    C3  739  13.589  12.036  11.670  0.0150  0.0118 -0.2605
   47loPI   PO4  740  13.646  11.987  10.993 -0.1933  0.1087 -0.2693
   47loPI   GL1  741  13.416  12.066  10.637 -0.2458 -0.0202 -0.1648
   47loPI   GL2  742  13.360  11.751  10.556  0.2238  0.2130  0.0912
   47loPI   C1A  743  13.490  12.181  10.295  0.0092 -0.0703  0.0890
   47loPI   C2A  744  13.365  12.071   9.845 -0.0744  0.2048  0.0641
   47loPI   C3A  745  13.429  12.129   9.393 -0.0186  0.0963  0.0104
   47loPI   C4A  746  13.402  12.059   9.008  0.3144  0.1348  0.2678
   47loPI   C5A  747  13.387  12.163   8.584  0.3647  0.0906 -0.2162
   47loPI   C6A  748  13.288  12.503   8.283 -0.0261  0.2174 -0.1513
   47loPI   C1B  749  13.309  11.646  10.093 -0.0616 -0.2918  0.0066
   47loPI   C2B  750  13.229  11.697   9.634  0.1532 -0.0568 -0.1360
   47loPI   C3B  751  13.138  11.638   9.219 -0.3539  0.1077 -0.2190
   47loPI   C4B  752  13.022  11.626   8.842 -0.2651  0.2807 -0.1806
   48loPI    C1  753  16.670  15.015  11.242  0.1076  0.1196 -0.0926
   48loPI    C2  754  16.336  14.861  11.084  0.1320 -0.0716  0.0389
   48loPI    C3  755  16.318  15.192  11.309  0.0478 -0.0148 -0.0505
   48loPI   PO4  756  16.846  14.912  11.042 -0.3940  0.2395  0.3167
   48loPI   GL1  757  17.028  15.118  10.701 -0.1580 -0.0278 -0.0633
   48loPI   GL2  758  17.320  15.260  10.411  0.0195 -0.1246 -0.1134
   48loPI   C1A  759  17.076  14.827  10.413 -0.0774  0.3467 -0.1020
   48loPI   C2A  760  17.026  14.747   9.972 -0.0068 -0.0480 -0.2135
   48loPI   C3A  761  17.037  14.850   9.624  0.0822  0.3818 -0.2246
   48loPI   C4A  762  17.096  14.961   9.210 -0.0671 -0.0395 -0.1819
   48loPI   C5A  763  17.053  14.816   8.765  0.2096  0.1864  0.0702
   48loPI   C6A  764  17.336  14.503   8.588 -0.3025  0.0891  0.1628
   48loPI   C1B  765  17.264  15.182   9.941 -0.0048  0.1864  0.1672
   48loPI   C2B  766  17.310  15.273   9.500  0.3417 -0.5632 -0.0159
   48loPI   C3B  767  17.396  15.398   9.126  0.2292 -0.2497  0.2036
   48loPI   C4B  768  17.383  15.199   8.714  0.2598  0.0074 -0.3493
   49loPI    C1  769   6.012  17.419  10.968 -0.0353 -0.0377  0.0909
   49loPI    C2  770   5.986  17.268  11.337 -0.0130 -0.1539  0.0451
   49loPI    C3  771   5.800  17.611  11.248  0.1678 -0.0073  0.2252
   49loPI   PO4  772   6.206  17.491  10.905 -0.0496  0.0606 -0.4097
   49loPI   GL1  773   6.216  17.730  10.535 -0.2071  0.0116 -0.0622
   49loPI   GL2  774   6.550  17.754  10.464  0.2058  0.1017  0.1098
   49loPI   C1A  775   6.146  17.712  10.129  0.1074  0.0330 -0.1133
   49loPI   C2A  776   5.964  17.635   9.726  0.0437  0.0937  0.0599
   49loPI   C3A  777   6.033  17.736   9.273 -0.0398  0.0128 -0.1617
   49loPI   C4A  778   6.096  17.732   8.853 -0.2154  0.0570  0.1655
   49loPI   C5A  779   6.130  17.746   8.426  0.4794  0.0263 -0.1036
   49loPI   C6A  780   6.276  17.901   8.075 -0.0969  0.0212 -0.0452
   49loPI   C1B  781   6.542  17.874   9.940 -0.2612 -0.1378  0.0727
   49loPI   C2B  782   6.507  17.788   9.513  0.1059  0.0758 -0.2143
   49loPI   C3B  783   6.593  17.756   9.089 -0.0540 -0.0052 -0.0684
   49loPI   C4B  784   6.533  17.844   8.619 -0.0384 -0.0299  0.1734
   50loPI    C1  785   6.965   2.933  11.328 -0.0295 -0.0417  0.0478
   50loPI    C2  786   6.741   2.815  11.637 -0.0473 -0.2381 -0.0388
   50loPI    C3  787   7.117   2.683  11.601 -0.0013 -0.1107 -0.0306
   50loPI   PO4  788   6.815   2.877  11.124 -0.1807  0.1152 -0.0714
   50loPI   GL1  789   6.823   2.964  10.672 -0.3147  0.0868  0.2377
   50loPI   GL2  790   6.840   2.660  10.645 -0.1453 -0.0539 -0.0870
   50loPI   C1A  791   7.035   3.234  10.389 -0.1296 -0.0617  0.0922
   50loPI   C2A  792   7.034   3.322   9.917 -0.2432 -0.0054  0.0478
   50loPI   C3A  793   7.118   3.253   9.488 -0.0549  0.0142  0.1391
   50loPI   C4A  794   7.142   3.255   9.114  0.2584 -0.0482  0.1130
   50loPI   C5A  795   7.076   3.229   8.713 -0.5512  0.2061 -0.1438
   50loPI   C6A  796   7.148   3.359   8.326  0.2118  0.1427 -0.1151
   50loPI   C1B  797   6.822   2.772  10.176  0.0276  0.1591  0.1495
   50loPI   C2B  798   6.880   2.870   9.716 -0.0893  0.0649 -0.0616
   50loPI   C3B  799   6.879   2.811   9.330 -0.0533 -0.0866  0.1406
   50loPI   C4B  800   6.875   2.813   8.866  0.2767  0.2014 -0.1359
   51loPI    C1  801   1.162  16.873  11.370 -0.4024 -0.0371  0.0587
   51loPI    C2  802   1.339  16.516  11.338 -0.1728  0.0856 -0.0629
   51loPI    C3  803   1.363  16.721  11.681 -0.2376  0.0201 -0.0189
   51loPI   PO4  804   1.235  17.009  11.113  0.0626  0.2602 -0.1616
   51loPI   GL1  805   1.358  17.261  10.694  0.0565 -0.2536  0.0819
   51loPI   GL2  806   1.116  17.050  10.590 -0.2585  0.0396  0.0497
   51loPI   C1A  807   1.425  17.320  10.218 -0.2495 -0.3284 -0.0860
   51loPI   C2A  808   1.442  17.313   9.832 -0.1053  0.3073 -0.2571
   51loPI   C3A  809   1.434  17.265   9.456 -0.2295  0.2407 -0.2278
   51loPI   C4A  810   1.524  17.250   8.959 -0.1255 -0.0788  0.1646
   51loPI   C5A  811   1.553  17.262   8.519 -0.2523  0.3314 -0.5067
   51loPI   C6A  812   1.655  17.472   8.146  0.3534  0.0539 -0.3212
   51loPI   C1B  813   0.942  17.211  10.253  0.1126 -0.0940 -0.1108
   51loPI   C2B  814   0.932  17.305   9.948  0.0146 -0.1671  0.1486
   51loPI   C3B  815   0.949  17.258   9.502 -0.1906 -0.1751 -0.2153
   51loPI   C4B  816   0.976  17.219   9.150 -0.3477  0.1351  0.0393
   52loPI    C1  817  10.775   7.624  11.175  0.0555 -0.0536 -0.0490
   52loPI    C2  818  11.044   7.915  11.234 -0.2007  0.2077 -0.1443
   52loPI    C3  819  10.688   7.932  11.416 -0.1386 -0.1620  0.0213
   52loPI   PO4  820  10.620   7.603  10.961 -0.0514 -0.1044 -0.0879
   52loPI   GL1  821  10.439   7.721  10.665  0.1991  0.2515  0.0462
   52loPI   GL2  822  10.663   7.795  10.436 -0.3168 -0.7019  0.0624
   52loPI   C1A  823  10.247   8.098  10.400 -0.1868  0.2065 -0.2453
   52loPI   C2A  824  10.205   8.041   9.914  0.1300  0.4262 -0.1383
   52loPI   C3A  825  10.215   8.044   9.446  0.0001  0.2780 -0.0633
   52loPI   C4A  826  10.263   8.176   9.001 -0.0045 -0.3173 -0.5243
   52loPI   C5A  827  10.330   8.245   8.580  0.1430 -0.4911  0.3743
   52loPI   C6A  828  10.276   8.322   8.118 -0.2352  0.2150  0.1474
   52loPI   C1B  829  10.560   7.681   9.972  0.0942 -0.3726 -0.0609
   52loPI   C2B  830  10.525   7.644   9.589  0.1752 -0.1050  0.0164
   52loPI   C3B  831  10.510   7.677   9.170 -0.0292 -0.3094  0.0556
   52loPI   C4B  832  10.530   7.760   8.841 -0.0838 -0.0958 -0.0954
   53loPI    C1  833   5.408   9.387  11.052  0.0381  0.1122 -0.1528
   53loPI    C2  834   5.421   9.682  11.322 -0.2530  0.0801 -0.1005
   53loPI    C3  835   5.416   9.300  11.442  0.1676  0.0485 -0.1692
   53loPI   PO4  836   5.504   9.440  10.819 -0.0189 -0.0122  0.0663
   53loPI   GL1  837   5.480   9.517  10.434  0.0185  0.0252 -0.0598
   53loPI   GL2  838   5.371   9.166  10.363 -0.0250  0.1540  0.2189
   53loPI   C1A  839   5.488   9.527   9.996  0.3570  0.1654  0.3692
   53loPI   C2A  840   5.440   9.509   9.578  0.0557  0.0544  0.2518
   53loPI   C3A  841   5.433   9.404   9.153  0.0910  0.0533  0.0045
   53loPI   C4A  842   5.308   9.341   8.756 -0.2131  0.0325 -0.0457
   53loPI   C5A  843   5.083   9.300   8.385  0.0848 -0.1573 -0.1757
   53loPI   C6A  844   5.239   9.424   7.941  0.2836 -0.1451 -0.2932
   53loPI   C1B  845   5.287   9.018   9.905  0.3284  0.2414 -0.0226
   53loPI   C2B  846   5.242   9.008   9.566 -0.2419 -0.0568 -0.1173
   53loPI   C3B  847   5.123   9.037   9.087  0.0395  0.0672  0.1653
   53loPI   C4B  848   4.979   8.902   8.676 -0.1812 -0.1646  0.1969
   54loPI    C1  849   8.788   2.147  11.077  0.3608 -0.1103  0.2186
   54loPI    C2  850   8.755   2.158  11.476 -0.1360  0.3709  0.1771
   54loPI    C3  851   8.882   2.481  11.276  0.1805  0.1094 -0.0558
   54loPI   PO4  852   8.889   1.948  11.013 -0.1800  0.2461 -0.0135
   54loPI   GL1  853   8.799   1.885  10.543 -0.0678 -0.1032  0.0599
   54loPI   GL2  854   8.751   1.545  10.691 -0.3438  0.1302 -0.2839
   54loPI   C1A  855   8.545   2.036  10.172  0.2665 -0.2218 -0.0370
   54loPI   C2A  856   8.506   2.085   9.735  0.1450 -0.3220  0.0299
   54loPI   C3A  857   8.470   2.034   9.340 -0.0784  0.0780  0.1826
   54loPI   C4A  858   8.426   1.978   8.805 -0.1193 -0.1405  0.3391
   54loPI   C5A  859   8.724   1.782   8.403 -0.0852 -0.0038  0.1354
   54loPI   C6A  860   8.778   1.936   8.039 -0.0970 -0.1609  0.0987
   54loPI   C1B  861   8.805   1.615  10.176  0.1247  0.3627 -0.0210
   54loPI   C2B  862   8.795   1.716   9.737 -0.0091  0.1433  0.1641
   54loPI   C3B  863   8.766   1.593   9.344 -0.0494  0.1172 -0.3062
   54loPI   C4B  864   8.755   1.552   8.873 -0.0273 -0.3583 -0.1608
   55loPI    C1  865   7.687  15.810  11.297 -0.4633  0.0257  0.0962
   55loPI    C2  866   7.674  15.491  11.537 -0.0178  0.0285  0.1330
   55loPI    C3  867   7.621  15.857  11.689 -0.2233 -0.0039  0.1419
   55loPI   PO4  868   7.675  15.694  11.016 -0.2613 -0.0149 -0.1718
   55loPI   GL1  869   7.507  15.466  10.693  0.0724 -0.0083 -0.3607
   55loPI   GL2  870   7.390  15.229  10.499 -0.0802 -0.1271 -0.1561
   55loPI   C1A  871   7.696  15.522  10.296 -0.0669 -0.1475 -0.1702
   55loPI   C2A  872   7.573  15.550   9.891 -0.0669  0.1030  0.0760
   55loPI   C3A  873   7.566  15.533   9.426 -0.2059 -0.1821  0.0087
   55loPI   C4A  874   7.494  15.461   8.986 -0.0317 -0.2358 -0.0840
   55loPI   C5A  875   7.488  15.525   8.530  0.1895  0.0463  0.0152
   55loPI   C6A  876   7.175  15.807   8.274 -0.2297  0.0495  0.5019
   55loPI   C1B  877   7.426  15.085  10.122 -0.3010  0.0139 -0.0302
   55loPI   C2B  878   7.414  14.985   9.757 -0.0572  0.0354 -0.1817
   55loPI   C3B  879   7.319  15.081   9.333 -0.1348  0.0647  0.2405
   55loPI   C4B  880   7.262  15.021   8.851 -0.2757  0.0879 -0.1929
   56loPI    C1  881   1.525   4.474  11.309  0.1380  0.2812  0.0008
   56loPI    C2  882   1.675   4.750  11.556  0.1164 -0.0686  0.4163
   56loPI    C3  883   1.658   4.368  11.670 -0.0296 -0.2169 -0.0768
   56loPI   PO4  884   1.432   4.648  11.134 -0.1627 -0.1437 -0.0139
   56loPI   GL1  885   1.282   4.627  10.717  0.0436  0.0909 -0.0757
   56loPI   GL2  886   1.076   4.476  10.545 -0.1927 -0.0626  0.0706
   56loPI   C1A  887   1.313   4.932  10.294 -0.1795 -0.1411 -0.1980
   56loPI   C2A  888   1.380   4.988   9.850  0.0092  0.0378  0.1965
   56loPI   C3A  889   1.398   4.946   9.401 -0.0155  0.2355 -0.1576
   56loPI   C4A  890   1.333   4.822   8.927  0.0593  0.0180 -0.1751
   56loPI   C5A  891   1.049   4.861   8.513  0.1252  0.2738 -0.2245
   56loPI   C6A  892   0.911   5.074   8.202 -0.0511  0.3450 -0.4249
   56loPI   C1B  893   1.114   4.520  10.053  0.1556 -0.0919  0.1879
   56loPI   C2B  894   1.261   4.496   9.633 -0.2342 -0.1608  0.1131
   56loPI   C3B  895   1.122   4.440   9.198  0.0427 -0.0798  0.0011
   56loPI   C4B  896   1.037   4.464   8.796  0.0445 -0.1345 -0.0539
   57loPI    C1  897  11.353  17.089  11.110 -0.2841  0.0286 -0.0595
   57loPI    C2  898  11.553  17.306  11.380  0.0010 -0.2393 -0.0499
   57loPI    C3  899  11.187  17.168  11.466 -0.1016  0.0670  0.0180
   57loPI   PO4  900  11.373  17.219  10.901  0.3480  0.0755  0.0959
   57loPI   GL1  901  11.490  17.292  10.498  0.1523  0.0311 -0.2213
   57loPI   GL2  902  11.598  17.056  10.411  0.0006  0.2909 -0.0677
   57loPI   C1A  903  11.426  17.354  10.029 -0.3247  0.2863 -0.1875
   57loPI   C2A  904  11.361  17.336   9.595 -0.0386  0.2795 -0.3500
   57loPI   C3A  905  11.396  17.313   9.120  0.0429 -0.0026  0.1535
   57loPI   C4A  906  11.329  17.448   8.777 -0.0128  0.0468  0.0151
   57loPI   C5A  907  11.560  17.606   8.417  0.3640 -0.1934 -0.5102
   57loPI   C6A  908  11.720  17.973   8.103 -0.0279 -0.0961 -0.0422
   57loPI   C1B  909  11.678  16.870   9.927  0.0044  0.0335  0.0455
   57loPI   C2B  910  11.600  16.924   9.514 -0.3379 -0.0023  0.1435
   57loPI   C3B  911  11.596  16.875   9.088 -0.0359  0.3134  0.1863
   57loPI   C4B  912  11.721  16.922   8.657  0.0073  0.1311 -0.1030
   58loPI    C1  913  12.581  16.339  11.139  0.2189  0.0785  0.1060
   58loPI    C2  914  12.662  16.659  10.914  0.0100  0.1482  0.1276
   58loPI    C3  915  12.473  16.703  11.263  0.0046  0.0035  0.1435
   58loPI   PO4  916  12.564  16.164  10.956 -0.0045 -0.0444 -0.2665
   58loPI   GL1  917  12.622  16.163  10.562  0.2603 -0.3110 -0.1982
   58loPI   GL2  918  12.509  16.429  10.475 -0.1350  0.0018 -0.1640
   58loPI   C1A  919  12.721  16.136  10.063 -0.4029 -0.2808 -0.0883
   58loPI   C2A  920  12.714  16.093   9.537 -0.3955 -0.1480 -0.2486
   58loPI   C3A  921  12.747  16.073   9.079 -0.0654  0.2857  0.2406
   58loPI   C4A  922  12.748  16.042   8.725 -0.1052  0.0708  0.1512
   58loPI   C5A  923  13.084  16.015   8.349  0.2526 -0.0092 -0.2087
   58loPI   C6A  924  13.361  16.202   8.049 -0.3091 -0.2134  0.1608
   58loPI   C1B  925  12.488  16.573   9.995  0.0126 -0.0602  0.0838
   58loPI   C2B  926  12.378  16.499   9.611  0.0052 -0.1403  0.3634
   58loPI   C3B  927  12.413  16.493   9.129 -0.0570 -0.0635 -0.2538
   58loPI   C4B  928  12.370  16.529   8.712  0.1680 -0.0301 -0.0443
   59loPI    C1  929   7.873  14.688  11.228 -0.0331 -0.0544 -0.0112
   59loPI    C2  930   7.884  14.950  11.530  0.0900  0.0401 -0.0965
   59loPI    C3  931   7.795  14.567  11.600  0.0668  0.0723  0.0520
   59loPI   PO4  932   7.748  14.717  11.071  0.2117  0.1275 -0.0585
   59loPI   GL1  933   7.806  14.895  10.737 -0.1763 -0.0418  0.2992
   59loPI   GL2  934   7.633  14.694  10.531 -0.0530 -0.0464 -0.0895
   59loPI   C1A  935   7.924  15.065  10.310  0.0171  0.0986  0.0839
   59loPI   C2A  936   7.907  15.118   9.761  0.2755 -0.2627 -0.0480
   59loPI   C3A  937   7.839  15.084   9.384  0.2021 -0.4133  0.0151
   59loPI   C4A  938   7.754  15.044   8.988 -0.1209  0.0237  0.1653
   59loPI   C5A  939   7.832  15.003   8.498 -0.2938  0.1666 -0.2014
   59loPI   C6A  940   7.924  15.255   8.126 -0.0305 -0.0766  0.2511
   59loPI   C1B  941   7.737  14.607  10.095 -0.0336  0.0186 -0.0535
   59loPI   C2B  942   7.716  14.628   9.631  0.1233 -0.1562  0.0936
   59loPI   C3B  943   7.639  14.617   9.186  0.2330 -0.1180 -0.1694
   59loPI   C4B  944   7.593  14.636   8.742 -0.0741  0.1241 -0.0892
   60loPI    C1  945  10.503  12.351  11.218 -0.0253 -0.1453  0.0748
   60loPI    C2  946  10.224  12.128  11.399 -0.1773 -0.0796 -0.0756
   60loPI    C3  947  10.505  11.953  11.174 -0.1968 -0.1328 -0.0589
   60loPI   PO4  948  10.347  12.506  11.059 -0.0662  0.2058 -0.0213
   60loPI   GL1  949  10.259  12.598  10.629  0.1266  0.1711  0.1670
   60loPI   GL2  950  10.076  12.319  10.452  0.0783 -0.0109 -0.1502
   60loPI   C1A  951  10.264  12.683  10.187  0.1033 -0.1180 -0.2810
   60loPI   C2A  952  10.351  12.649   9.717 -0.2461 -0.1152 -0.2804
   60loPI   C3A  953  10.275  12.716   9.295  0.0314  0.0976 -0.1362
   60loPI   C4A  954  10.151  12.730   8.852  0.3270  0.2739 -0.1194
   60loPI   C5A  955  10.240  12.447   8.565  0.1920 -0.0985 -0.1100
   60loPI   C6A  956  10.393  12.037   8.380 -0.0395  0.0225  0.0721
   60loPI   C1B  957  10.096  12.244   9.971 -0.0037  0.0192 -0.1981
   60loPI   C2B  958  10.055  12.180   9.556  0.1129 -0.0301 -0.1228
   60loPI   C3B  959  10.017  12.241   9.081 -0.0057 -0.1358  0.0405
   60loPI   C4B  960  10.045  12.045   8.715  0.0876  0.1961 -0.0576
   61loPI    C1  961   3.488   3.253  11.362 -0.0500  0.0639  0.1012
   61loPI    C2  962   3.840   3.241  11.552  0.1124  0.0046 -0.1977
   61loPI    C3  963   3.640   3.586  11.523  0.1024  0.0209  0.0479
   61loPI   PO4  964   3.514   3.095  11.130  0.1244  0.1045  0.0010
   61loPI   GL1  965   3.375   3.183  10.694  0.2056 -0.0628  0.0814
   61loPI   GL2  966   3.268   2.852  10.652 -0.0565 -0.1187  0.0350
   61loPI   C1A  967   3.630   3.390  10.452 -0.1891  0.4564  0.1586
   61loPI   C2A  968   3.632   3.390  10.040 -0.0566 -0.1358  0.0294
   61loPI   C3A  969   3.636   3.299   9.592 -0.0888  0.1106  0.1070
   61loPI   C4A  970   3.601   3.353   9.136  0.2077  0.0320 -0.0470
   61loPI   C5A  971   3.624   3.193   8.794 -0.2358 -0.0758 -0.0833
   61loPI   C6A  972   3.960   3.086   8.565 -0.2479 -0.0413  0.3014
   61loPI   C1B  973   3.438   2.892  10.273  0.1109  0.1231 -0.0951
   61loPI   C2B  974   3.492   2.864   9.786  0.1475  0.2429 -0.1707
   61loPI   C3B  975   3.417   2.842   9.363 -0.1016  0.2423 -0.2367
   61loPI   C4B  976   3.369   2.769   8.900 -0.1167  0.4104 -0.1289
   62loPI    C1  977   0.352   6.034  10.909 -0.1646 -0.0352 -0.2306
   62loPI    C2  978   0.320   5.650  11.015  0.0478  0.0027 -0.0191
   62loPI    C3  979   0.500   5.910  11.259 -0.1602  0.2533 -0.1273
   62loPI   PO4  980   0.424   6.082  10.695  0.1745 -0.0118  0.1014
   62loPI   GL1  981   0.600   6.166  10.362  0.1523  0.0630 -0.0601
   62loPI   GL2  982   0.805   5.886  10.287  0.3043  0.0124  0.2307
   62loPI   C1A  983   0.602   6.306   9.992 -0.2103 -0.2706  0.2935
   62loPI   C2A  984   0.532   6.277   9.567  0.1427 -0.1120 -0.1026
   62loPI   C3A  985   0.451   6.153   9.200  0.0963 -0.4712 -0.0918
   62loPI   C4A  986   0.548   6.297   8.835  0.1189 -0.0847  0.1085
   62loPI   C5A  987   0.722   6.400   8.440  0.0097  0.0890 -0.0665
   62loPI   C6A  988   1.060   6.524   8.141  0.2640 -0.0034  0.0561
   62loPI   C1B  989   0.831   5.776   9.859 -0.2856 -0.2947  0.3028
   62loPI   C2B  990   0.832   5.703   9.378  0.0106 -0.0233 -0.0076
   62loPI   C3B  991   0.835   5.848   8.977 -0.1835  0.0059  0.0778
   62loPI   C4B  992   0.901   5.930   8.570  0.1176 -0.2861 -0.0865
   63loPI    C1  993  15.147  14.428  11.096 -0.1278  0.0868 -0.0291
   63loPI    C2  994  14.784  14.381  11.257 -0.1488 -0.0396 -0.1121
   63loPI    C3  995  15.054  14.614  11.438 -0.1511 -0.2289  0.1404
   63loPI   PO4  996  15.057  14.567  10.909 -0.1591 -0.1672 -0.1299
   63loPI   GL1  997  14.918  14.750  10.462 -0.0362  0.2700  0.0960
   63loPI   GL2  998  15.131  14.993  10.403  0.1755  0.0537  0.2944
   63loPI   C1A  999  14.982  14.638   9.987  0.0517 -0.1355 -0.1556
   63loPI   C2A 1000  15.081  14.562   9.434 -0.0659 -0.0211 -0.1045
   63loPI   C3A 1001  14.908  14.568   8.951  0.2283 -0.0859 -0.0231
   63loPI   C4A 1002  14.994  14.593   8.508  0.1459  0.2222 -0.0095
   63loPI   C5A 1003  14.829  14.490   8.087  0.0490  0.0407  0.1165
   63loPI   C6A 1004  14.829  14.593   7.684  0.1152 -0.1096  0.0933
   63loPI   C1B 1005  15.187  15.138   9.933  0.2395 -0.1798  0.0154
   63loPI   C2B 1006  15.262  15.076   9.538  0.2092  0.2287  0.2175
   63loPI   C3B 1007  15.130  14.995   9.102 -0.4512  0.2917  0.1068
   63loPI   C4B 1008  15.045  15.015   8.765 -0.0943 -0.0215 -0.1146
   64loPI    C1 1009  12.339  10.821  11.133  0.0746 -0.0801 -0.2164
   64loPI    C2 1010  12.158  10.517  11.319  0.1218 -0.0361 -0.0973
   64loPI    C3 1011  12.042  10.893  11.392  0.2411 -0.0095 -0.0427
   64loPI   PO4 1012  12.332  10.758  10.889 -0.1700  0.1025  0.0392
   64loPI   GL1 1013  12.259  10.979  10.472 -0.3124  0.1702  0.0596
   64loPI   GL2 1014  12.400  10.660  10.392  0.3383 -0.0647  0.0629
   64loPI   C1A 1015  12.028  11.048  10.091 -0.0932 -0.2161 -0.0816
   64loPI   C2A 1016  11.978  11.079   9.681  0.3223  0.0918  0.2996
   64loPI   C3A 1017  11.974  11.049   9.256 -0.0003 -0.1946  0.0251
   64loPI   C4A 1018  12.010  10.954   8.807 -0.4139 -0.1912  0.2760
   64loPI   C5A 1019  11.846  11.022   8.452 -0.0877 -0.0023  0.1502
   64loPI   C6A 1020  11.841  10.939   8.018  0.2033  0.2204  0.0429
   64loPI   C1B 1021  12.305  10.646   9.971 -0.4149  0.2988  0.1433
   64loPI   C2B 1022  12.278  10.678   9.530  0.0130  0.1255  0.0260
   64loPI   C3B 1023  12.223  10.602   9.051  0.0895  0.1212  0.0342
   64loPI   C4B 1024  12.230  10.521   8.659 -0.0672 -0.1572  0.0271
   65loPI    C1 1025  10.417  15.359  11.235  0.0888  0.1351 -0.2704
   65loPI    C2 1026  10.694  15.434  11.514  0.0841 -0.0234 -0.2225
   65loPI    C3 1027  10.305  15.468  11.603  0.0772 -0.2833 -0.1455
   65loPI   PO4 1028  10.492  15.428  10.975 -0.3134  0.0425 -0.2478
   65loPI   GL1 1029  10.280  15.342  10.518  0.0047 -0.3248  0.1334
   65loPI   GL2 1030  10.485  15.573  10.486  0.4011 -0.0603 -0.0163
   65loPI   C1A 1031   9.999  15.296  10.232 -0.3360 -0.1428  0.0099
   65loPI   C2A 1032   9.909  15.349   9.838 -0.0733  0.4948 -0.0533
   65loPI   C3A 1033   9.982  15.387   9.361  0.0965  0.0084 -0.2668
   65loPI   C4A 1034  10.018  15.272   8.905  0.1706 -0.0837  0.0158
   65loPI   C5A 1035  10.071  15.071   8.629 -0.2460 -0.0139  0.1140
   65loPI   C6A 1036  10.152  15.090   8.164  0.3022  0.1422 -0.0405
   65loPI   C1B 1037  10.418  15.415  10.027 -0.0045  0.5401  0.2704
   65loPI   C2B 1038  10.494  15.388   9.543 -0.1583 -0.1295  0.1822
   65loPI   C3B 1039  10.506  15.406   9.080  0.0876  0.1738  0.1394
   65loPI   C4B 1040  10.538  15.390   8.664  0.0122 -0.0798  0.0457
   66loPI    C1 1041  12.111   1.749  11.510  0.3138 -0.0757 -0.3558
   66loPI    C2 1042  12.504   1.743  11.589  0.2698 -0.0818 -0.1302
   66loPI    C3 1043  12.242   1.625  11.867  0.0954  0.1302 -0.2010
   66loPI   PO4 1044  12.012   1.685  11.326  0.1994  0.0167 -0.2324
   66loPI   GL1 1045  12.030   1.515  10.861  0.2506 -0.0165 -0.1258
   66loPI   GL2 1046  11.733   1.523  10.799 -0.0553  0.1540 -0.1196
   66loPI   C1A 1047  12.142   1.441  10.400  0.0983 -0.0284 -0.1169
   66loPI   C2A 1048  12.263   1.462   9.926 -0.0852 -0.0976 -0.0782
   66loPI   C3A 1049  12.273   1.429   9.472  0.1277  0.1286 -0.2486
   66loPI   C4A 1050  12.292   1.495   9.134 -0.2115  0.0181  0.1262
   66loPI   C5A 1051  12.102   1.454   8.747 -0.5000 -0.0275  0.1990
   66loPI   C6A 1052  11.682   1.455   8.461  0.2587  0.1304 -0.0216
   66loPI   C1B 1053  11.670   1.442  10.376 -0.2811  0.1073  0.0441
   66loPI   C2B 1054  11.594   1.469   9.946  0.0209 -0.3915  0.2759
   66loPI   C3B 1055  11.795   1.443   9.548 -0.0535 -0.3717  0.2176
   66loPI   C4B 1056  11.725   1.471   9.114 -0.1459 -0.2085  0.0497
   67loPI    C1 1057   3.506  17.472  11.241 -0.0369  0.1120 -0.1606
   67loPI    C2 1058   3.298  17.685  11.509 -0.0788 -0.1526  0.0211
   67loPI    C3 1059   3.644  17.513  11.614  0.0919  0.0492 -0.2008
   67loPI   PO4 1060   3.492  17.589  11.029  0.0594 -0.2354 -0.1575
   67loPI   GL1 1061   3.643  17.488  10.706  0.2090 -0.0183  0.0141
   67loPI   GL2 1062   3.963  17.387  10.480 -0.0313 -0.3435 -0.0137
   67loPI   C1A 1063   3.541  17.393  10.310  0.1424 -0.0717  0.0296
   67loPI   C2A 1064   3.468  17.560   9.819  0.2558  0.0026 -0.2818
   67loPI   C3A 1065   3.494  17.555   9.331 -0.0433 -0.1514 -0.0876
   67loPI   C4A 1066   3.439  17.471   9.007  0.0176 -0.2496  0.0781
   67loPI   C5A 1067   3.272  17.796   8.683  0.1980  0.1792  0.0561
   67loPI   C6A 1068   3.319  18.129   8.373 -0.2421 -0.2202  0.2389
   67loPI   C1B 1069   3.951  17.537  10.101 -0.0711 -0.0551 -0.0482
   67loPI   C2B 1070   4.031  17.590   9.654  0.0884 -0.1144  0.0492
   67loPI   C3B 1071   4.002  17.559   9.200  0.0651  0.0252 -0.1481
   67loPI   C4B 1072   4.032  17.412   8.787 -0.1114  0.2761  0.0811
   68loPI    C1 1073   5.293   7.812  10.473 -0.1012  0.0356  0.1971
   68loPI    C2 1074   5.267   7.577  10.796  0.0778 -0.1703  0.0650
   68loPI    C3 1075   5.605   7.776  10.720  0.0245 -0.0952  0.0223
   68loPI   PO4 1076   5.044   8.004  10.519  0.2912 -0.2989 -0.1978
   68loPI   GL1 1077   4.925   8.194  10.191 -0.0440 -0.2253  0.0504
   68loPI   GL2 1078   5.252   8.170  10.064 -0.3196 -0.0286 -0.1878
   68loPI   C1A 1079   4.800   8.138   9.707  0.2040 -0.1220 -0.0657
   68loPI   C2A 1080   4.833   8.118   9.291  0.1161  0.0524 -0.0704
   68loPI   C3A 1081   4.692   8.010   8.917 -0.4357  0.0989 -0.0264
   68loPI   C4A 1082   4.601   7.979   8.412 -0.0286  0.0375  0.1875
   68loPI   C5A 1083   4.502   7.944   7.938 -0.1583 -0.2021 -0.0322
   68loPI   C6A 1084   4.398   7.761   7.487 -0.1877 -0.1340  0.1066
   68loPI   C1B 1085   5.320   8.149   9.683 -0.0181  0.0460 -0.1593
   68loPI   C2B 1086   5.347   8.113   9.333  0.4316  0.2840 -0.0119
   68loPI   C3B 1087   5.192   8.118   8.942  0.3172 -0.3005  0.2345
   68loPI   C4B 1088   5.190   8.100   8.558  0.0051 -0.3888 -0.2949
   69loPI    C1 1089   7.760   5.499  11.377  0.0546  0.1700  0.0636
   69loPI    C2 1090   8.116   5.665  11.455  0.0203  0.1978  0.1631
   69loPI    C3 1091   7.796   5.766  11.672  0.0153 -0.0584  0.2790
   69loPI   PO4 1092   7.720   5.515  11.087  0.3923 -0.0654 -0.4233
   69loPI   GL1 1093   7.807   5.366  10.724  0.0273 -0.0010  0.1571
   69loPI   GL2 1094   7.986   5.547  10.636  0.1365  0.1399 -0.2981
   69loPI   C1A 1095   7.572   5.530  10.427 -0.0846  0.0084  0.3772
   69loPI   C2A 1096   7.624   5.598   9.976  0.1607  0.0236  0.0408
   69loPI   C3A 1097   7.679   5.662   9.615 -0.1654  0.0438 -0.1222
   69loPI   C4A 1098   7.568   5.686   9.221  0.1646 -0.1113 -0.0633
   69loPI   C5A 1099   7.711   5.528   8.845 -0.1681  0.2243 -0.1476
   69loPI   C6A 1100   7.934   5.190   8.653 -0.0976 -0.1633  0.0739
   69loPI   C1B 1101   8.078   5.612  10.162  0.3085 -0.1956 -0.2713
   69loPI   C2B 1102   8.189   5.664   9.704  0.0593 -0.0346  0.0001
   69loPI   C3B 1103   8.162   5.672   9.228 -0.3040  0.1697 -0.1069
   69loPI   C4B 1104   8.226   5.621   8.792  0.0777  0.0273 -0.3056
   70loPI    C1 1105   6.853  12.024  11.390  0.0103  0.0430  0.0989
   70loPI    C2 1106   6.461  11.950  11.412  0.0267 -0.0381  0.1191
   70loPI    C3 1107   6.616  12.264  11.605 -0.0296 -0.0004  0.1034
   70loPI   PO4 1108   6.858  11.874  11.062  0.1653 -0.0659 -0.0500
   70loPI   GL1 1109   6.842  12.064  10.710  0.0560 -0.1209 -0.2432
   70loPI   GL2 1110   6.527  11.871  10.660  0.1110 -0.1128  0.0315
   70loPI   C1A 1111   6.986  11.914  10.358 -0.0464  0.3808  0.0690
   70loPI   C2A 1112   6.891  11.960   9.923  0.1834  0.0076 -0.1676
   70loPI   C3A 1113   6.928  11.868   9.497  0.1362 -0.1847 -0.0476
   70loPI   C4A 1114   6.917  11.940   9.030 -0.0443  0.0314  0.0366
   70loPI   C5A 1115   6.916  11.838   8.570  0.0641 -0.3726 -0.0029
   70loPI   C6A 1116   6.877  12.215   8.320 -0.1441  0.1961  0.1539
   70loPI   C1B 1117   6.440  11.856  10.234 -0.0385  0.1806  0.1856
   70loPI   C2B 1118   6.472  11.810   9.802 -0.1257 -0.1678  0.2491
   70loPI   C3B 1119   6.491  11.803   9.309 -0.1627  0.0170  0.0001
   70loPI   C4B 1120   6.408  11.871   8.861  0.0565  0.0143 -0.1148
   71loPI    C1 1121   3.101  15.857  11.076 -0.2405  0.2643 -0.0515
   71loPI    C2 1122   3.253  15.917  11.441  0.1786 -0.3578 -0.1075
   71loPI    C3 1123   2.931  15.684  11.394 -0.1934  0.1357 -0.0958
   71loPI   PO4 1124   3.359  15.846  10.913 -0.1204 -0.1634  0.0117
   71loPI   GL1 1125   3.602  15.946  10.545 -0.1779 -0.0677  0.0389
   71loPI   GL2 1126   3.716  15.661  10.393  0.0205  0.2435 -0.0945
   71loPI   C1A 1127   3.392  16.052  10.242 -0.0608 -0.2610  0.0820
   71loPI   C2A 1128   3.407  16.126   9.807 -0.0829 -0.1166  0.1356
   71loPI   C3A 1129   3.361  16.017   9.346 -0.0379  0.3553  0.0562
   71loPI   C4A 1130   3.446  16.049   8.911 -0.1298  0.0309  0.1817
   71loPI   C5A 1131   3.424  16.098   8.494  0.1807  0.0849  0.5452
   71loPI   C6A 1132   3.164  15.792   8.230 -0.5412  0.1138 -0.1820
   71loPI   C1B 1133   3.654  15.620   9.947  0.2646 -0.4237 -0.3285
   71loPI   C2B 1134   3.699  15.577   9.565  0.0559 -0.1732 -0.0235
   71loPI   C3B 1135   3.687  15.629   9.147  0.1013 -0.0841  0.0683
   71loPI   C4B 1136   3.745  15.661   8.698  0.1571  0.1836  0.3674
   72loPI    C1 1137  15.857   5.390  11.105  0.0044 -0.1094 -0.0376
   72loPI    C2 1138  16.240   5.302  11.182  0.0335  0.0331 -0.0179
   72loPI    C3 1139  15.978   5.333  11.483  0.0601  0.1823 -0.0095
   72loPI   PO4 1140  15.870   5.256  10.814  0.0893 -0.2607 -0.1515
   72loPI   GL1 1141  15.601   5.118  10.526  0.0582  0.2857 -0.0931
   72loPI   GL2 1142  15.591   4.809  10.420 -0.3678 -0.2528  0.0132
   72loPI   C1A 1143  15.808   5.107  10.110  0.2856  0.0530  0.0142
   72loPI   C2A 1144  15.673   5.005   9.735 -0.0185 -0.0144 -0.0394
   72loPI   C3A 1145  15.750   5.118   9.347  0.0292 -0.0827  0.3735
   72loPI   C4A 1146  15.654   5.092   8.900  0.2338  0.1879 -0.0636
   72loPI   C5A 1147  15.677   5.298   8.496  0.1847  0.1143 -0.3490
   72loPI   C6A 1148  15.477   5.457   8.271  0.0544  0.0633  0.2608
   72loPI   C1B 1149  15.579   4.576  10.044 -0.1766 -0.2854  0.1864
   72loPI   C2B 1150  15.492   4.547   9.653  0.2926  0.1541 -0.2558
   72loPI   C3B 1151  15.405   4.682   9.217 -0.3451  0.1712  0.0304
   72loPI   C4B 1152  15.487   4.488   8.782 -0.1998  0.1163  0.3948
   73loPI    C1 1153  14.638  13.028  11.309 -0.1075 -0.2788  0.1762
   73loPI    C2 1154  14.324  13.268  11.375  0.1207  0.0556  0.0750
   73loPI    C3 1155  14.484  13.059  11.677 -0.1649 -0.0791  0.1367
   73loPI   PO4 1156  14.604  12.971  11.085 -0.1294 -0.3589  0.0859
   73loPI   GL1 1157  14.547  13.131  10.629  0.1662 -0.3197 -0.0055
   73loPI   GL2 1158  14.283  13.129  10.519 -0.2251 -0.2384  0.0243
   73loPI   C1A 1159  14.865  13.218  10.207  0.0661  0.1823 -0.1973
   73loPI   C2A 1160  14.895  13.173   9.807 -0.0422 -0.1909 -0.2387
   73loPI   C3A 1161  14.874  13.187   9.414 -0.0893 -0.1320 -0.1413
   73loPI   C4A 1162  14.840  13.187   8.939 -0.1126  0.1330  0.1279
   73loPI   C5A 1163  14.689  13.087   8.498  0.2085  0.1510 -0.0460
   73loPI   C6A 1164  14.842  12.886   8.110 -0.1748 -0.0007 -0.0407
   73loPI   C1B 1165  14.401  13.051  10.067 -0.1276 -0.1503 -0.1233
   73loPI   C2B 1166  14.363  13.068   9.602 -0.1093  0.3868  0.0043
   73loPI   C3B 1167  14.406  13.134   9.194 -0.1277 -0.1558 -0.2261
   73loPI   C4B 1168  14.312  13.104   8.804  0.1681 -0.0349 -0.1995
   74loPI    C1 1169   6.523  14.166  11.563  0.0298 -0.0679 -0.2248
   74loPI    C2 1170   6.451  13.823  11.756 -0.1855  0.0224 -0.1418
   74loPI    C3 1171   6.387  14.174  11.939  0.0276  0.1085 -0.2285
   74loPI   PO4 1172   6.450  14.108  11.299 -0.2498  0.2003  0.0977
   74loPI   GL1 1173   6.405  13.957  10.946 -0.0108  0.0065 -0.3104
   74loPI   GL2 1174   6.624  13.821  10.816 -0.0077  0.1461 -0.0690
   74loPI   C1A 1175   6.346  14.153  10.539 -0.0007 -0.0364 -0.0492
   74loPI   C2A 1176   6.362  14.127  10.193 -0.0709 -0.1021 -0.2289
   74loPI   C3A 1177   6.544  14.046   9.843  0.0081 -0.1022 -0.1516
   74loPI   C4A 1178   6.481  14.050   9.433  0.0325 -0.1621  0.1224
   74loPI   C5A 1179   6.571  13.973   9.003 -0.0895  0.2360 -0.1517
   74loPI   C6A 1180   6.363  14.091   8.651  0.0734  0.2311 -0.0569
   74loPI   C1B 1181   6.658  13.726  10.358 -0.0577 -0.0132 -0.0980
   74loPI   C2B 1182   6.778  13.608   9.963  0.5307  0.1557  0.5204
   74loPI   C3B 1183   6.791  13.624   9.514  0.1171 -0.0252  0.2559
   74loPI   C4B 1184   6.766  13.571   9.119 -0.0703 -0.0962 -0.2036
   75loPI    C1 1185   7.952   3.704  11.237  0.0565 -0.0503  0.2356
   75loPI    C2 1186   8.294   3.827  11.404  0.0733  0.1416  0.0645
   75loPI    C3 1187   8.232   3.437  11.339  0.2281  0.0995  0.1622
   75loPI   PO4 1188   7.906   3.897  11.051  0.2208  0.0687  0.0888
   75loPI   GL1 1189   7.987   3.973  10.667 -0.0652 -0.0595 -0.1082
   75loPI   GL2 1190   7.745   3.800  10.582  0.3817  0.1371  0.1683
   75loPI   C1A 1191   8.029   4.210  10.227  0.0556  0.1203 -0.2416
   75loPI   C2A 1192   7.977   4.350   9.886  0.1428 -0.0405 -0.1265
   75loPI   C3A 1193   8.031   4.350   9.456 -0.0815 -0.0629 -0.0335
   75loPI   C4A 1194   7.962   4.247   9.017 -0.1576 -0.0111 -0.3314
   75loPI   C5A 1195   8.146   4.345   8.596 -0.0222 -0.0585 -0.0499
   75loPI   C6A 1196   8.259   4.149   8.269 -0.0723 -0.4489 -0.2392
   75loPI   C1B 1197   7.743   3.812  10.208  0.0732  0.2957  0.0805
   75loPI   C2B 1198   7.864   3.838   9.821 -0.0200 -0.0456  0.2502
   75loPI   C3B 1199   7.779   3.940   9.424  0.0491  0.1080  0.0862
   75loPI   C4B 1200   7.811   3.708   8.983 -0.0296 -0.1250  0.1260
   76loPI    C1 1201  14.154   3.441  11.121  0.1036  0.0437  0.0207
   76loPI    C2 1202  14.441   3.318  11.370 -0.0126 -0.3116 -0.0145
   76loPI    C3 1203  14.103   3.476  11.516  0.2010  0.1237  0.0265
   76loPI   PO4 1204  14.260   3.597  10.999 -0.1809 -0.0983 -0.1031
   76loPI   GL1 1205  14.310   3.675  10.555  0.0821  0.0221  0.1602
   76loPI   GL2 1206  14.436   3.376  10.546 -0.0524  0.2221  0.1527
   76loPI   C1A 1207  14.135   3.525  10.124  0.0223 -0.2773  0.0107
   76loPI   C2A 1208  14.109   3.517   9.695 -0.0551  0.1057 -0.0929
   76loPI   C3A 1209  14.089   3.521   9.212 -0.0407 -0.2195 -0.1917
   76loPI   C4A 1210  14.047   3.611   8.751 -0.0862 -0.1821 -0.2805
   76loPI   C5A 1211  13.892   3.468   8.450  0.1614  0.0149  0.3030
   76loPI   C6A 1212  13.624   3.150   8.241  0.0978  0.0982 -0.0316
   76loPI   C1B 1213  14.477   3.149  10.238 -0.0107  0.1797  0.0922
   76loPI   C2B 1214  14.499   3.073   9.852 -0.1651  0.1300 -0.4189
   76loPI   C3B 1215  14.463   3.144   9.417  0.0031  0.0710  0.0649
   76loPI   C4B 1216  14.322   3.003   9.032 -0.0498 -0.2006  0.2500
   77loPI    C1 1217   7.212  17.431  11.156 -0.2189  0.2972  0.0620
   77loPI    C2 1218   7.136  17.214  11.484 -0.2038  0.1532 -0.0290
   77loPI    C3 1219   7.414  17.502  11.494  0.0055 -0.0467  0.0048
   77loPI   PO4 1220   7.197  17.374  10.970  0.5436  0.2700  0.1875
   77loPI   GL1 1221   7.288  17.155  10.587  0.0306 -0.1873 -0.0668
   77loPI   GL2 1222   7.462  17.394  10.342  0.1464 -0.1380  0.1216
   77loPI   C1A 1223   7.224  16.972  10.242  0.4441 -0.0065  0.0371
   77loPI   C2A 1224   7.128  16.847   9.871 -0.0471 -0.0007  0.2844
   77loPI   C3A 1225   7.184  16.965   9.538 -0.3241 -0.1304 -0.2624
   77loPI   C4A 1226   7.156  16.807   9.108  0.1668 -0.0610 -0.1232
   77loPI   C5A 1227   7.227  16.773   8.683 -0.3424  0.0242 -0.0469
   77loPI   C6A 1228   7.263  16.938   8.289 -0.1344  0.0036 -0.2017
   77loPI   C1B 1229   7.306  17.374   9.990  0.1240  0.3815 -0.2282
   77loPI   C2B 1230   7.379  17.519   9.641  0.2475 -0.0888  0.2964
   77loPI   C3B 1231   7.358  17.355   9.307 -0.1777 -0.0365  0.1100
   77loPI   C4B 1232   7.359  17.387   8.895 -0.1225 -0.1539 -0.2098
   78loPI    C1 1233   9.324  12.727  11.129 -0.0841  0.1499 -0.0174
   78loPI    C2 1234   9.608  12.969  11.273 -0.0903  0.0818  0.1110
   78loPI    C3 1235   9.382  12.754  11.524 -0.1315 -0.0045  0.0010
   78loPI   PO4 1236   9.179  12.895  10.985  0.0209 -0.2167  0.1551
   78loPI   GL1 1237   9.142  13.087  10.660  0.0093 -0.1036  0.1789
   78loPI   GL2 1238   8.832  12.984  10.580  0.1141  0.0244 -0.1144
   78loPI   C1A 1239   9.452  13.078  10.257 -0.1052 -0.2708 -0.1777
   78loPI   C2A 1240   9.510  13.010   9.859 -0.1597  0.1668 -0.3714
   78loPI   C3A 1241   9.484  12.982   9.421  0.2055 -0.1222  0.0193
   78loPI   C4A 1242   9.344  12.951   8.980 -0.0914 -0.1394  0.1744
   78loPI   C5A 1243   9.235  12.926   8.621  0.0368 -0.3091 -0.1483
   78loPI   C6A 1244   9.287  13.047   8.200  0.2241  0.2452 -0.1352
   78loPI   C1B 1245   8.963  12.929  10.237 -0.0017 -0.2816  0.0922
   78loPI   C2B 1246   9.004  12.960   9.735 -0.4967 -0.0953  0.4698
   78loPI   C3B 1247   8.916  13.030   9.335 -0.5664 -0.1531 -0.1758
   78loPI   C4B 1248   8.827  12.946   8.900  0.0323 -0.0096  0.0026
   79loPI    C1 1249  13.962  11.373  11.185 -0.1120 -0.0402 -0.2241
   79loPI    C2 1250  13.639  11.406  11.418 -0.0292  0.2029 -0.1402
   79loPI    C3 1251  13.983  11.273  11.571 -0.0532  0.0739 -0.1973
   79loPI   PO4 1252  13.951  11.610  10.933 -0.0308  0.3048  0.1663
   79loPI   GL1 1253  13.862  11.533  10.544 -0.1495 -0.1493 -0.0738
   79loPI   GL2 1254  13.696  11.222  10.444 -0.2952 -0.1156  0.0207
   79loPI   C1A 1255  13.834  11.696  10.163  0.0066  0.2940  0.1727
   79loPI   C2A 1256  13.696  11.697   9.742 -0.0856  0.1186  0.1472
   79loPI   C3A 1257  13.678  11.635   9.269 -0.1527  0.1272  0.1602
   79loPI   C4A 1258  13.543  11.642   8.823 -0.0003  0.1287  0.1683
   79loPI   C5A 1259  13.511  11.517   8.458  0.3972 -0.1314  0.1320
   79loPI   C6A 1260  13.125  11.529   8.185  0.1188  0.1020  0.3728
   79loPI   C1B 1261  13.556  11.210  10.127  0.3042 -0.0935  0.2203
   79loPI   C2B 1262  13.527  11.284   9.585  0.2371 -0.2848 -0.0200
   79loPI   C3B 1263  13.419  11.214   9.162  0.2571  0.2472  0.0785
   79loPI   C4B 1264  13.479  11.134   8.760 -0.0650 -0.2142  0.1672
   80loPI    C1 1265   6.510   6.437  10.820 -0.3711  0.0946 -0.3317
   80loPI    C2 1266   6.230   6.657  11.002  0.0411  0.1736  0.2333
   80loPI    C3 1267   6.524   6.490  11.216  0.1869 -0.2717 -0.2910
   80loPI   PO4 1268   6.390   6.299  10.735 -0.2202  0.1968  0.2020
   80loPI   GL1 1269   6.309   6.271  10.335 -0.0527  0.0537 -0.1305
   80loPI   GL2 1270   6.608   6.329  10.225  0.0204 -0.0743 -0.0978
   80loPI   C1A 1271   6.308   6.011  10.030  0.1495  0.1051 -0.0644
   80loPI   C2A 1272   6.284   5.895   9.671  0.1554 -0.0295  0.0318
   80loPI   C3A 1273   6.358   5.848   9.259 -0.1411  0.1897 -0.0580
   80loPI   C4A 1274   6.351   5.924   8.776 -0.2118 -0.1215  0.0147
   80loPI   C5A 1275   6.394   5.550   8.447 -0.2081 -0.0244  0.1768
   80loPI   C6A 1276   6.255   5.297   8.022 -0.0010 -0.1174  0.3980
   80loPI   C1B 1277   6.585   6.371   9.793  0.0086  0.2650 -0.4456
   80loPI   C2B 1278   6.634   6.426   9.271  0.1256 -0.0010  0.2472
   80loPI   C3B 1279   6.576   6.474   8.919  0.3580  0.1512 -0.4812
   80loPI   C4B 1280   6.604   6.380   8.522  0.2189 -0.1538  0.2171
   81loPI    C1 1281   5.491   2.211  11.058  0.1400 -0.2397 -0.0674
   81loPI    C2 1282   5.608   2.523  10.837 -0.1892 -0.1699 -0.1482
   81loPI    C3 1283   5.576   2.560  11.234  0.0715 -0.1948 -0.1231
   81loPI   PO4 1284   5.601   2.021  10.957 -0.3493 -0.0214 -0.1830
   81loPI   GL1 1285   5.778   2.136  10.552 -0.0484  0.0066  0.0186
   81loPI   GL2 1286   6.027   2.268  10.539  0.0474 -0.3194  0.1571
   81loPI   C1A 1287   5.503   2.217  10.329 -0.1603  0.1076  0.0518
   81loPI   C2A 1288   5.545   2.205   9.805 -0.4443 -0.0944  0.0848
   81loPI   C3A 1289   5.628   2.124   9.363  0.1135 -0.2780 -0.0021
   81loPI   C4A 1290   5.572   2.236   9.070 -0.0835  0.0499  0.2779
   81loPI   C5A 1291   5.585   2.080   8.706 -0.0502 -0.3254  0.0163
   81loPI   C6A 1292   5.440   2.201   8.219  0.3318  0.0023  0.0931
   81loPI   C1B 1293   6.089   2.222  10.105  0.1321  0.0202 -0.0717
   81loPI   C2B 1294   6.156   2.272   9.676 -0.3478 -0.0230 -0.1713
   81loPI   C3B 1295   6.124   2.296   9.188 -0.0947  0.0334  0.0243
   81loPI   C4B 1296   6.101   2.225   8.820 -0.2045 -0.0530  0.1410
   82loPI    C1 1297  14.420   6.109  11.051  0.0992  0.0472 -0.0623
   82loPI    C2 1298  14.414   6.446  11.267  0.0328  0.1248 -0.1845
   82loPI    C3 1299  14.341   6.094  11.443  0.3737  0.1421 -0.0016
   82loPI   PO4 1300  14.327   6.166  10.864 -0.0728 -0.0565 -0.0582
   82loPI   GL1 1301  14.473   6.272  10.568  0.0087 -0.1632  0.1246
   82loPI   GL2 1302  14.567   6.599  10.456 -0.0717  0.3161 -0.2060
   82loPI   C1A 1303  14.303   6.227  10.162  0.2717  0.2955 -0.2798
   82loPI   C2A 1304  14.330   6.313   9.701 -0.0025  0.0160  0.0391
   82loPI   C3A 1305  14.312   6.389   9.271  0.0397 -0.0612  0.0021
   82loPI   C4A 1306  14.257   6.398   8.830 -0.0490  0.2089  0.1526
   82loPI   C5A 1307  14.323   6.556   8.475  0.0021 -0.6583 -0.2543
   82loPI   C6A 1308  14.580   6.867   8.258  0.2868 -0.3078  0.0131
   82loPI   C1B 1309  14.558   6.664  10.009 -0.2815  0.1720  0.0366
   82loPI   C2B 1310  14.559   6.820   9.582 -0.2809  0.3400 -0.2755
   82loPI   C3B 1311  14.576   6.910   9.197  0.1489  0.0065 -0.0311
   82loPI   C4B 1312  14.517   6.945   8.759 -0.2309  0.1042 -0.1355
   83loPI    C1 1313   7.658   3.264  10.969  0.0886  0.1095 -0.2171
   83loPI    C2 1314   7.498   3.626  11.026  0.2578  0.1633 -0.0747
   83loPI    C3 1315   7.595   3.399  11.340  0.4736  0.1372 -0.1586
   83loPI   PO4 1316   7.901   3.322  10.834  0.0562  0.0019 -0.1933
   83loPI   GL1 1317   7.990   3.402  10.412  0.3740  0.1353 -0.2081
   83loPI   GL2 1318   8.244   3.600  10.413  0.0588 -0.0752  0.1105
   83loPI   C1A 1319   8.051   3.433   9.981 -0.0093 -0.0058 -0.0464
   83loPI   C2A 1320   8.045   3.470   9.462 -0.0394  0.1777  0.1295
   83loPI   C3A 1321   8.163   3.398   9.082  0.1693  0.2225  0.0457
   83loPI   C4A 1322   8.154   3.296   8.624  0.0481  0.2304 -0.1582
   83loPI   C5A 1323   8.023   2.918   8.539  0.4696 -0.1307 -0.1112
   83loPI   C6A 1324   8.002   2.627   8.204 -0.1550  0.0001  0.1577
   83loPI   C1B 1325   8.330   3.881  10.048 -0.0088 -0.0988 -0.0311
   83loPI   C2B 1326   8.316   3.927   9.712  0.0759  0.0709 -0.0224
   83loPI   C3B 1327   8.320   3.850   9.270  0.0361  0.1883 -0.0329
   83loPI   C4B 1328   8.313   3.796   8.777 -0.1875  0.1343 -0.0268
   84loPI    C1 1329   1.936  12.214  11.203 -0.0674 -0.3098  0.1477
   84loPI    C2 1330   2.281  12.102  11.373  0.0640  0.1483  0.1949
   84loPI    C3 1331   2.064  12.398  11.534 -0.0119  0.3181 -0.2076
   84loPI   PO4 1332   1.977  12.281  10.957  0.0902  0.2624 -0.0517
   84loPI   GL1 1333   1.835  12.482  10.664 -0.1513  0.2798 -0.1246
   84loPI   GL2 1334   1.792  12.829  10.598 -0.3492 -0.4652  0.0980
   84loPI   C1A 1335   1.671  12.341  10.206  0.0251  0.2816 -0.2836
   84loPI   C2A 1336   1.689  12.268   9.799 -0.2643  0.0471 -0.0765
   84loPI   C3A 1337   1.569  12.288   9.402 -0.0276  0.1175  0.2846
   84loPI   C4A 1338   1.633  12.352   8.944 -0.0437  0.2226  0.1015
   84loPI   C5A 1339   1.516  12.280   8.471  0.0162 -0.0361 -0.0542
   84loPI   C6A 1340   1.360  12.543   8.182 -0.0680  0.0503 -0.0664
   84loPI   C1B 1341   1.991  12.837  10.211 -0.2626  0.0397  0.0513
   84loPI   C2B 1342   1.896  12.766   9.783  0.1365 -0.0162  0.3597
   84loPI   C3B 1343   1.773  12.762   9.296  0.4125  0.2119 -0.1774
   84loPI   C4B 1344   1.955  12.831   8.883  0.0902  0.0677  0.0495
   85loPI    C1 1345   7.347  14.430  11.722 -0.2379 -0.0291  0.1951
   85loPI    C2 1346   7.347  14.123  11.978 -0.1495  0.0295  0.2660
   85loPI    C3 1347   7.611  14.420  12.022  0.0243 -0.0750 -0.0326
   85loPI   PO4 1348   7.366  14.300  11.524  0.2535 -0.3524 -0.2365
   85loPI   GL1 1349   7.173  14.417  11.063 -0.1015 -0.0240 -0.0060
   85loPI   GL2 1350   7.289  14.459  10.857  0.0614 -0.1334  0.1266
   85loPI   C1A 1351   6.958  14.195  10.594  0.0131  0.2742 -0.2603
   85loPI   C2A 1352   6.979  14.138  10.092  0.0339 -0.1159 -0.0914
   85loPI   C3A 1353   7.024  14.092   9.707  0.4832 -0.1858  0.1405
   85loPI   C4A 1354   7.005  14.033   9.270 -0.2332 -0.0532  0.0370
   85loPI   C5A 1355   7.027  14.144   8.830 -0.2416  0.0468  0.0096
   85loPI   C6A 1356   7.063  14.572   8.567 -0.0057 -0.0053  0.1312
   85loPI   C1B 1357   7.202  14.642  10.366  0.0706  0.0315 -0.0433
   85loPI   C2B 1358   7.145  14.557   9.912 -0.0912 -0.1943  0.0965
   85loPI   C3B 1359   7.231  14.543   9.479 -0.1420  0.2809  0.1507
   85loPI   C4B 1360   7.115  14.559   9.097 -0.1619  0.0684 -0.0629
   86loPI    C1 1361  14.638   0.341  10.946  0.0988 -0.3001 -0.1484
   86loPI    C2 1362  14.395   0.441  11.248  0.0384 -0.0551 -0.2762
   86loPI    C3 1363  14.464   0.056  11.166  0.3451 -0.1286  0.2814
   86loPI   PO4 1364  14.608   0.449  10.768 -0.1336 -0.2062 -0.1738
   86loPI   GL1 1365  14.727   0.323  10.322  0.1728 -0.0341 -0.1161
   86loPI   GL2 1366  14.944  -0.056  10.313 -0.2107  0.1430 -0.0099
   86loPI   C1A 1367  14.690   0.332   9.943  0.0721  0.0099 -0.0060
   86loPI   C2A 1368  14.779   0.392   9.609  0.1352  0.0084 -0.1026
   86loPI   C3A 1369  14.637   0.328   9.277 -0.1206 -0.1186  0.2217
   86loPI   C4A 1370  14.671   0.350   8.893  0.0679  0.6080  0.1135
   86loPI   C5A 1371  14.318   0.342   8.621  0.0712  0.0659 -0.0388
   86loPI   C6A 1372  14.093   0.630   8.475  0.2599 -0.2249  0.1098
   86loPI   C1B 1373  14.991  -0.029   9.813 -0.1043 -0.0763 -0.2962
   86loPI   C2B 1374  14.884  -0.101   9.444 -0.1644 -0.0769 -0.1653
   86loPI   C3B 1375  15.016  -0.027   8.965  0.0413 -0.0612  0.0791
   86loPI   C4B 1376  15.010   0.179   8.538 -0.1105  0.0365 -0.1830
   87loPI    C1 1377   4.200   4.746  11.109  0.1440 -0.0588 -0.1152
   87loPI    C2 1378   4.439   4.986  11.322  0.1304 -0.0864 -0.0687
   87loPI    C3 1379   4.132   4.800  11.499  0.0660 -0.0400 -0.1312
   87loPI   PO4 1380   4.098   4.884  10.886  0.3306  0.0770  0.1490
   87loPI   GL1 1381   4.200   4.628  10.547  0.2402  0.1437  0.1095
   87loPI   GL2 1382   4.053   4.357  10.463  0.2443  0.1701  0.0667
   87loPI   C1A 1383   4.214   4.826  10.086 -0.2787  0.0651 -0.0385
   87loPI   C2A 1384   4.235   4.709   9.608  0.1787  0.0106  0.0068
   87loPI   C3A 1385   4.215   4.779   9.219  0.2232  0.0439  0.3655
   87loPI   C4A 1386   4.295   4.691   8.787 -0.1367 -0.0441 -0.1443
   87loPI   C5A 1387   4.240   4.970   8.451 -0.1532  0.3259 -0.2495
   87loPI   C6A 1388   4.079   5.279   8.157  0.1669  0.0872  0.0027
   87loPI   C1B 1389   3.968   4.355  10.080  0.3641 -0.1959 -0.1244
   87loPI   C2B 1390   3.961   4.301   9.676  0.0792 -0.1113 -0.1145
   87loPI   C3B 1391   4.088   4.272   9.270 -0.0282 -0.1086  0.4063
   87loPI   C4B 1392   4.097   4.188   8.885  0.1254  0.2571  0.1542
   88loPI    C1 1393  12.624   9.935  11.077 -0.0593 -0.3341  0.0899
   88loPI    C2 1394  12.304  10.019  11.302  0.0739  0.0056  0.1590
   88loPI    C3 1395  12.672  10.045  11.458  0.1544 -0.0235 -0.0223
   88loPI   PO4 1396  12.442   9.798  10.856 -0.1524  0.0200 -0.0480
   88loPI   GL1 1397  12.268   9.736  10.456  0.1143 -0.2848 -0.2302
   88loPI   GL2 1398  12.056   9.861  10.549 -0.1721 -0.0093  0.0156
   88loPI   C1A 1399  12.379   9.706  10.018 -0.2043 -0.0053  0.1198
   88loPI   C2A 1400  12.443   9.746   9.614 -0.0354  0.2211  0.1664
   88loPI   C3A 1401  12.404   9.723   9.219  0.1550  0.0551 -0.1281
   88loPI   C4A 1402  12.337   9.810   8.784 -0.1974 -0.2778  0.2329
   88loPI   C5A 1403  12.235   9.543   8.436  0.1153 -0.1894  0.1247
   88loPI   C6A 1404  12.177   9.902   8.104  0.1668 -0.0897 -0.3144
   88loPI   C1B 1405  11.825   9.711  10.124 -0.2213  0.1210  0.0100
   88loPI   C2B 1406  11.844   9.656   9.653 -0.1101  0.1252 -0.1060
   88loPI   C3B 1407  11.900   9.697   9.188 -0.3222 -0.1590  0.1536
   88loPI   C4B 1408  11.836   9.698   8.768 -0.0627 -0.0321 -0.1706
   89loPI    C1 1409   9.093  15.486  11.305 -0.1292  0.0317  0.1483
   89loPI    C2 1410   9.252  15.772  11.535  0.2860 -0.0794  0.0086
   89loPI    C3 1411   9.191  15.405  11.684 -0.1084  0.0351  0.1437
   89loPI   PO4 1412   8.993  15.626  11.077  0.1507 -0.2729 -0.1985
   89loPI   GL1 1413   9.152  15.684  10.710  0.0335  0.0738  0.3251
   89loPI   GL2 1414   8.990  16.020  10.677 -0.1210  0.1573 -0.0417
   89loPI   C1A 1415   9.114  15.689  10.169 -0.3063  0.0777 -0.1115
   89loPI   C2A 1416   9.080  15.725   9.786  0.1278  0.3008  0.2501
   89loPI   C3A 1417   9.213  15.758   9.279  0.1416  0.0469  0.1137
   89loPI   C4A 1418   9.253  15.611   8.874  0.1209  0.0613 -0.0407
   89loPI   C5A 1419   9.000  15.557   8.471 -0.0944  0.0072  0.0236
   89loPI   C6A 1420   9.124  15.493   8.012  0.0879 -0.0441 -0.0625
   89loPI   C1B 1421   8.796  16.037  10.224 -0.1920 -0.2729  0.2405
   89loPI   C2B 1422   8.804  16.110   9.762  0.1113  0.4680 -0.0281
   89loPI   C3B 1423   8.872  16.114   9.258  0.1873  0.2575 -0.2060
   89loPI   C4B 1424   8.918  16.000   8.791  0.2667 -0.2380 -0.4775
   90loPI    C1 1425   1.707  17.225  11.085  0.0985 -0.1467  0.1429
   90loPI    C2 1426   1.872  17.492  11.332  0.2427 -0.2272  0.1349
   90loPI    C3 1427   1.578  17.254  11.462  0.0885 -0.0412  0.1315
   90loPI   PO4 1428   1.833  17.251  10.937 -0.1404  0.1001 -0.1303
   90loPI   GL1 1429   1.825  17.160  10.545 -0.2571 -0.0503 -0.1095
   90loPI   GL2 1430   1.807  16.945  10.297  0.1525  0.2639  0.1886
   90loPI   C1A 1431   1.997  17.319  10.053  0.0276 -0.2061  0.0424
   90loPI   C2A 1432   1.940  17.304   9.610  0.1154  0.1847  0.2425
   90loPI   C3A 1433   1.894  17.386   9.310 -0.0394 -0.1743  0.5417
   90loPI   C4A 1434   1.990  17.313   8.827  0.1060  0.0646 -0.3785
   90loPI   C5A 1435   2.082  17.497   8.570  0.0303 -0.3410  0.3885
   90loPI   C6A 1436   2.380  17.842   8.417 -0.0781 -0.0313  0.4120
   90loPI   C1B 1437   1.754  16.891   9.861 -0.1083  0.0948 -0.2162
   90loPI   C2B 1438   1.754  16.849   9.464 -0.1861 -0.3666  0.0685
   90loPI   C3B 1439   1.831  16.872   9.041  0.1237 -0.0919  0.1227
   90loPI   C4B 1440   1.867  16.864   8.566  0.3444  0.0551  0.0796
   91loPI    C1 1441   3.289  11.323  10.737 -0.0986 -0.1350 -0.1220
   91loPI    C2 1442   3.280  11.154  11.099  0.0105  0.1080 -0.0038
   91loPI    C3 1443   3.631  11.239  10.927 -0.0428  0.1616 -0.0869
   91loPI   PO4 1444   3.070  11.446  10.677  0.0312  0.1730  0.0784
   91loPI   GL1 1445   2.921  11.573  10.296  0.1753  0.0487  0.2773
   91loPI   GL2 1446   3.129  11.829  10.149  0.0877 -0.0010  0.0198
   91loPI   C1A 1447   2.830  11.492   9.840 -0.0210 -0.1008  0.0591
   91loPI   C2A 1448   2.783  11.503   9.379 -0.1449  0.0344  0.2636
   91loPI   C3A 1449   2.728  11.547   8.937 -0.1377 -0.0421  0.0252
   91loPI   C4A 1450   2.518  11.689   8.585 -0.1053 -0.1895 -0.0627
   91loPI   C5A 1451   2.371  11.499   8.208 -0.1485 -0.0527 -0.3291
   91loPI   C6A 1452   2.555  11.260   7.932 -0.0706  0.1603 -0.0140
   91loPI   C1B 1453   3.108  12.007   9.691 -0.0477  0.1674 -0.1492
   91loPI   C2B 1454   2.948  11.974   9.231  0.1775 -0.0910 -0.0658
   91loPI   C3B 1455   2.935  11.994   8.815  0.0811 -0.0720  0.1273
   91loPI   C4B 1456   2.835  11.953   8.317  0.0872 -0.1074 -0.1771
   92loPI    C1 1457  15.917  11.262  11.059  0.2667  0.0741  0.2012
   92loPI    C2 1458  15.757  11.283  11.425  0.1748  0.0602  0.1623
   92loPI    C3 1459  16.052  11.024  11.350 -0.0082 -0.1486  0.1523
   92loPI   PO4 1460  15.884  11.476  10.770 -0.0833 -0.1349 -0.1761
   92loPI   GL1 1461  15.888  11.620  10.341  0.1561 -0.0859  0.0715
   92loPI   GL2 1462  15.666  12.003  10.417  0.3554 -0.0594  0.0671
   92loPI   C1A 1463  16.162  11.486  10.050  0.2325  0.1303  0.0241
   92loPI   C2A 1464  16.166  11.556   9.550 -0.3556  0.0415 -0.0103
   92loPI   C3A 1465  16.102  11.538   9.152  0.1071 -0.0133  0.2603
   92loPI   C4A 1466  16.015  11.583   8.805  0.1986  0.1743  0.2800
   92loPI   C5A 1467  16.142  11.620   8.356  0.1090  0.0427  0.1550
   92loPI   C6A 1468  16.357  11.454   8.025  0.0056  0.1163 -0.2954
   92loPI   C1B 1469  15.719  11.941   9.973  0.1363  0.0938  0.0108
   92loPI   C2B 1470  15.875  11.949   9.564 -0.2855  0.2545 -0.3011
   92loPI   C3B 1471  15.750  11.937   9.111  0.1064  0.4934  0.2196
   92loPI   C4B 1472  15.765  11.982   8.661 -0.2497 -0.4848 -0.2779
   93loPI    C1 1473   3.934  12.451  11.254 -0.0174 -0.0973  0.1763
   93loPI    C2 1474   3.670  12.456  11.555  0.0410  0.0083  0.2266
   93loPI    C3 1475   4.051  12.355  11.625 -0.0596 -0.4961  0.0912
   93loPI   PO4 1476   3.832  12.377  11.033  0.0719 -0.1739 -0.0190
   93loPI   GL1 1477   3.677  12.257  10.656  0.2250  0.1328 -0.2256
   93loPI   GL2 1478   3.900  12.454  10.556  0.1138 -0.2385 -0.4355
   93loPI   C1A 1479   3.409  12.481  10.395  0.0060  0.0933  0.0738
   93loPI   C2A 1480   3.357  12.492   9.928  0.0329 -0.1896 -0.2374
   93loPI   C3A 1481   3.328  12.414   9.450  0.2542 -0.1401  0.2826
   93loPI   C4A 1482   3.143  12.465   9.084 -0.0408  0.1732 -0.1839
   93loPI   C5A 1483   2.971  12.577   8.658 -0.2788 -0.3597  0.0624
   93loPI   C6A 1484   3.041  12.883   8.361 -0.0469  0.0346 -0.0380
   93loPI   C1B 1485   3.840  12.419  10.118 -0.0343 -0.0171 -0.0353
   93loPI   C2B 1486   3.771  12.467   9.660  0.3166 -0.1586 -0.0692
   93loPI   C3B 1487   3.753  12.520   9.239  0.2026 -0.0186  0.1550
   93loPI   C4B 1488   3.644  12.477   8.829  0.0215  0.0895 -0.2833
   94loPI    C1 1489  11.815  10.136  11.129 -0.0520  0.1106 -0.0497
   94loPI    C2 1490  11.674   9.857  11.379 -0.2631  0.0910 -0.1880
   94loPI    C3 1491  11.748  10.227  11.513 -0.0466 -0.0108 -0.0195
   94loPI   PO4 1492  11.676  10.109  10.846  0.0038  0.1635  0.1034
   94loPI   GL1 1493  11.534  10.307  10.441  0.2282  0.1269 -0.0626
   94loPI   GL2 1494  11.339  10.611  10.327  0.1270  0.1892 -0.0698
   94loPI   C1A 1495  11.530  10.107  10.015 -0.3217 -0.1635  0.0968
   94loPI   C2A 1496  11.572  10.147   9.631  0.0741 -0.0871 -0.0074
   94loPI   C3A 1497  11.554  10.137   9.195 -0.0309  0.0739 -0.3114
   94loPI   C4A 1498  11.481  10.059   8.762  0.1394 -0.0246  0.0481
   94loPI   C5A 1499  11.532  10.104   8.376 -0.0047 -0.3299 -0.2240
   94loPI   C6A 1500  11.580  10.063   7.889  0.0662  0.1862  0.1030
   94loPI   C1B 1501  11.256  10.496   9.854  0.0932  0.3598  0.2789
   94loPI   C2B 1502  11.204  10.530   9.409  0.1297  0.0007 -0.2223
   94loPI   C3B 1503  11.191  10.502   9.003  0.1648 -0.1684 -0.3678
   94loPI   C4B 1504  11.224  10.476   8.604  0.1685  0.1869  0.0350
   95loPI    C1 1505  12.187  14.824  11.261  0.2359 -0.1929 -0.0111
   95loPI    C2 1506  12.232  15.171  11.068 -0.3287 -0.0298  0.1333
   95loPI    C3 1507  12.270  15.157  11.466 -0.3830 -0.1168  0.1358
   95loPI   PO4 1508  12.068  14.663  11.137  0.1341  0.1203 -0.0449
   95loPI   GL1 1509  11.952  14.550  10.806 -0.2059 -0.0129 -0.1262
   95loPI   GL2 1510  12.331  14.459  10.700 -0.1701  0.0900  0.0877
   95loPI   C1A 1511  11.883  14.289  10.525  0.0063  0.0169 -0.1029
   95loPI   C2A 1512  11.878  14.243  10.116  0.1014 -0.1208 -0.0008
   95loPI   C3A 1513  11.881  14.156   9.696  0.0192  0.1338  0.3603
   95loPI   C4A 1514  11.962  14.116   9.283 -0.2026 -0.3620 -0.1040
   95loPI   C5A 1515  11.906  14.246   8.768 -0.0145  0.2899  0.0772
   95loPI   C6A 1516  11.910  14.377   8.411  0.1250 -0.0373 -0.4252
   95loPI   C1B 1517  12.312  14.322  10.349 -0.2084 -0.0582  0.1196
   95loPI   C2B 1518  12.442  14.258   9.846 -0.1588  0.0258  0.1100
   95loPI   C3B 1519  12.389  14.197   9.437 -0.0709  0.1168  0.1324
   95loPI   C4B 1520  12.422  14.216   9.006 -0.0184  0.1622 -0.2848
   96loPI    C1 1521  10.688   3.221  11.100 -0.0989  0.3176  0.1086
   96loPI    C2 1522  10.474   2.884  11.128  0.1312  0.1417 -0.1886
   96loPI    C3 1523  10.555   3.098  11.456 -0.0011 -0.1020  0.0055
   96loPI   PO4 1524  10.699   3.251  10.874 -0.1470  0.1100 -0.2714
   96loPI   GL1 1525  10.858   3.428  10.574  0.1633  0.1183  0.1806
   96loPI   GL2 1526  11.112   3.248  10.445 -0.0730 -0.0490 -0.0393
   96loPI   C1A 1527  10.728   3.667  10.255 -0.1096  0.0104  0.2330
   96loPI   C2A 1528  10.650   3.683   9.841  0.1870 -0.1621  0.0384
   96loPI   C3A 1529  10.708   3.652   9.403  0.2785 -0.0084 -0.1060
   96loPI   C4A 1530  10.566   3.662   8.976  0.2148  0.0661 -0.0466
   96loPI   C5A 1531  10.507   3.404   8.552  0.1557 -0.3234  0.3600
   96loPI   C6A 1532  10.243   3.126   8.439 -0.1468  0.0062 -0.0407
   96loPI   C1B 1533  10.973   3.216  10.097 -0.2215  0.1867  0.0900
   96loPI   C2B 1534  10.972   3.267   9.621 -0.3054 -0.3009 -0.1556
   96loPI   C3B 1535  10.990   3.138   9.199 -0.0510  0.0462 -0.2258
   96loPI   C4B 1536  10.813   3.090   8.706  0.0601 -0.0368  0.1029
   97loPI    C1 1537   8.548  17.636  11.122 -0.2083  0.1655  0.2169
   97loPI    C2 1538   8.234  17.391  11.160  0.0279 -0.1798  0.0044
   97loPI    C3 1539   8.604  17.249  11.206  0.1810  0.0876 -0.3488
   97loPI   PO4 1540   8.613  17.698  10.918  0.0141  0.2369  0.1709
   97loPI   GL1 1541   8.720  17.611  10.464 -0.0144 -0.1627  0.0578
   97loPI   GL2 1542   8.417  17.562  10.362 -0.1784 -0.1630  0.0400
   97loPI   C1A 1543   8.914  17.552  10.138 -0.0674  0.1218  0.1025
   97loPI   C2A 1544   8.823  17.571   9.707 -0.0979  0.0818  0.0933
   97loPI   C3A 1545   8.894  17.501   9.256 -0.0686  0.2499  0.0200
   97loPI   C4A 1546   8.983  17.508   8.831 -0.3251  0.1501 -0.0207
   97loPI   C5A 1547   8.882  17.400   8.486 -0.0644  0.4905 -0.2668
   97loPI   C6A 1548   9.125  17.349   8.209 -0.2439 -0.0935  0.0428
   97loPI   C1B 1549   8.359  17.450   9.954 -0.0426 -0.0242 -0.3528
   97loPI   C2B 1550   8.380  17.507   9.526  0.0523 -0.0638  0.0699
   97loPI   C3B 1551   8.440  17.454   9.085 -0.1905  0.1616 -0.0717
   97loPI   C4B 1552   8.341  17.321   8.640  0.1584 -0.0116 -0.3920
   98loPI    C1 1553  13.865   7.453  11.021 -0.2651 -0.0701 -0.3555
   98loPI    C2 1554  13.800   7.166  11.291 -0.0005  0.1330 -0.0687
   98loPI    C3 1555  13.692   7.542  11.371 -0.0366  0.1732 -0.3012
   98loPI   PO4 1556  13.663   7.478  10.784 -0.0303  0.3449  0.1949
   98loPI   GL1 1557  13.496   7.329  10.449  0.1350 -0.0502 -0.0345
   98loPI   GL2 1558  13.199   7.193  10.581  0.0266  0.1765 -0.0139
   98loPI   C1A 1559  13.431   7.526   9.970 -0.2197 -0.1091 -0.2353
   98loPI   C2A 1560  13.420   7.613   9.530  0.0798 -0.0672  0.1597
   98loPI   C3A 1561  13.376   7.677   9.156 -0.1049  0.0037  0.3240
   98loPI   C4A 1562  13.326   7.606   8.794 -0.1919  0.0195  0.1033
   98loPI   C5A 1563  13.365   7.531   8.322  0.1440  0.1347 -0.0647
   98loPI   C6A 1564  13.139   7.458   7.957 -0.1509  0.4406  0.2393
   98loPI   C1B 1565  13.244   7.069  10.166 -0.0212 -0.1813 -0.0083
   98loPI   C2B 1566  13.234   7.105   9.675 -0.2105  0.0339  0.1030
   98loPI   C3B 1567  13.143   6.993   9.239  0.0075  0.0282 -0.1865
   98loPI   C4B 1568  13.128   7.123   8.798  0.0801  0.0784 -0.0682
   99loPI    C1 1569   5.925  11.382  11.170 -0.0180 -0.2328  0.3408
   99loPI    C2 1570   6.063  11.666  11.416 -0.0243 -0.0580  0.1456
   99loPI    C3 1571   5.669  11.623  11.361 -0.0208 -0.0555  0.1180
   99loPI   PO4 1572   6.087  11.338  10.920 -0.0095  0.1830  0.1556
   99loPI   GL1 1573   6.279  11.376  10.589 -0.1391 -0.0837  0.0752
   99loPI   GL2 1574   6.012  11.655  10.506  0.2662 -0.0529  0.1460
   99loPI   C1A 1575   6.296  11.339  10.195 -0.0273  0.0483 -0.2981
   99loPI   C2A 1576   6.280  11.269   9.824  0.0540  0.0525 -0.0454
   99loPI   C3A 1577   6.202  11.283   9.455 -0.0174  0.0852  0.4621
   99loPI   C4A 1578   6.248  11.372   9.036  0.0901  0.2561 -0.0251
   99loPI   C5A 1579   6.304  11.447   8.592  0.1275  0.0039 -0.2058
   99loPI   C6A 1580   6.456  11.884   8.365  0.0933  0.1511 -0.0420
   99loPI   C1B 1581   6.038  11.685  10.045  0.0867  0.0377 -0.0245
   99loPI   C2B 1582   6.057  11.750   9.602  0.2050 -0.0801  0.2212
   99loPI   C3B 1583   5.949  11.766   9.160 -0.0816 -0.2385 -0.1084
   99loPI   C4B 1584   5.765  11.825   8.724 -0.1174  0.0864  0.1016
  100loPI    C1 1585  11.114  13.086  11.304  0.0477  0.0605  0.1682
  100loPI    C2 1586  11.311  12.812  11.518  0.0817 -0.0045  0.0545
  100loPI    C3 1587  11.166  13.139  11.697  0.1034 -0.0616  0.1777
  100loPI   PO4 1588  11.265  12.988  11.061  0.0486 -0.2752  0.0809
  100loPI   GL1 1589  11.571  13.194  10.844  0.0657  0.2042 -0.0767
  100loPI   GL2 1590  11.789  13.384  10.773 -0.1366 -0.0171  0.3455
  100loPI   C1A 1591  11.476  13.161  10.516  0.0219 -0.2529  0.2099
  100loPI   C2A 1592  11.475  13.329  10.195 -0.1758  0.0328  0.1964
  100loPI   C3A 1593  11.507  13.265   9.764  0.0283  0.2640 -0.2552
  100loPI   C4A 1594  11.443  13.255   9.383 -0.0666 -0.0270 -0.0853
  100loPI   C5A 1595  11.490  13.128   8.947 -0.1909  0.2234 -0.1492
  100loPI   C6A 1596  11.434  13.348   8.554 -0.0814 -0.2211  0.3353
  100loPI   C1B 1597  11.957  13.331  10.338 -0.3157  0.0662  0.1022
  100loPI   C2B 1598  12.101  13.280   9.966 -0.0147 -0.3383  0.0952
  100loPI   C3B 1599  12.034  13.305   9.513 -0.1977  0.1994 -0.2217
  100loPI   C4B 1600  11.996  13.333   9.082  0.1550 -0.2048  0.1414
  101loPI    C1 1601  15.503   9.143  11.091  0.2424 -0.2114  0.2079
  101loPI    C2 1602  15.689   9.351  11.377 -0.0760  0.2650  0.0800
  101loPI    C3 1603  15.326   9.197  11.446 -0.0017  0.0728  0.0474
  101loPI   PO4 1604  15.516   9.207  10.920  0.0938  0.0172 -0.0225
  101loPI   GL1 1605  15.664   9.022  10.569  0.0461  0.3132  0.1311
  101loPI   GL2 1606  15.488   9.109  10.398 -0.0719  0.1086 -0.1606
  101loPI   C1A 1607  15.868   8.776  10.183 -0.0286 -0.0059 -0.0948
  101loPI   C2A 1608  15.793   8.723   9.686  0.1134  0.0414  0.1402
  101loPI   C3A 1609  15.874   8.757   9.252  0.2482  0.2839 -0.2004
  101loPI   C4A 1610  15.860   8.796   8.747 -0.1147  0.2132 -0.0103
  101loPI   C5A 1611  16.151   8.750   8.498 -0.0205 -0.1799 -0.0321
  101loPI   C6A 1612  16.475   9.075   8.250 -0.1350  0.2079  0.0570
  101loPI   C1B 1613  15.536   9.176  10.009  0.0733 -0.1021 -0.1384
  101loPI   C2B 1614  15.504   9.199   9.584  0.1709 -0.2874  0.0165
  101loPI   C3B 1615  15.505   9.117   9.225  0.0108 -0.0669  0.0669
  101loPI   C4B 1616  15.610   9.197   8.862 -0.2527 -0.2572  0.3959
  102loPI    C1 1617   2.268  10.988  10.977  0.2519  0.1131  0.0303
  102loPI    C2 1618   1.958  11.240  10.987  0.1365 -0.0242 -0.0497
  102loPI    C3 1619   2.228  11.244  11.282 -0.0479 -0.0373  0.1213
  102loPI   PO4 1620   2.307  10.948  10.773  0.2010 -0.0437  0.0304
  102loPI   GL1 1621   2.125  11.154  10.464  0.0713  0.1672 -0.2547
  102loPI   GL2 1622   2.068  11.065  10.290 -0.3573  0.2109 -0.0146
  102loPI   C1A 1623   2.213  11.513  10.162 -0.0005  0.1459  0.0247
  102loPI   C2A 1624   2.306  11.447   9.781  0.0100  0.0505  0.0119
  102loPI   C3A 1625   2.250  11.446   9.365  0.2823  0.0832  0.4029
  102loPI   C4A 1626   2.199  11.467   8.888  0.0599 -0.2902  0.2585
  102loPI   C5A 1627   2.011  11.401   8.546 -0.2898  0.0682 -0.1716
  102loPI   C6A 1628   1.908  11.773   8.357 -0.2124  0.0129  0.3693
  102loPI   C1B 1629   2.099  10.991   9.921 -0.0031  0.1939 -0.0367
  102loPI   C2B 1630   2.123  10.998   9.486 -0.0450 -0.0026 -0.2675
  102loPI   C3B 1631   2.110  11.006   8.996  0.0345  0.0371  0.0877
  102loPI   C4B 1632   1.976  10.906   8.615 -0.2041 -0.1853 -0.0831
  103loPI    C1 1633   9.762   6.937  11.377 -0.1327  0.3106  0.0216
  103loPI    C2 1634   9.399   6.861  11.529 -0.1654  0.0851 -0.1647
  103loPI    C3 1635   9.659   6.562  11.470  0.1047  0.2625  0.0972
  103loPI   PO4 1636   9.736   6.982  11.148  0.0831 -0.0477 -0.0051
  103loPI   GL1 1637   9.565   6.937  10.796  0.0569 -0.3426  0.1014
  103loPI   GL2 1638   9.899   7.050  10.629  0.0467  0.1113 -0.0407
  103loPI   C1A 1639   9.310   7.059  10.459 -0.3722 -0.0504  0.1575
  103loPI   C2A 1640   9.301   7.143  10.054  0.4507 -0.0217 -0.2034
  103loPI   C3A 1641   9.278   7.129   9.662  0.0662 -0.1203  0.2806
  103loPI   C4A 1642   9.260   7.091   9.210 -0.1501  0.1788  0.0116
  103loPI   C5A 1643   9.209   7.064   8.779 -0.0121 -0.0846  0.1271
  103loPI   C6A 1644   9.528   7.095   8.461  0.0010 -0.0915 -0.0160
  103loPI   C1B 1645   9.806   7.125  10.231 -0.2267  0.0328 -0.0909
  103loPI   C2B 1646   9.795   7.142   9.824  0.2170  0.0317 -0.0921
  103loPI   C3B 1647   9.773   7.170   9.429 -0.2285 -0.2996 -0.0015
  103loPI   C4B 1648   9.774   7.185   8.901 -0.0533 -0.1308  0.1114
  104loPI    C1 1649  12.744  13.285  11.113 -0.1916  0.0762 -0.2387
  104loPI    C2 1650  12.508  13.571  10.965 -0.2355  0.1670  0.0021
  104loPI    C3 1651  12.457  13.445  11.341 -0.0246  0.0512 -0.0070
  104loPI   PO4 1652  12.860  13.247  10.868 -0.1680 -0.2195 -0.2625
  104loPI   GL1 1653  13.108  13.281  10.595 -0.1403 -0.0746 -0.1043
  104loPI   GL2 1654  13.303  13.068  10.676 -0.2302 -0.0340 -0.1421
  104loPI   C1A 1655  13.109  13.403  10.205 -0.1363 -0.0700 -0.4706
  104loPI   C2A 1656  13.029  13.447   9.815  0.1280 -0.0191  0.1776
  104loPI   C3A 1657  13.046  13.394   9.420  0.3612 -0.1619  0.1431
  104loPI   C4A 1658  13.012  13.388   8.989 -0.0025  0.2000 -0.1338
  104loPI   C5A 1659  13.333  13.288   8.672  0.0501  0.2972  0.0116
  104loPI   C6A 1660  13.489  12.931   8.426  0.1938  0.0799 -0.2085
  104loPI   C1B 1661  13.415  13.038  10.269  0.0401  0.0488  0.1024
  104loPI   C2B 1662  13.239  13.029   9.735  0.0940 -0.2483 -0.0234
  104loPI   C3B 1663  13.344  13.017   9.342 -0.0904 -0.0510 -0.1474
  104loPI   C4B 1664  13.263  12.876   8.915 -0.0074  0.2872  0.2010
  105loPI    C1 1665   1.530  12.534  11.196  0.1603  0.1297 -0.0243
  105loPI    C2 1666   1.205  12.563  11.428  0.1517  0.0662 -0.0282
  105loPI    C3 1667   1.568  12.546  11.594  0.1648  0.3034 -0.0290
  105loPI   PO4 1668   1.449  12.680  10.922 -0.2315  0.2456 -0.1244
  105loPI   GL1 1669   1.339  12.738  10.415  0.2340  0.1398 -0.0598
  105loPI   GL2 1670   1.285  12.413  10.497  0.0448  0.0185 -0.0040
  105loPI   C1A 1671   1.414  12.805  10.127 -0.0314  0.1313  0.0960
  105loPI   C2A 1672   1.405  12.655   9.716  0.2403 -0.0962 -0.1005
  105loPI   C3A 1673   1.268  12.718   9.276  0.0457 -0.1052  0.3344
  105loPI   C4A 1674   1.275  12.747   8.886 -0.1398 -0.3512 -0.1221
  105loPI   C5A 1675   1.385  12.855   8.595 -0.0017  0.1033 -0.1239
  105loPI   C6A 1676   1.374  13.029   8.154 -0.1100 -0.1400  0.2722
  105loPI   C1B 1677   1.190  12.280  10.041 -0.0230 -0.0407 -0.1183
  105loPI   C2B 1678   1.155  12.178   9.643  0.0982 -0.0122  0.0447
  105loPI   C3B 1679   1.061  12.261   9.246  0.0451 -0.1564  0.0237
  105loPI   C4B 1680   1.142  12.238   8.827  0.0372 -0.0168 -0.0555
  106loPI    C1 1681  16.182   5.857  10.838  0.0894 -0.0299 -0.0765
  106loPI    C2 1682  16.457   5.750  11.108  0.0367  0.2204  0.0802
  106loPI    C3 1683  16.411   6.136  11.012  0.0262  0.1382 -0.2587
  106loPI   PO4 1684  16.218   5.734  10.670 -0.0773 -0.1880  0.2092
  106loPI   GL1 1685  16.250   5.508  10.327 -0.2496 -0.1421  0.1683
  106loPI   GL2 1686  16.351   5.684  10.184 -0.2205 -0.2681  0.0399
  106loPI   C1A 1687  16.282   5.215  10.012  0.0814  0.1507  0.0407
  106loPI   C2A 1688  16.217   5.125   9.532  0.1027 -0.0741  0.2042
  106loPI   C3A 1689  16.231   5.206   9.106  0.2012  0.0141  0.0539
  106loPI   C4A 1690  16.250   5.076   8.692 -0.2850 -0.1070 -0.0005
  106loPI   C5A 1691  16.210   5.251   8.272 -0.0586  0.0243  0.3552
  106loPI   C6A 1692  15.961   5.742   8.149 -0.1599  0.0195  0.0033
  106loPI   C1B 1693  16.405   5.571   9.730  0.0150 -0.0419 -0.2734
  106loPI   C2B 1694  16.414   5.648   9.356  0.2705 -0.1996 -0.0008
  106loPI   C3B 1695  16.511   5.626   8.926 -0.2989 -0.0180 -0.3778
  106loPI   C4B 1696  16.566   5.489   8.545  0.2192  0.2239 -0.1321
  107loPI    C1 1697   8.998  14.943  11.041  0.3182  0.0756  0.1396
  107loPI    C2 1698   9.282  14.845  10.777  0.1535  0.0491 -0.0302
  107loPI    C3 1699   9.306  15.191  10.976  0.2655  0.0813 -0.0983
  107loPI   PO4 1700   8.832  14.877  10.928  0.2093 -0.1588 -0.2131
  107loPI   GL1 1701   8.804  15.118  10.536 -0.0025  0.1604 -0.4079
  107loPI   GL2 1702   9.092  15.242  10.521 -0.2259  0.1285 -0.1020
  107loPI   C1A 1703   8.900  15.214  10.084  0.1393  0.0308  0.0326
  107loPI   C2A 1704   8.907  15.176   9.668 -0.0205  0.0625 -0.0680
  107loPI   C3A 1705   8.998  15.218   9.236 -0.3324 -0.0753  0.2560
  107loPI   C4A 1706   8.986  15.113   8.746 -0.1039  0.2239  0.0639
  107loPI   C5A 1707   9.081  14.759   8.485 -0.0663  0.0205 -0.1127
  107loPI   C6A 1708   9.311  14.382   8.607 -0.0269 -0.1484 -0.2684
  107loPI   C1B 1709   9.242  14.868  10.280 -0.1692 -0.0975  0.1714
  107loPI   C2B 1710   9.234  14.796   9.900 -0.3273  0.1785 -0.0891
  107loPI   C3B 1711   9.172  14.834   9.509 -0.0815  0.1532 -0.1784
  107loPI   C4B 1712   9.159  14.765   9.070 -0.2876 -0.0127  0.2940
  108loPI    C1 1713   0.148   2.593  11.443  0.1388 -0.1585  0.0976
  108loPI    C2 1714   0.392   2.866  11.605 -0.1869  0.2501 -0.0810
  108loPI    C3 1715   0.026   2.809  11.757 -0.1394 -0.0586 -0.0751
  108loPI   PO4 1716   0.177   2.607  11.238  0.0138  0.1348  0.1211
  108loPI   GL1 1717  -0.114   2.743  10.850 -0.2242  0.2536  0.6903
  108loPI   GL2 1718  -0.274   2.757  10.613 -0.0796 -0.3163 -0.3361
  108loPI   C1A 1719   0.193   2.631  10.469 -0.2218  0.1922 -0.0711
  108loPI   C2A 1720   0.250   2.574  10.036 -0.0670  0.1801  0.0652
  108loPI   C3A 1721   0.367   2.572   9.532 -0.2379 -0.0670  0.1753
  108loPI   C4A 1722   0.313   2.618   9.166 -0.2696 -0.1096 -0.4116
  108loPI   C5A 1723   0.464   2.520   8.759  0.0102  0.0087 -0.2150
  108loPI   C6A 1724   0.619   2.268   8.392 -0.2860 -0.1080 -0.3388
  108loPI   C1B 1725  -0.269   2.557  10.157 -0.2283 -0.0222  0.0340
  108loPI   C2B 1726  -0.143   2.514   9.712 -0.1053 -0.3060  0.0096
  108loPI   C3B 1727  -0.145   2.518   9.258  0.3350  0.1967  0.2160
  108loPI   C4B 1728  -0.175   2.537   8.783  0.1610  0.0946 -0.3221
  109loPI    C1 1729   4.921  13.302  11.321 -0.0135  0.0345  0.2973
  109loPI    C2 1730   5.206  13.318  11.041 -0.0983 -0.2351  0.1920
  109loPI    C3 1731   5.278  13.460  11.408  0.0992 -0.1105  0.1071
  109loPI   PO4 1732   4.795  13.042  11.167  0.1984 -0.1296 -0.4414
  109loPI   GL1 1733   4.621  13.026  10.745  0.3451 -0.0407 -0.2270
  109loPI   GL2 1734   4.790  13.236  10.723 -0.1071 -0.1097  0.3810
  109loPI   C1A 1735   4.495  12.951  10.325  0.0353 -0.1348  0.0911
  109loPI   C2A 1736   4.463  13.009   9.886 -0.0948 -0.0185  0.1324
  109loPI   C3A 1737   4.431  12.949   9.407 -0.2735  0.2097 -0.3661
  109loPI   C4A 1738   4.452  12.957   8.966 -0.0853  0.0762  0.2065
  109loPI   C5A 1739   4.633  13.191   8.701  0.0365 -0.0665 -0.1054
  109loPI   C6A 1740   4.794  13.634   8.618 -0.0927 -0.0706  0.0228
  109loPI   C1B 1741   4.684  13.526  10.365  0.1144  0.0940 -0.0176
  109loPI   C2B 1742   4.672  13.524   9.950  0.1557 -0.1078 -0.2169
  109loPI   C3B 1743   4.692  13.519   9.609 -0.1124  0.3079  0.0924
  109loPI   C4B 1744   4.694  13.448   9.140 -0.3308  0.0439  0.0975
  110loPI    C1 1745  16.696  11.616  11.221  0.0666 -0.4457  0.1254
  110loPI    C2 1746  17.051  11.648  11.401  0.0839 -0.2312  0.0560
  110loPI    C3 1747  16.718  11.752  11.596  0.1109  0.0878 -0.0620
  110loPI   PO4 1748  16.765  11.790  10.984  0.1707  0.0411  0.0812
  110loPI   GL1 1749  16.843  11.800  10.577 -0.0273  0.0834 -0.1342
  110loPI   GL2 1750  16.715  11.517  10.486  0.1348 -0.0548  0.0334
  110loPI   C1A 1751  16.854  12.066  10.133  0.1495  0.1775 -0.0212
  110loPI   C2A 1752  16.840  12.015   9.622 -0.2258 -0.2471 -0.2357
  110loPI   C3A 1753  16.788  12.078   9.076 -0.0086  0.0454 -0.2057
  110loPI   C4A 1754  16.747  12.086   8.638 -0.2056 -0.0755 -0.0051
  110loPI   C5A 1755  17.003  12.105   8.377 -0.4491  0.4092  0.2458
  110loPI   C6A 1756  17.460  12.104   8.299 -0.2350 -0.0051 -0.0814
  110loPI   C1B 1757  16.710  11.579  10.085  0.1565 -0.5234 -0.3222
  110loPI   C2B 1758  16.722  11.507   9.625  0.0240 -0.1134 -0.0562
  110loPI   C3B 1759  16.606  11.658   9.307  0.1631 -0.1583 -0.2103
  110loPI   C4B 1760  16.541  11.592   8.890 -0.0748  0.1513  0.1617
  111loPI    C1 1761   8.999   5.621  11.155 -0.1304  0.2571  0.1704
  111loPI    C2 1762   8.991   5.508  11.539  0.1121 -0.0066  0.1014
  111loPI    C3 1763   9.294   5.730  11.401  0.0621  0.0277  0.0461
  111loPI   PO4 1764   9.001   5.414  11.038  0.1154 -0.1539 -0.2405
  111loPI   GL1 1765   8.996   5.249  10.682  0.0203  0.1402  0.0947
  111loPI   GL2 1766   9.263   5.166  10.643 -0.0593 -0.3609  0.1101
  111loPI   C1A 1767   8.824   5.300  10.237 -0.0071 -0.2564  0.2917
  111loPI   C2A 1768   8.884   5.241   9.813 -0.2009  0.3035  0.0351
  111loPI   C3A 1769   9.044   5.205   9.441  0.1088  0.0272 -0.0122
  111loPI   C4A 1770   9.012   5.301   9.065 -0.0837  0.2900  0.2809
  111loPI   C5A 1771   8.886   5.138   8.614  0.0828 -0.2044  0.0257
  111loPI   C6A 1772   9.082   5.322   8.237  0.2337 -0.4163 -0.0797
  111loPI   C1B 1773   9.359   5.272  10.280  0.0281 -0.0218 -0.0515
  111loPI   C2B 1774   9.373   5.381   9.900  0.1301 -0.1191 -0.0660
  111loPI   C3B 1775   9.517   5.391   9.575 -0.0705 -0.1906 -0.4133
  111loPI   C4B 1776   9.521   5.393   9.131 -0.1389 -0.5422 -0.2126
  112loPI    C1 1777  13.687  13.697  11.316  0.1732 -0.0590  0.0916
  112loPI    C2 1778  13.431  13.520  11.567  0.0732 -0.0242  0.0144
  112loPI    C3 1779  13.603  13.866  11.669  0.1221 -0.0690  0.0844
  112loPI   PO4 1780  13.841  13.415  11.196  0.1938 -0.0352 -0.0305
  112loPI   GL1 1781  13.772  13.419  10.773  0.1402  0.0812 -0.3001
  112loPI   GL2 1782  13.481  13.568  10.831 -0.0126 -0.0583 -0.0995
  112loPI   C1A 1783  14.085  13.564  10.435  0.1712 -0.2559  0.0904
  112loPI   C2A 1784  14.085  13.469   9.892  0.2200 -0.2549  0.1957
  112loPI   C3A 1785  14.107  13.588   9.484 -0.2873 -0.1458 -0.0987
  112loPI   C4A 1786  14.022  13.539   8.993 -0.0862  0.2922 -0.1923
  112loPI   C5A 1787  14.043  13.499   8.607 -0.1105 -0.3909 -0.1942
  112loPI   C6A 1788  13.787  13.307   8.204  0.1257 -0.1917 -0.0069
  112loPI   C1B 1789  13.507  13.537  10.421  0.0081  0.0042  0.0057
  112loPI   C2B 1790  13.538  13.424  10.000 -0.1919  0.1887 -0.0900
  112loPI   C3B 1791  13.583  13.472   9.584 -0.3086 -0.1476  0.0403
  112loPI   C4B 1792  13.515  13.456   9.142  0.1873  0.0400 -0.0147
  113loPI    C1 1793   5.208   8.479  10.934 -0.3946 -0.1408 -0.2167
  113loPI    C2 1794   5.233   8.081  10.965 -0.0209 -0.0919  0.2227
  113loPI    C3 1795   5.069   8.295  11.261 -0.0726  0.0951  0.0609
  113loPI   PO4 1796   5.131   8.491  10.650  0.0539  0.0135  0.1522
  113loPI   GL1 1797   5.229   8.629  10.366 -0.1280  0.0808 -0.1156
  113loPI   GL2 1798   5.468   8.645  10.133 -0.0705  0.2027  0.1821
  113loPI   C1A 1799   4.971   8.670  10.008 -0.3269 -0.0502 -0.1099
  113loPI   C2A 1800   5.035   8.578   9.564 -0.1639  0.2872 -0.0944
  113loPI   C3A 1801   4.980   8.597   9.168  0.0376  0.0040  0.1999
  113loPI   C4A 1802   4.900   8.438   8.736 -0.1663  0.1384 -0.0014
  113loPI   C5A 1803   4.912   8.491   8.278  0.0372  0.2283 -0.1255
  113loPI   C6A 1804   4.936   8.197   7.968 -0.1322  0.1230 -0.2842
  113loPI   C1B 1805   5.543   8.589   9.772  0.1632 -0.1423 -0.0036
  113loPI   C2B 1806   5.551   8.617   9.289 -0.0305  0.3803  0.1199
  113loPI   C3B 1807   5.413   8.556   8.925  0.0257  0.0562 -0.5262
  113loPI   C4B 1808   5.345   8.557   8.573 -0.1748 -0.1778 -0.0556
  114loPI    C1 1809   1.752   7.395  11.302 -0.2395 -0.0330  0.1260
  114loPI    C2 1810   1.575   7.750  11.349  0.1287  0.1887 -0.1145
  114loPI    C3 1811   1.866   7.637  11.599  0.1031  0.1139 -0.1184
  114loPI   PO4 1812   1.869   7.405  11.101  0.2527 -0.0131 -0.4373
  114loPI   GL1 1813   1.947   7.718  10.716  0.2415 -0.1097 -0.3223
  114loPI   GL2 1814   1.665   7.700  10.767  0.0983 -0.1112 -0.0633
  114loPI   C1A 1815   1.769   7.809  10.251 -0.2965  0.0214  0.1336
  114loPI   C2A 1816   1.778   7.733   9.809  0.0008 -0.1615  0.2657
  114loPI   C3A 1817   1.695   7.711   9.379  0.0781 -0.0701 -0.1136
  114loPI   C4A 1818   1.632   7.767   9.001  0.2281 -0.0340  0.0556
  114loPI   C5A 1819   1.497   7.744   8.630 -0.0789 -0.3255 -0.1256
  114loPI   C6A 1820   1.267   7.448   8.379 -0.0194 -0.1731 -0.2103
  114loPI   C1B 1821   1.717   7.327  10.409  0.0789  0.2127  0.0638
  114loPI   C2B 1822   1.588   7.326  10.034  0.2346  0.1237  0.0812
  114loPI   C3B 1823   1.491   7.217   9.677 -0.2532 -0.4981 -0.2957
  114loPI   C4B 1824   1.462   7.263   9.291  0.2111 -0.1334 -0.1679
  115loPI    C1 1825  14.202   4.319  11.139  0.2397 -0.2010  0.1795
  115loPI    C2 1826  14.369   4.523  11.441  0.0449  0.0768  0.1043
  115loPI    C3 1827  14.030   4.319  11.501  0.0978 -0.0087  0.1140
  115loPI   PO4 1828  14.309   4.499  10.919 -0.2340 -0.4377 -0.0918
  115loPI   GL1 1829  14.400   4.406  10.533 -0.0568  0.1104  0.0202
  115loPI   GL2 1830  14.508   4.094  10.367 -0.1841 -0.1635 -0.1487
  115loPI   C1A 1831  14.458   4.492  10.030 -0.0883 -0.1225  0.0975
  115loPI   C2A 1832  14.406   4.501   9.637 -0.1661 -0.0588 -0.0517
  115loPI   C3A 1833  14.493   4.413   9.215  0.2445 -0.3683 -0.0923
  115loPI   C4A 1834  14.470   4.518   8.830  0.2141  0.2346 -0.0298
  115loPI   C5A 1835  14.396   4.701   8.396  0.2868 -0.0980  0.0733
  115loPI   C6A 1836  14.162   4.765   8.050  0.0606 -0.1009  0.2212
  115loPI   C1B 1837  14.353   3.964   9.893  0.3882 -0.0632  0.0049
  115loPI   C2B 1838  14.293   4.067   9.457  0.1164  0.1019 -0.0324
  115loPI   C3B 1839  14.222   4.075   8.959 -0.1734 -0.1589 -0.0260
  115loPI   C4B 1840  14.124   4.173   8.524 -0.2519 -0.1104  0.0352
  116loPI    C1 1841   6.429  11.220  11.374 -0.1203 -0.0943  0.0536
  116loPI    C2 1842   6.544  11.479  11.091 -0.0046  0.0681  0.2468
  116loPI    C3 1843   6.705  11.497  11.457 -0.1646 -0.1302  0.3292
  116loPI   PO4 1844   6.381  10.991  11.263  0.2275 -0.1695 -0.1498
  116loPI   GL1 1845   6.403  10.953  10.861  0.1950 -0.0956  0.1643
  116loPI   GL2 1846   6.115  10.921  10.642  0.0804  0.0671 -0.1412
  116loPI   C1A 1847   6.675  11.007  10.510  0.0291  0.1080  0.2616
  116loPI   C2A 1848   6.669  10.951  10.144 -0.3166 -0.0109 -0.1314
  116loPI   C3A 1849   6.630  10.924   9.700  0.2135  0.2777  0.2773
  116loPI   C4A 1850   6.526  10.941   9.212 -0.1174  0.2651 -0.1737
  116loPI   C5A 1851   6.494  10.972   8.748  0.0770  0.2244  0.1627
  116loPI   C6A 1852   6.491  10.977   8.278  0.1888  0.2504  0.1123
  116loPI   C1B 1853   6.150  10.848  10.226 -0.2675  0.0374  0.1091
  116loPI   C2B 1854   6.070  10.835   9.888 -0.0720  0.0917  0.0927
  116loPI   C3B 1855   6.098  10.840   9.462 -0.1753  0.0100  0.0590
  116loPI   C4B 1856   6.044  10.929   9.009  0.2979 -0.0250  0.1284
  117loPI    C1 1857  15.237  15.612  10.830  0.1546  0.0638  0.0915
  117loPI    C2 1858  14.845  15.588  10.905  0.1272  0.0545 -0.0523
  117loPI    C3 1859  15.105  15.621  11.208  0.0406 -0.2820  0.0633
  117loPI   PO4 1860  15.323  15.371  10.586 -0.2521 -0.2097  0.0463
  117loPI   GL1 1861  15.416  15.481  10.202  0.3864  0.0241 -0.1574
  117loPI   GL2 1862  15.652  15.543  10.229  0.0723 -0.0267 -0.3168
  117loPI   C1A 1863  15.434  15.560   9.712 -0.1510 -0.2234  0.4463
  117loPI   C2A 1864  15.364  15.507   9.343 -0.0508 -0.0998 -0.0098
  117loPI   C3A 1865  15.278  15.464   8.780 -0.1689  0.1915 -0.0921
  117loPI   C4A 1866  15.318  15.410   8.344  0.2130 -0.1532 -0.1604
  117loPI   C5A 1867  15.465  15.183   7.972  0.1186 -0.3584 -0.0182
  117loPI   C6A 1868  15.418  15.144   7.648 -0.0071  0.1872  0.0988
  117loPI   C1B 1869  15.941  15.588   9.841 -0.1688  0.1040  0.1729
  117loPI   C2B 1870  15.891  15.562   9.394 -0.1874 -0.0888  0.1098
  117loPI   C3B 1871  15.950  15.605   8.963 -0.2520 -0.1618 -0.0462
  117loPI   C4B 1872  16.087  15.708   8.555 -0.2482 -0.0000  0.1635
  118loPI    C1 1873  15.702  10.416  10.901  0.0437 -0.0385  0.0279
  118loPI    C2 1874  16.002  10.608  11.084  0.0963  0.0831 -0.1826
  118loPI    C3 1875  15.792  10.331  11.282  0.1616  0.2009  0.0556
  118loPI   PO4 1876  15.815  10.490  10.630  0.0130 -0.0093 -0.0110
  118loPI   GL1 1877  15.747  10.512  10.250  0.2214  0.0368  0.0958
  118loPI   GL2 1878  15.965  10.770  10.242  0.1940 -0.0848 -0.3065
  118loPI   C1A 1879  15.683  10.549   9.767  0.1794 -0.0467  0.1825
  118loPI   C2A 1880  15.646  10.617   9.285 -0.2581  0.0693 -0.2238
  118loPI   C3A 1881  15.744  10.648   8.814 -0.0172  0.3981 -0.0676
  118loPI   C4A 1882  15.890  10.652   8.448  0.3199  0.0195 -0.0264
  118loPI   C5A 1883  15.742  10.765   8.031  0.3173  0.0720 -0.0812
  118loPI   C6A 1884  15.920  10.733   7.602 -0.3690 -0.1243  0.0008
  118loPI   C1B 1885  15.933  10.992   9.895  0.0798  0.2459 -0.0611
  118loPI   C2B 1886  15.908  10.990   9.509  0.4201 -0.1780  0.0067
  118loPI   C3B 1887  15.834  11.128   9.039 -0.3747  0.2547 -0.1904
  118loPI   C4B 1888  15.801  11.085   8.587  0.0114  0.1418 -0.4314
  119loPI    C1 1889  17.314   8.495  11.247  0.0531 -0.0658 -0.1388
  119loPI    C2 1890  17.198   8.853  11.382  0.3165 -0.0571  0.0735
  119loPI    C3 1891  17.123   8.525  11.598  0.1096 -0.1283 -0.1024
  119loPI   PO4 1892  17.308   8.543  10.968  0.0605  0.1638 -0.0664
  119loPI   GL1 1893  17.134   8.632  10.570 -0.1713 -0.0583 -0.0778
  119loPI   GL2 1894  17.102   8.399  10.558 -0.1015 -0.0078 -0.0295
  119loPI   C1A 1895  16.929   8.843  10.133  0.1339  0.1203  0.0921
  119loPI   C2A 1896  16.892   8.942   9.772  0.4218 -0.3608  0.1044
  119loPI   C3A 1897  16.922   8.884   9.349 -0.1689 -0.1117 -0.0969
  119loPI   C4A 1898  17.025   8.944   8.909 -0.2100 -0.0477  0.0359
  119loPI   C5A 1899  16.944   8.864   8.539  0.0198 -0.1004  0.2168
  119loPI   C6A 1900  16.858   8.703   8.219  0.2163 -0.2345  0.1653
  119loPI   C1B 1901  17.285   8.323  10.132 -0.1775  0.3044 -0.0292
  119loPI   C2B 1902  17.157   8.521   9.671 -0.4202 -0.0219  0.0458
  119loPI   C3B 1903  17.165   8.455   9.197  0.2948  0.0880 -0.1275
  119loPI   C4B 1904  17.016   8.428   8.758  0.0032  0.1564  0.2615
  120loPI    C1 1905  10.276  17.442  11.275  0.1227 -0.0898  0.1075
  120loPI    C2 1906  10.305  17.125  11.516 -0.3639 -0.0506  0.2270
  120loPI    C3 1907  10.149  17.467  11.653 -0.1498  0.1395  0.0047
  120loPI   PO4 1908  10.347  17.319  11.082  0.2231 -0.3904 -0.1269
  120loPI   GL1 1909  10.582  17.376  10.716 -0.0683  0.0812  0.2271
  120loPI   GL2 1910  10.328  17.322  10.444  0.1241 -0.2340 -0.0743
  120loPI   C1A 1911  10.778  17.379  10.267  0.2987  0.3544  0.0166
  120loPI   C2A 1912  10.910  17.321   9.855 -0.3718 -0.2156  0.0416
  120loPI   C3A 1913  10.822  17.285   9.486  0.2348 -0.2382 -0.4390
  120loPI   C4A 1914  10.865  17.328   8.998  0.0925 -0.0272 -0.0671
  120loPI   C5A 1915  10.767  17.261   8.588 -0.1606  0.0879 -0.1051
  120loPI   C6A 1916  10.865  17.211   8.107  0.1574  0.0514  0.0575
  120loPI   C1B 1917  10.279  17.305   9.994 -0.0348 -0.0577  0.1507
  120loPI   C2B 1918  10.368  17.182   9.550  0.1201 -0.1259  0.1776
  120loPI   C3B 1919  10.351  17.231   9.085  0.1169 -0.2027  0.2813
  120loPI   C4B 1920  10.232  17.137   8.706  0.0006  0.3077 -0.0052
  121loPI    C1 1921  12.132   0.307  11.130 -0.0791  0.0112 -0.0880
  121loPI    C2 1922  12.480   0.480  11.037  0.0294 -0.1920 -0.0642
  121loPI    C3 1923  12.239   0.650  11.307  0.2029 -0.1543  0.0689
  121loPI   PO4 1924  12.177   0.029  11.085  0.2758  0.0124 -0.0250
  121loPI   GL1 1925  12.257  -0.202  10.704 -0.1366  0.0922 -0.1538
  121loPI   GL2 1926  11.965  -0.241  10.496  0.0667  0.2323  0.1569
  121loPI   C1A 1927  12.427  -0.281  10.240 -0.2002 -0.2362  0.0890
  121loPI   C2A 1928  12.334  -0.320   9.836 -0.3463  0.1969  0.1007
  121loPI   C3A 1929  12.363  -0.340   9.425  0.4262  0.1507  0.0195
  121loPI   C4A 1930  12.373  -0.353   8.961 -0.0698  0.0850 -0.0909
  121loPI   C5A 1931  12.583  -0.303   8.550 -0.1299  0.0167 -0.0372
  121loPI   C6A 1932  12.796  -0.472   8.125 -0.1077 -0.0199  0.1761
  121loPI   C1B 1933  11.905  -0.343  10.117  0.0414 -0.3823  0.2857
  121loPI   C2B 1934  11.840  -0.375   9.736 -0.1009 -0.0525  0.0151
  121loPI   C3B 1935  11.840  -0.426   9.277  0.3080 -0.1829  0.0260
  121loPI   C4B 1936  11.807  -0.280   8.798 -0.1243  0.3210 -0.1822
  122loPI    C1 1937   3.040   8.691  10.806 -0.0055 -0.0533 -0.0378
  122loPI    C2 1938   2.700   8.546  10.960 -0.0534 -0.0260 -0.1167
  122loPI    C3 1939   2.962   8.735  11.196 -0.0946 -0.0437 -0.0563
  122loPI   PO4 1940   3.035   8.584  10.592 -0.2533 -0.0667 -0.2859
  122loPI   GL1 1941   2.867   8.429  10.291  0.1674  0.0184 -0.0507
  122loPI   GL2 1942   2.547   8.354  10.353 -0.0259 -0.2976 -0.1426
  122loPI   C1A 1943   3.011   8.280   9.897  0.1845 -0.0333 -0.0470
  122loPI   C2A 1944   2.941   8.336   9.473 -0.1567  0.2356 -0.0109
  122loPI   C3A 1945   2.802   8.237   9.074  0.0262 -0.1027 -0.5842
  122loPI   C4A 1946   2.732   8.244   8.627 -0.1406 -0.2176 -0.0611
  122loPI   C5A 1947   2.558   8.271   8.200  0.1156  0.2802  0.1084
  122loPI   C6A 1948   2.344   8.443   7.835 -0.2451 -0.0587  0.3304
  122loPI   C1B 1949   2.468   8.237   9.895 -0.0513  0.1495  0.2417
  122loPI   C2B 1950   2.426   8.246   9.423  0.2212  0.3112 -0.1205
  122loPI   C3B 1951   2.296   8.192   9.012 -0.3711 -0.2389  0.3011
  122loPI   C4B 1952   2.230   8.365   8.512 -0.1432  0.0774 -0.2198
  123loPI    C1 1953   8.496   5.487  10.933 -0.0223 -0.1521 -0.1419
  123loPI    C2 1954   8.183   5.322  11.119  0.0004 -0.1900 -0.1371
  123loPI    C3 1955   8.511   5.417  11.326 -0.0441 -0.0621 -0.1248
  123loPI   PO4 1956   8.521   5.402  10.773  0.1604  0.0414 -0.1704
  123loPI   GL1 1957   8.538   5.606  10.424  0.2055 -0.1251  0.2008
  123loPI   GL2 1958   8.348   5.906  10.624  0.0676  0.2204 -0.2201
  123loPI   C1A 1959   8.640   5.691   9.959 -0.0860 -0.0565  0.2913
  123loPI   C2A 1960   8.642   5.668   9.587 -0.0198 -0.0110 -0.3452
  123loPI   C3A 1961   8.676   5.675   9.106  0.2616 -0.0913  0.4352
  123loPI   C4A 1962   8.776   5.566   8.781 -0.1752  0.0181  0.1612
  123loPI   C5A 1963   8.823   5.682   8.423 -0.0728 -0.0457 -0.2897
  123loPI   C6A 1964   8.924   5.803   7.990 -0.3759 -0.0220 -0.0059
  123loPI   C1B 1965   8.323   6.138  10.186  0.0602 -0.1015  0.1115
  123loPI   C2B 1966   8.414   6.099   9.745  0.2301 -0.1813 -0.2969
  123loPI   C3B 1967   8.339   6.179   9.287 -0.1106  0.2098 -0.0342
  123loPI   C4B 1968   8.389   6.174   8.861  0.0600 -0.0228 -0.0631
  124loPI    C1 1969   9.375   9.756  11.264 -0.1941  0.2234  0.1019
  124loPI    C2 1970   9.530   9.985  11.553  0.1858  0.0673  0.0272
  124loPI    C3 1971   9.205   9.764  11.626  0.1422  0.2058  0.2643
  124loPI   PO4 1972   9.331   9.884  11.080 -0.1057  0.1026 -0.0843
  124loPI   GL1 1973   9.441   9.780  10.715 -0.0990  0.0519 -0.2535
  124loPI   GL2 1974   9.551   9.541  10.814  0.0184 -0.4059 -0.0141
  124loPI   C1A 1975   9.528   9.744  10.272 -0.1290 -0.2077 -0.2063
  124loPI   C2A 1976   9.499   9.797   9.852  0.2738  0.0089  0.0041
  124loPI   C3A 1977   9.480   9.878   9.423  0.0668 -0.1983  0.2241
  124loPI   C4A 1978   9.440   9.875   8.939 -0.0347  0.3088  0.2316
  124loPI   C5A 1979   9.393   9.876   8.478  0.1791 -0.3093 -0.1493
  124loPI   C6A 1980   9.113  10.105   8.173  0.1104 -0.2103  0.1712
  124loPI   C1B 1981   9.355   9.281  10.417 -0.2104 -0.0777 -0.0134
  124loPI   C2B 1982   9.300   9.309  10.074 -0.3347  0.1246 -0.0601
  124loPI   C3B 1983   9.358   9.335   9.668  0.2113  0.3710  0.0677
  124loPI   C4B 1984   9.289   9.371   9.249 -0.1677 -0.1979 -0.1357
  125loPI    C1 1985  14.641  14.822  11.074 -0.1098 -0.0667 -0.0684
  125loPI    C2 1986  14.309  14.694  11.258 -0.0825  0.2014  0.1748
  125loPI    C3 1987  14.589  14.892  11.465  0.1066  0.2122 -0.0859
  125loPI   PO4 1988  14.568  14.951  10.801  0.0544  0.2353 -0.1255
  125loPI   GL1 1989  14.725  15.207  10.541  0.1450  0.1944  0.0684
  125loPI   GL2 1990  14.865  15.495  10.437 -0.0166  0.0197  0.0077
  125loPI   C1A 1991  14.738  15.082  10.155  0.0434  0.0655  0.0201
  125loPI   C2A 1992  14.751  15.040   9.786  0.1113  0.0787  0.1970
  125loPI   C3A 1993  14.662  14.941   9.355  0.0345 -0.0309 -0.0484
  125loPI   C4A 1994  14.594  14.998   8.920 -0.0058 -0.0859 -0.1652
  125loPI   C5A 1995  14.593  14.857   8.467  0.0613 -0.1643 -0.1885
  125loPI   C6A 1996  14.501  14.887   8.009 -0.2253  0.0307 -0.1688
  125loPI   C1B 1997  14.913  15.523  10.036  0.3108  0.3187  0.0574
  125loPI   C2B 1998  14.863  15.462   9.578 -0.1215 -0.0781  0.1743
  125loPI   C3B 1999  14.892  15.423   9.139 -0.1472 -0.0918  0.0711
  125loPI   C4B 2000  14.743  15.498   8.717 -0.0874  0.0036 -0.1800
  126loPI    C1 2001   2.864  16.228  11.358  0.1084  0.1659  0.0435
  126loPI    C2 2002   2.540  16.344  11.562 -0.0587  0.0994 -0.1790
  126loPI    C3 2003   2.819  16.119  11.740 -0.3566 -0.2251 -0.1123
  126loPI   PO4 2004   2.781  16.236  11.144  0.1201 -0.0900 -0.5038
  126loPI   GL1 2005   2.757  16.111  10.718 -0.1509 -0.3006 -0.2047
  126loPI   GL2 2006   3.055  16.219  10.649  0.2678  0.0134  0.1992
  126loPI   C1A 2007   2.828  15.943  10.270 -0.2430 -0.0160  0.0259
  126loPI   C2A 2008   2.777  16.014   9.879  0.0869  0.1381  0.4738
  126loPI   C3A 2009   2.769  16.074   9.421 -0.2095 -0.2358  0.1508
  126loPI   C4A 2010   2.899  16.049   9.047 -0.3187  0.0256  0.0460
  126loPI   C5A 2011   2.999  16.169   8.689 -0.2454 -0.0985  0.2271
  126loPI   C6A 2012   3.179  16.513   8.499  0.0638  0.3464  0.1572
  126loPI   C1B 2013   3.024  16.431  10.236  0.0540 -0.2276 -0.3110
  126loPI   C2B 2014   3.022  16.467   9.737 -0.1079  0.1764  0.2360
  126loPI   C3B 2015   3.011  16.598   9.364 -0.0384  0.3185  0.1605
  126loPI   C4B 2016   3.148  16.538   9.027 -0.1518  0.2358 -0.1304
  127loPI    C1 2017  10.773   0.779  11.155  0.2431  0.1051 -0.2656
  127loPI    C2 2018  10.732   1.094  11.397 -0.1628 -0.0125 -0.1737
  127loPI    C3 2019  10.905   0.759  11.532 -0.0109  0.0640 -0.1767
  127loPI   PO4 2020  10.831   0.800  10.921  0.1037 -0.0630 -0.2962
  127loPI   GL1 2021  10.855   0.873  10.492  0.1315  0.0404 -0.2460
  127loPI   GL2 2022  11.101   0.753  10.517  0.2726  0.2734 -0.1437
  127loPI   C1A 2023  10.936   0.996  10.077 -0.1201 -0.1215 -0.4081
  127loPI   C2A 2024  10.990   0.973   9.646  0.0426 -0.0379 -0.1408
  127loPI   C3A 2025  10.921   0.885   9.188  0.0796  0.1531 -0.0655
  127loPI   C4A 2026  10.869   0.991   8.726  0.1662 -0.2818  0.1438
  127loPI   C5A 2027  10.736   0.828   8.312 -0.1003 -0.2424 -0.1044
  127loPI   C6A 2028  10.715   0.683   7.887 -0.0276  0.1554  0.1029
  127loPI   C1B 2029  11.238   0.516  10.079  0.1109  0.0941 -0.0820
  127loPI   C2B 2030  11.305   0.488   9.577  0.0591  0.1099  0.1324
  127loPI   C3B 2031  11.303   0.521   9.089  0.1471  0.2250  0.0139
  127loPI   C4B 2032  11.248   0.655   8.654 -0.1077 -0.3484  0.2709
  128loPI    C1 2033   2.589   3.187  11.195  0.2330 -0.1192  0.1635
  128loPI    C2 2034   2.713   3.419  11.496  0.0724  0.0606  0.0931
  128loPI    C3 2035   2.645   3.029  11.558  0.0909  0.0858  0.2762
  128loPI   PO4 2036   2.567   3.371  10.976  0.0779 -0.0915  0.1481
  128loPI   GL1 2037   2.621   3.245  10.610 -0.0046 -0.0998 -0.1717
  128loPI   GL2 2038   2.922   3.287  10.545  0.0478  0.3731  0.0438
  128loPI   C1A 2039   2.547   3.221  10.219 -0.0117  0.1373  0.1677
  128loPI   C2A 2040   2.615   3.268   9.774  0.0291 -0.2268  0.0746
  128loPI   C3A 2041   2.571   3.215   9.321 -0.2343 -0.0201 -0.1533
  128loPI   C4A 2042   2.586   3.325   8.925  0.0241  0.0927 -0.0922
  128loPI   C5A 2043   2.743   3.261   8.545  0.0666 -0.0728 -0.3959
  128loPI   C6A 2044   2.759   3.108   8.167  0.1182 -0.0221  0.0462
  128loPI   C1B 2045   3.047   3.402  10.123 -0.2904 -0.0680 -0.0639
  128loPI   C2B 2046   3.124   3.283   9.702  0.0453  0.1995  0.1408
  128loPI   C3B 2047   3.077   3.312   9.253  0.0068  0.1591 -0.3485
  128loPI   C4B 2048   3.140   3.215   8.864 -0.0946 -0.0298  0.1058
  129loPI    C1 2049   7.355  10.060  11.429 -0.0069 -0.0171 -0.1116
  129loPI    C2 2050   7.381   9.760  11.691  0.0862  0.0128 -0.0861
  129loPI    C3 2051   7.303  10.130  11.819 -0.4805 -0.0732 -0.1595
  129loPI   PO4 2052   7.501  10.044  11.268  0.0918  0.1246  0.1175
  129loPI   GL1 2053   7.497  10.174  10.851  0.0471  0.4174  0.3508
  129loPI   GL2 2054   7.588  10.463  10.664  0.1303  0.1876  0.0076
  129loPI   C1A 2055   7.810  10.093  10.455  0.0881  0.3789  0.0230
  129loPI   C2A 2056   7.717   9.997   9.991 -0.1961 -0.3824 -0.4018
  129loPI   C3A 2057   7.707  10.160   9.582 -0.1659  0.0410 -0.3724
  129loPI   C4A 2058   7.622  10.092   9.204 -0.0409  0.4327  0.1980
  129loPI   C5A 2059   7.583  10.189   8.719 -0.0564 -0.1911 -0.0075
  129loPI   C6A 2060   7.382   9.884   8.362  0.0934  0.0567 -0.0699
  129loPI   C1B 2061   7.498  10.494  10.285  0.0190 -0.0855 -0.1108
  129loPI   C2B 2062   7.401  10.555   9.786 -0.2681  0.1161 -0.2052
  129loPI   C3B 2063   7.368  10.500   9.332  0.1262  0.0405 -0.0769
  129loPI   C4B 2064   7.269  10.544   8.831  0.1658  0.1682  0.2568
  130loPI    C1 2065  13.789  14.247  11.401 -0.1776 -0.0219  0.0058
  130loPI    C2 2066  13.837  14.633  11.307 -0.1320 -0.0706 -0.1764
  130loPI    C3 2067  13.841  14.518  11.690 -0.0119  0.0916 -0.1279
  130loPI   PO4 2068  13.564  14.192  11.214  0.1793 -0.3026  0.0332
  130loPI   GL1 2069  13.498  14.077  10.821  0.1007  0.0055  0.0912
  130loPI   GL2 2070  13.390  14.304  10.492 -0.2241 -0.0247 -0.1107
  130loPI   C1A 2071  13.774  13.979  10.516  0.1069 -0.0229 -0.0268
  130loPI   C2A 2072  13.833  13.855  10.067 -0.0656 -0.3054  0.3030
  130loPI   C3A 2073  13.776  13.919   9.645  0.1005 -0.1745  0.1510
  130loPI   C4A 2074  13.736  13.984   9.180  0.2058 -0.0791 -0.2320
  130loPI   C5A 2075  13.719  13.863   8.816  0.1043 -0.2446 -0.0711
  130loPI   C6A 2076  13.861  14.063   8.392  0.1923  0.4020  0.0078
  130loPI   C1B 2077  13.436  14.340  10.105  0.0366 -0.0957 -0.1535
  130loPI   C2B 2078  13.435  14.337   9.749  0.2674 -0.0825  0.1731
  130loPI   C3B 2079  13.398  14.297   9.357  0.2071 -0.3191 -0.0497
  130loPI   C4B 2080  13.401  14.375   8.981  0.1856 -0.1303  0.1364
  131loPI    C1 2081   1.560   5.231  11.499  0.0783  0.0885  0.1122
  131loPI    C2 2082   1.248   4.981  11.480  0.1830 -0.0511  0.2016
  131loPI    C3 2083   1.356   5.138  11.831  0.3886 -0.2298  0.2204
  131loPI   PO4 2084   1.600   5.144  11.145  0.0364  0.1326  0.1094
  131loPI   GL1 2085   1.738   4.934  10.719 -0.1755  0.0257  0.0449
  131loPI   GL2 2086   1.630   5.210  10.660 -0.1721 -0.0891 -0.3572
  131loPI   C1A 2087   1.923   5.021  10.249  0.0413  0.1788 -0.0438
  131loPI   C2A 2088   1.873   5.061   9.814 -0.2835  0.2409 -0.3186
  131loPI   C3A 2089   1.932   5.011   9.374  0.0177 -0.0778  0.0726
  131loPI   C4A 2090   1.833   5.073   9.043  0.2536  0.2609  0.0963
  131loPI   C5A 2091   1.788   4.967   8.666 -0.2521  0.0149 -0.0298
  131loPI   C6A 2092   1.556   5.155   8.308  0.0010  0.3237  0.1851
  131loPI   C1B 2093   1.575   5.378  10.211 -0.0150 -0.0252 -0.1417
  131loPI   C2B 2094   1.638   5.422   9.725 -0.2311 -0.0465  0.0396
  131loPI   C3B 2095   1.592   5.456   9.278  0.1346 -0.1035 -0.0778
  131loPI   C4B 2096   1.427   5.280   8.821  0.1675 -0.0181 -0.1236
  132loPI    C1 2097   7.209  10.904  11.425 -0.3095 -0.1542 -0.0476
  132loPI    C2 2098   7.368  11.000  11.779  0.0398 -0.0358 -0.2315
  132loPI    C3 2099   6.992  11.105  11.694 -0.1541 -0.3349  0.2177
  132loPI   PO4 2100   7.426  10.982  11.284  0.0773  0.1816  0.2077
  132loPI   GL1 2101   7.506  11.055  10.897 -0.1264 -0.0469  0.0660
  132loPI   GL2 2102   7.293  10.867  10.830 -0.0149 -0.1575  0.1417
  132loPI   C1A 2103   7.623  11.019  10.389 -0.1787 -0.1169  0.1646
  132loPI   C2A 2104   7.786  10.887  10.000  0.1084 -0.2809 -0.0952
  132loPI   C3A 2105   7.609  10.994   9.697 -0.0813  0.0090 -0.0056
  132loPI   C4A 2106   7.559  10.995   9.321  0.1967  0.2879  0.0886
  132loPI   C5A 2107   7.440  11.158   8.937 -0.1630  0.3315 -0.1030
  132loPI   C6A 2108   7.489  11.108   8.518  0.0181 -0.2357 -0.1151
  132loPI   C1B 2109   7.133  10.891  10.466  0.1529 -0.0530  0.0213
  132loPI   C2B 2110   7.216  10.965   9.964  0.0515  0.0319  0.0259
  132loPI   C3B 2111   7.101  10.950   9.533  0.0623 -0.0441 -0.3231
  132loPI   C4B 2112   7.051  10.903   9.115  0.2187  0.1549  0.2235
  133loPI    C1 2113   4.344  16.330  10.999  0.2356 -0.0908  0.0527
  133loPI    C2 2114   4.143  16.201  11.320  0.2131  0.1830  0.1514
  133loPI    C3 2115   4.077  16.568  11.177  0.0326 -0.0275 -0.3262
  133loPI   PO4 2116   4.324  16.142  10.813  0.0220 -0.1721 -0.1204
  133loPI   GL1 2117   4.362  16.139  10.489  0.1244  0.1880 -0.0058
  133loPI   GL2 2118   4.008  16.096  10.345  0.1228  0.3353  0.1289
  133loPI   C1A 2119   4.424  16.191  10.030  0.0911 -0.0030  0.0713
  133loPI   C2A 2120   4.411  16.085   9.603  0.0409 -0.2165 -0.2361
  133loPI   C3A 2121   4.393  16.132   9.193 -0.0089 -0.0361 -0.4595
  133loPI   C4A 2122   4.429  16.100   8.797  0.1176 -0.1719 -0.0199
  133loPI   C5A 2123   4.441  15.873   8.446 -0.0091  0.0683 -0.2571
  133loPI   C6A 2124   4.489  15.611   8.083  0.2087  0.2996  0.3456
  133loPI   C1B 2125   3.892  16.056   9.840  0.2903  0.1466 -0.0065
  133loPI   C2B 2126   3.950  16.012   9.375  0.1714 -0.1974 -0.3233
  133loPI   C3B 2127   3.976  16.089   8.925 -0.1233 -0.2567 -0.5078
  133loPI   C4B 2128   3.940  16.087   8.515 -0.0984 -0.1867 -0.2765
  134loPI    C1 2129   9.976   2.876  11.107 -0.1109 -0.2090  0.0036
  134loPI    C2 2130   9.807   2.589  11.328  0.1716 -0.2189  0.2128
  134loPI    C3 2131   9.987   2.898  11.506  0.0372 -0.0091 -0.0099
  134loPI   PO4 2132  10.077   2.776  10.824  0.3198  0.1252 -0.1257
  134loPI   GL1 2133  10.370   2.555  10.589  0.0661 -0.1064 -0.0165
  134loPI   GL2 2134  10.465   2.933  10.595 -0.0309 -0.1907 -0.0618
  134loPI   C1A 2135  10.374   2.644  10.193 -0.0062 -0.1350  0.2404
  134loPI   C2A 2136  10.319   2.683   9.815 -0.1642  0.2333  0.0416
  134loPI   C3A 2137  10.293   2.682   9.361 -0.2573  0.0341  0.1247
  134loPI   C4A 2138  10.313   2.718   8.886  0.1906 -0.2199  0.2785
  134loPI   C5A 2139  10.063   2.675   8.484  0.0901  0.4118  0.0517
  134loPI   C6A 2140   9.604   2.681   8.409  0.1392 -0.0805  0.3439
  134loPI   C1B 2141  10.505   3.191  10.224  0.0642 -0.0066  0.0381
  134loPI   C2B 2142  10.496   3.216   9.748  0.0341 -0.1342  0.0506
  134loPI   C3B 2143  10.431   3.184   9.421  0.2223 -0.0424  0.0988
  134loPI   C4B 2144  10.393   3.185   8.981 -0.0985 -0.2317 -0.0879
  135loPI    C1 2145  12.106   4.094  11.303  0.0132 -0.0173  0.0418
  135loPI    C2 2146  12.146   3.698  11.348 -0.0043 -0.0359 -0.1027
  135loPI    C3 2147  12.253   3.945  11.644  0.0403 -0.1469 -0.0258
  135loPI   PO4 2148  12.008   4.086  11.042  0.1154 -0.3369  0.3600
  135loPI   GL1 2149  11.918   4.471  10.738  0.2938  0.3427 -0.0952
  135loPI   GL2 2150  11.777   4.100  10.584 -0.0794 -0.0731 -0.1054
  135loPI   C1A 2151  11.782   4.639  10.381 -0.0908 -0.0040  0.2055
  135loPI   C2A 2152  11.648   4.639  10.029  0.0610  0.0310  0.2259
  135loPI   C3A 2153  11.534   4.674   9.542 -0.0605  0.2840  0.0770
  135loPI   C4A 2154  11.568   4.589   9.104 -0.3658  0.2021 -0.0563
  135loPI   C5A 2155  11.594   4.549   8.616 -0.3256  0.1708  0.0925
  135loPI   C6A 2156  11.277   4.897   8.398  0.0875  0.3800  0.1109
  135loPI   C1B 2157  11.870   4.162  10.203  0.0183 -0.0064 -0.2015
  135loPI   C2B 2158  11.787   4.275   9.724 -0.0257  0.0244 -0.2292
  135loPI   C3B 2159  11.782   4.152   9.325  0.1155 -0.0220 -0.0773
  135loPI   C4B 2160  11.843   4.142   8.825 -0.5256 -0.1248 -0.2220
  136loPI    C1 2161   0.645  12.441  11.350  0.2540  0.0179 -0.0236
  136loPI    C2 2162   0.353  12.696  11.449  0.1852 -0.0891  0.0510
  136loPI    C3 2163   0.729  12.767  11.566  0.1341 -0.1221  0.2387
  136loPI   PO4 2164   0.470  12.344  11.132  0.0866  0.0158  0.1139
  136loPI   GL1 2165   0.442  12.236  10.733  0.0076 -0.1250  0.0054
  136loPI   GL2 2166   0.236  12.169  10.462  0.3275 -0.0715  0.0693
  136loPI   C1A 2167   0.775  12.211  10.428 -0.2759  0.2490  0.2674
  136loPI   C2A 2168   0.711  12.273   9.944  0.0357  0.3471 -0.0289
  136loPI   C3A 2169   0.629  12.152   9.615 -0.0520 -0.0879 -0.1090
  136loPI   C4A 2170   0.567  12.224   9.190  0.0211  0.2462 -0.0437
  136loPI   C5A 2171   0.627  12.219   8.738 -0.1806 -0.0595  0.3593
  136loPI   C6A 2172   0.873  12.497   8.528 -0.2788 -0.0316  0.2567
  136loPI   C1B 2173   0.240  12.150   9.965 -0.0519  0.3387  0.2344
  136loPI   C2B 2174   0.137  12.187   9.558 -0.0986 -0.3107 -0.0529
  136loPI   C3B 2175   0.000  12.171   9.099  0.2358  0.2485 -0.4348
  136loPI   C4B 2176   0.079  12.113   8.644 -0.1237  0.4102 -0.3195
  137loPI    C1 2177   4.287  14.843  11.164 -0.0673 -0.0857  0.0710
  137loPI    C2 2178   4.432  14.830  11.537  0.1318 -0.0210 -0.0031
  137loPI    C3 2179   4.485  15.157  11.313 -0.0097 -0.0499 -0.0799
  137loPI   PO4 2180   4.186  14.624  11.119 -0.3133 -0.1232  0.0129
  137loPI   GL1 2181   4.153  14.559  10.769 -0.0547  0.0630 -0.0476
  137loPI   GL2 2182   4.303  14.796  10.591  0.0710 -0.1815 -0.1395
  137loPI   C1A 2183   4.081  14.358  10.411  0.0848 -0.2462  0.1600
  137loPI   C2A 2184   4.036  14.316   9.874 -0.2175 -0.1147  0.1335
  137loPI   C3A 2185   4.106  14.307   9.514 -0.0483 -0.2159  0.1893
  137loPI   C4A 2186   4.128  14.297   9.039  0.0469 -0.1383  0.1402
  137loPI   C5A 2187   4.220  14.342   8.672  0.1012  0.0391 -0.3070
  137loPI   C6A 2188   4.261  14.683   8.473  0.0008  0.1063 -0.1636
  137loPI   C1B 2189   4.286  14.849  10.199  0.1825 -0.0320 -0.0271
  137loPI   C2B 2190   4.258  14.775   9.814  0.0994 -0.2734  0.3406
  137loPI   C3B 2191   4.351  14.683   9.385  0.1435 -0.1830  0.1165
  137loPI   C4B 2192   4.319  14.752   8.989  0.0074  0.1191 -0.2144
  138loPI    C1 2193   2.395  12.856  11.387  0.1349  0.0451  0.0131
  138loPI    C2 2194   2.416  12.519  11.172  0.1127 -0.0053  0.0894
  138loPI    C3 2195   2.526  12.518  11.557  0.1730  0.0896  0.0729
  138loPI   PO4 2196   2.409  13.060  11.216  0.0145  0.1847  0.2945
  138loPI   GL1 2197   2.238  13.105  10.791 -0.0812  0.0041 -0.0599
  138loPI   GL2 2198   2.286  12.808  10.758 -0.0196 -0.1742  0.0062
  138loPI   C1A 2199   2.120  13.290  10.418 -0.1342 -0.1406 -0.1017
  138loPI   C2A 2200   2.072  13.336  10.067  0.0875  0.2602  0.1905
  138loPI   C3A 2201   2.060  13.209   9.579  0.0641  0.2474  0.0177
  138loPI   C4A 2202   2.002  13.191   9.172 -0.0389 -0.1617 -0.3205
  138loPI   C5A 2203   2.221  13.266   8.723 -0.2051 -0.0895 -0.0875
  138loPI   C6A 2204   2.429  13.474   8.458 -0.0050  0.2203  0.0381
  138loPI   C1B 2205   2.240  12.474  10.424 -0.5187  0.1483 -0.0622
  138loPI   C2B 2206   2.146  12.361   9.995  0.1469 -0.2381  0.0831
  138loPI   C3B 2207   2.127  12.344   9.546  0.1381  0.0868 -0.3987
  138loPI   C4B 2208   2.134  12.405   9.060 -0.0672  0.1341  0.0191
  139loPI    C1 2209   7.679  13.686  11.164 -0.1002 -0.2232  0.0765
  139loPI    C2 2210   7.673  13.619  11.558 -0.0139 -0.0035  0.1170
  139loPI    C3 2211   7.369  13.811  11.383  0.0250  0.0458  0.1037
  139loPI   PO4 2212   7.756  13.545  10.978  0.1222  0.0402 -0.2772
  139loPI   GL1 2213   7.994  13.511  10.613 -0.1516  0.1433 -0.1258
  139loPI   GL2 2214   8.320  13.626  10.533 -0.2835 -0.1266  0.0756
  139loPI   C1A 2215   7.800  13.763  10.249  0.0064  0.0945  0.1996
  139loPI   C2A 2216   7.877  13.725   9.931  0.0118  0.0251 -0.1042
  139loPI   C3A 2217   7.817  13.701   9.493  0.0842 -0.1148 -0.3179
  139loPI   C4A 2218   7.770  13.725   9.082 -0.0802 -0.0936 -0.1291
  139loPI   C5A 2219   7.619  13.784   8.738  0.2630  0.0251 -0.1569
  139loPI   C6A 2220   7.316  13.783   8.322  0.0513 -0.0933 -0.2744
  139loPI   C1B 2221   8.385  13.770  10.098  0.1818 -0.3290 -0.2816
  139loPI   C2B 2222   8.345  13.754   9.660  0.2194  0.0716  0.1299
  139loPI   C3B 2223   8.370  13.780   9.175  0.0439  0.0315  0.1524
  139loPI   C4B 2224   8.214  13.791   8.850  0.1713 -0.0321 -0.0871
  140loPI    C1 2225   7.818   2.351  11.085 -0.1767 -0.3252 -0.0887
  140loPI    C2 2226   7.947   2.544  11.410 -0.0239 -0.1785 -0.2348
  140loPI    C3 2227   7.563   2.437  11.381 -0.0755 -0.0391 -0.0818
  140loPI   PO4 2228   8.018   2.406  10.905  0.0320  0.1073 -0.0895
  140loPI   GL1 2229   8.197   2.494  10.511  0.1976 -0.0610 -0.0387
  140loPI   GL2 2230   8.220   2.870  10.571 -0.1008 -0.1785  0.0708
  140loPI   C1A 2231   8.218   2.505  10.038 -0.2828  0.1781 -0.0517
  140loPI   C2A 2232   8.184   2.526   9.564 -0.0978  0.3278  0.0102
  140loPI   C3A 2233   8.176   2.455   9.124  0.1502  0.2330 -0.0132
  140loPI   C4A 2234   8.282   2.442   8.667  0.1874 -0.0321 -0.1506
  140loPI   C5A 2235   8.298   2.242   8.282 -0.3049 -0.0008 -0.0739
  140loPI   C6A 2236   8.050   2.362   7.773  0.0292 -0.0411 -0.0282
  140loPI   C1B 2237   8.348   2.981  10.146 -0.2494  0.3153 -0.3442
  140loPI   C2B 2238   8.436   3.001   9.730 -0.0069  0.0276 -0.0667
  140loPI   C3B 2239   8.320   2.979   9.351  0.0097 -0.1308  0.1705
  140loPI   C4B 2240   8.342   2.909   8.900  0.2126 -0.1131 -0.0829
  141loPI    C1 2241  15.559  16.963  11.376  0.0867 -0.0815 -0.0247
  141loPI    C2 2242  15.637  16.715  11.681  0.0804 -0.1016 -0.0392
  141loPI    C3 2243  15.700  17.108  11.721  0.1339 -0.1108 -0.0315
  141loPI   PO4 2244  15.642  16.915  11.178  0.0305  0.2128  0.1046
  141loPI   GL1 2245  15.567  16.959  10.739  0.3789  0.2359  0.2044
  141loPI   GL2 2246  15.253  16.912  10.598  0.0449  0.3046 -0.0632
  141loPI   C1A 2247  15.612  16.894  10.285 -0.3307 -0.0273  0.1890
  141loPI   C2A 2248  15.595  16.837   9.789  0.0282 -0.1053 -0.0367
  141loPI   C3A 2249  15.456  16.833   9.371  0.3533  0.1866  0.2137
  141loPI   C4A 2250  15.498  16.863   8.967  0.0528  0.1790 -0.1168
  141loPI   C5A 2251  15.430  16.820   8.446 -0.0085  0.1099 -0.1258
  141loPI   C6A 2252  15.241  16.700   8.060 -0.2238 -0.3144 -0.2957
  141loPI   C1B 2253  15.108  16.806  10.151  0.1861  0.0085  0.1486
  141loPI   C2B 2254  15.013  16.804   9.689  0.0900 -0.0473  0.1209
  141loPI   C3B 2255  14.965  16.821   9.212  0.0227  0.2052  0.1535
  141loPI   C4B 2256  15.007  16.942   8.697  0.0506  0.3332 -0.2138
  142loPI    C1 2257  15.009   3.908  11.019 -0.2865  0.0791 -0.0170
  142loPI    C2 2258  15.063   3.985  11.408 -0.0622 -0.1012 -0.0107
  142loPI    C3 2259  14.844   3.670  11.295 -0.2184  0.0139 -0.0328
  142loPI   PO4 2260  15.221   3.929  10.857  0.0863 -0.0086  0.0305
  142loPI   GL1 2261  15.085   3.939  10.449 -0.1243  0.3585  0.0450
  142loPI   GL2 2262  14.867   3.822  10.545 -0.3309  0.2381  0.1315
  142loPI   C1A 2263  15.185   3.682  10.161  0.0414  0.1124 -0.1730
  142loPI   C2A 2264  15.099   3.637   9.767 -0.1695  0.0981 -0.0570
  142loPI   C3A 2265  15.123   3.605   9.341 -0.2431 -0.0481 -0.0711
  142loPI   C4A 2266  14.984   3.627   8.910  0.0887 -0.2744  0.2712
  142loPI   C5A 2267  14.856   3.590   8.529  0.4146 -0.1113 -0.2000
  142loPI   C6A 2268  14.758   3.862   8.104 -0.3552 -0.0133 -0.1238
  142loPI   C1B 2269  14.720   3.605  10.113  0.1276  0.1756 -0.0045
  142loPI   C2B 2270  14.617   3.548   9.728  0.0196 -0.1047  0.2033
  142loPI   C3B 2271  14.550   3.639   9.302 -0.0004  0.1439  0.1181
  142loPI   C4B 2272  14.487   3.583   8.898 -0.0652  0.2506 -0.0161
  143loPI    C1 2273  10.711  13.785  11.276 -0.0272  0.1474  0.2366
  143loPI    C2 2274  10.590  13.404  11.270 -0.1722  0.1940  0.1386
  143loPI    C3 2275  10.897  13.513  11.502 -0.2544  0.0544  0.3152
  143loPI   PO4 2276  10.687  13.877  11.090 -0.2040 -0.2949  0.2554
  143loPI   GL1 2277  10.519  14.078  10.701 -0.2482  0.0160  0.0756
  143loPI   GL2 2278  10.214  13.875  10.614  0.0803 -0.2253 -0.0400
  143loPI   C1A 2279  10.455  14.090  10.175  0.2974 -0.3668  0.0277
  143loPI   C2A 2280  10.403  14.034   9.690 -0.2680  0.2118  0.1959
  143loPI   C3A 2281  10.469  14.094   9.292  0.1018  0.1476 -0.3508
  143loPI   C4A 2282  10.464  14.111   8.893  0.2638  0.2373  0.0310
  143loPI   C5A 2283  10.627  14.256   8.610 -0.4106 -0.2346  0.0091
  143loPI   C6A 2284  10.559  14.229   8.171  0.0643  0.0371  0.2845
  143loPI   C1B 2285  10.262  13.592  10.257  0.0154 -0.2043  0.2146
  143loPI   C2B 2286  10.262  13.551   9.798 -0.1211  0.2805  0.2262
  143loPI   C3B 2287  10.238  13.531   9.364  0.1368 -0.2106  0.0553
  143loPI   C4B 2288  10.337  13.648   8.929  0.0873  0.1779  0.2700
  144loPI    C1 2289  16.063  14.217  11.477  0.1123 -0.0095  0.0954
  144loPI    C2 2290  16.158  14.354  11.840  0.1411 -0.1620  0.1463
  144loPI    C3 2291  15.811  14.164  11.782  0.0960 -0.0589  0.0734
  144loPI   PO4 2292  16.179  14.413  11.260  0.1839  0.0635 -0.0684
  144loPI   GL1 2293  16.302  14.365  10.844 -0.3065 -0.0203  0.0828
  144loPI   GL2 2294  16.683  14.528  10.780  0.3869 -0.0295  0.1446
  144loPI   C1A 2295  16.369  14.256  10.439  0.0257 -0.0765  0.0363
  144loPI   C2A 2296  16.330  14.300  10.032  0.2316 -0.0095  0.0540
  144loPI   C3A 2297  16.319  14.340   9.648 -0.1396 -0.1985  0.1367
  144loPI   C4A 2298  16.300  14.274   9.288 -0.0685  0.3546  0.0838
  144loPI   C5A 2299  16.255  14.284   8.907  0.3132  0.2628  0.2863
  144loPI   C6A 2300  16.380  14.248   8.463 -0.1418  0.2153  0.0275
  144loPI   C1B 2301  16.618  14.662  10.287  0.1736 -0.1789  0.3215
  144loPI   C2B 2302  16.524  14.796   9.855  0.1439 -0.0038 -0.1028
  144loPI   C3B 2303  16.552  14.750   9.397 -0.3275  0.0828 -0.1503
  144loPI   C4B 2304  16.470  14.782   8.916 -0.0063  0.3722  0.0174
  145loPI    C1 2305  16.592   9.258  11.160  0.0899  0.0038  0.0814
  145loPI    C2 2306  16.743   8.931  11.334  0.1401  0.0529  0.1307
  145loPI    C3 2307  16.619   9.237  11.559  0.1187  0.0789  0.0836
  145loPI   PO4 2308  16.559   9.221  10.942 -0.4737  0.0779  0.1666
  145loPI   GL1 2309  16.738   9.424  10.685 -0.1030 -0.3774  0.2279
  145loPI   GL2 2310  16.814   9.222  10.445 -0.3885  0.0328 -0.0677
  145loPI   C1A 2311  16.827   9.684  10.212  0.3137 -0.1517  0.2082
  145loPI   C2A 2312  16.727   9.725   9.813 -0.3541  0.0853 -0.1179
  145loPI   C3A 2313  16.807   9.731   9.369  0.2223  0.4322  0.0386
  145loPI   C4A 2314  16.737   9.649   8.966 -0.2089  0.0624 -0.1390
  145loPI   C5A 2315  16.841   9.719   8.545  0.0112 -0.0735 -0.0217
  145loPI   C6A 2316  16.827   9.767   8.165  0.0349  0.2265 -0.0856
  145loPI   C1B 2317  16.621   9.223  10.064  0.3983 -0.2999  0.0745
  145loPI   C2B 2318  16.530   9.270   9.676 -0.3052  0.1546 -0.1485
  145loPI   C3B 2319  16.526   9.274   9.242 -0.2113  0.1212  0.1131
  145loPI   C4B 2320  16.609   9.225   8.778 -0.0635  0.2900 -0.1049
  146loPI    C1 2321   5.676  13.308  10.963  0.0481 -0.0837  0.0112
  146loPI    C2 2322   5.627  13.074  11.283  0.0431 -0.2006 -0.0747
  146loPI    C3 2323   5.884  13.379  11.297 -0.0789 -0.1039  0.0955
  146loPI   PO4 2324   5.638  13.146  10.796 -0.0912 -0.0981  0.1444
  146loPI   GL1 2325   5.842  12.688  10.484  0.1409 -0.0142 -0.2231
  146loPI   GL2 2326   5.531  12.602  10.579  0.0721 -0.2939  0.1637
  146loPI   C1A 2327   5.843  12.706   9.991 -0.1778  0.2013  0.0802
  146loPI   C2A 2328   5.875  12.716   9.701  0.0515 -0.2504  0.2356
  146loPI   C3A 2329   5.788  12.597   9.352 -0.3044 -0.0298  0.1089
  146loPI   C4A 2330   5.862  12.667   8.901 -0.0323 -0.0535 -0.0208
  146loPI   C5A 2331   5.867  12.892   8.429  0.0380 -0.0768 -0.2416
  146loPI   C6A 2332   5.526  12.965   8.208 -0.1340  0.0988 -0.5048
  146loPI   C1B 2333   5.393  12.588  10.128  0.2239 -0.0993  0.0109
  146loPI   C2B 2334   5.346  12.663   9.700  0.1281 -0.0914 -0.1625
  146loPI   C3B 2335   5.309  12.684   9.356  0.0159  0.0366 -0.1287
  146loPI   C4B 2336   5.355  12.599   8.966 -0.0326  0.0938 -0.1336
  147loPI    C1 2337   0.646  14.058  11.379  0.1557 -0.0047 -0.2261
  147loPI    C2 2338   0.552  14.397  11.570  0.3262  0.0480 -0.2347
  147loPI    C3 2339   0.717  14.093  11.771  0.1769 -0.0293 -0.2278
  147loPI   PO4 2340   0.709  14.160  11.141  0.1578  0.0227 -0.1827
  147loPI   GL1 2341   0.988  14.290  10.752 -0.0570 -0.0619 -0.0401
  147loPI   GL2 2342   0.759  14.530  10.783  0.2398 -0.2282  0.1282
  147loPI   C1A 2343   0.997  14.067  10.315 -0.3943 -0.1728 -0.2619
  147loPI   C2A 2344   0.892  13.998   9.849 -0.0436 -0.0191  0.1494
  147loPI   C3A 2345   0.886  13.971   9.418  0.2607  0.1274 -0.1894
  147loPI   C4A 2346   0.978  13.999   9.064  0.1532  0.2023 -0.4521
  147loPI   C5A 2347   0.975  13.865   8.575  0.0182 -0.1225 -0.1394
  147loPI   C6A 2348   0.690  13.609   8.311  0.1420  0.0058 -0.0472
  147loPI   C1B 2349   0.738  14.511  10.392 -0.3188  0.0663  0.0659
  147loPI   C2B 2350   0.654  14.454   9.882 -0.1189 -0.1634 -0.0465
  147loPI   C3B 2351   0.611  14.570   9.477 -0.0133  0.3435 -0.3045
  147loPI   C4B 2352   0.667  14.387   9.053  0.0933 -0.0135  0.3424
  148loPI    C1 2353  15.563  12.749  10.956  0.1159  0.0649 -0.0595
  148loPI    C2 2354  15.518  12.635  11.337 -0.1389  0.0397 -0.0954
  148loPI    C3 2355  15.795  12.906  11.241 -0.0528  0.0236  0.1031
  148loPI   PO4 2356  15.426  12.735  10.780  0.5175  0.3473 -0.1186
  148loPI   GL1 2357  15.266  12.613  10.407 -0.0026  0.0047 -0.4375
  148loPI   GL2 2358  15.135  12.804  10.285  0.0444  0.0315  0.0119
  148loPI   C1A 2359  15.419  12.334  10.092  0.0882  0.0434  0.0760
  148loPI   C2A 2360  15.543  12.316   9.659  0.1246 -0.1857  0.1072
  148loPI   C3A 2361  15.469  12.373   9.227 -0.1774 -0.2050 -0.0267
  148loPI   C4A 2362  15.432  12.415   8.739 -0.1311  0.0649 -0.0571
  148loPI   C5A 2363  15.593  12.387   8.335 -0.3041 -0.0035 -0.0643
  148loPI   C6A 2364  16.019  12.455   8.247  0.1572  0.0806 -0.3169
  148loPI   C1B 2365  15.146  12.725   9.880  0.0164 -0.0620  0.0610
  148loPI   C2B 2366  15.124  12.692   9.461  0.0270  0.1224 -0.0960
  148loPI   C3B 2367  15.162  12.768   9.015 -0.0351  0.0780 -0.0359
  148loPI   C4B 2368  15.068  12.823   8.629  0.0660 -0.0589  0.0586
  149loPI    C1 2369  16.173  13.543  11.027  0.1442 -0.1802 -0.0026
  149loPI    C2 2370  16.064  13.924  11.086  0.1074 -0.2060  0.0985
  149loPI    C3 2371  16.384  13.776  11.275  0.2260 -0.1760 -0.0758
  149loPI   PO4 2372  16.100  13.531  10.760  0.1892 -0.1164  0.4398
  149loPI   GL1 2373  16.006  13.932  10.512 -0.0337 -0.0137  0.0697
  149loPI   GL2 2374  15.864  14.218  10.396 -0.1861 -0.2348 -0.0569
  149loPI   C1A 2375  16.142  13.837  10.076  0.1827 -0.1518 -0.0163
  149loPI   C2A 2376  16.109  13.878   9.618  0.0343  0.0113 -0.2283
  149loPI   C3A 2377  16.096  13.866   9.128 -0.1117 -0.1528 -0.3034
  149loPI   C4A 2378  16.119  13.806   8.624  0.1655 -0.0894 -0.0232
  149loPI   C5A 2379  16.149  13.520   8.321  0.0743 -0.4560  0.1482
  149loPI   C6A 2380  16.047  13.614   7.919  0.0865  0.2936 -0.2486
  149loPI   C1B 2381  15.864  14.179   9.878  0.1805 -0.1771 -0.1697
  149loPI   C2B 2382  15.856  14.264   9.478  0.2803 -0.0793 -0.1917
  149loPI   C3B 2383  15.803  14.270   9.099 -0.0408  0.0188  0.1783
  149loPI   C4B 2384  15.718  14.132   8.739  0.1381 -0.1131 -0.1660
  150loPI    C1 2385   3.554  16.669  11.113 -0.0882  0.0826  0.0370
  150loPI    C2 2386   3.315  16.351  11.154 -0.0448  0.0269 -0.1331
  150loPI    C3 2387   3.652  16.377  11.368 -0.0174 -0.0712 -0.1633
  150loPI   PO4 2388   3.611  16.654  10.860  0.2663  0.1093  0.3461
  150loPI   GL1 2389   3.443  16.535  10.544 -0.3852  0.0253 -0.0103
  150loPI   GL2 2390   3.241  16.877  10.453 -0.1730 -0.1929 -0.1961
  150loPI   C1A 2391   3.563  16.532  10.181 -0.1745  0.0050 -0.0406
  150loPI   C2A 2392   3.543  16.605   9.707 -0.0613 -0.0916 -0.1054
  150loPI   C3A 2393   3.587  16.555   9.286  0.0013  0.2685 -0.2098
  150loPI   C4A 2394   3.681  16.552   8.918 -0.1265 -0.1794  0.1510
  150loPI   C5A 2395   3.732  16.639   8.459 -0.1563 -0.1731  0.0003
  150loPI   C6A 2396   3.955  16.452   8.120 -0.2040 -0.1384 -0.0195
  150loPI   C1B 2397   3.342  16.987  10.018  0.0946  0.0349 -0.1422
  150loPI   C2B 2398   3.297  16.992   9.523 -0.2261 -0.3715 -0.2382
  150loPI   C3B 2399   3.238  17.009   9.139 -0.2028  0.2870  0.0611
  150loPI   C4B 2400   3.434  16.942   8.711  0.0819  0.0657 -0.2124
  151loPI    C1 2401  10.718   6.647  10.978 -0.1491  0.0677  0.0889
  151loPI    C2 2402  10.413   6.404  11.066  0.1249 -0.2674  0.1362
  151loPI    C3 2403  10.594   6.611  11.357 -0.0199 -0.1087  0.1154
  151loPI   PO4 2404  10.875   6.417  10.852  0.2227  0.3481 -0.0919
  151loPI   GL1 2405  11.033   6.267  10.488  0.3817 -0.0092 -0.0157
  151loPI   GL2 2406  11.360   6.429  10.363  0.2245 -0.1451  0.0641
  151loPI   C1A 2407  10.915   6.351  10.127 -0.2340  0.1473 -0.1200
  151loPI   C2A 2408  10.937   6.471   9.637  0.0629 -0.3420 -0.0301
  151loPI   C3A 2409  10.953   6.427   9.291 -0.2512  0.0920  0.0009
  151loPI   C4A 2410  11.016   6.482   8.760 -0.2598  0.3152  0.0416
  151loPI   C5A 2411  10.726   6.655   8.373 -0.1913 -0.0358 -0.1504
  151loPI   C6A 2412  10.290   6.583   8.349 -0.2449  0.2917 -0.0132
  151loPI   C1B 2413  11.378   6.459   9.900  0.0257  0.0151  0.1603
  151loPI   C2B 2414  11.459   6.518   9.453 -0.1792 -0.1756 -0.1364
  151loPI   C3B 2415  11.390   6.538   9.053  0.2644  0.0184  0.0729
  151loPI   C4B 2416  11.537   6.523   8.544  0.0860 -0.0678  0.1051
  152loPI    C1 2417   2.784  15.308  11.094  0.0822 -0.2470  0.0769
  152loPI    C2 2418   2.956  15.125  11.405  0.1559  0.0649  0.2242
  152loPI    C3 2419   2.593  15.288  11.445  0.1641  0.1029  0.1451
  152loPI   PO4 2420   3.028  15.388  10.998 -0.1274  0.1678 -0.1468
  152loPI   GL1 2421   3.265  15.485  10.587 -0.3033 -0.0610  0.2141
  152loPI   GL2 2422   3.125  15.683  10.491  0.0033 -0.4368 -0.1308
  152loPI   C1A 2423   3.405  15.288  10.235  0.0904 -0.2568 -0.0834
  152loPI   C2A 2424   3.483  15.189   9.846 -0.1635  0.1459 -0.1191
  152loPI   C3A 2425   3.464  15.201   9.317  0.1369  0.2040 -0.2379
  152loPI   C4A 2426   3.600  15.185   8.888 -0.1366 -0.1149  0.0763
  152loPI   C5A 2427   3.726  15.120   8.441  0.5642 -0.1280 -0.2480
  152loPI   C6A 2428   3.517  15.092   8.039 -0.0626 -0.2831  0.1216
  152loPI   C1B 2429   3.162  15.627   9.994  0.1346 -0.0837  0.1407
  152loPI   C2B 2430   3.146  15.630   9.613 -0.0998 -0.0855 -0.0209
  152loPI   C3B 2431   3.117  15.626   9.166  0.0797  0.2125  0.1306
  152loPI   C4B 2432   3.193  15.666   8.688 -0.3443 -0.4972 -0.0161
  153loPI    C1 2433   0.410   8.217  11.201 -0.0025  0.0830 -0.0555
  153loPI    C2 2434   0.334   8.346  11.571  0.2990 -0.0938  0.0715
  153loPI    C3 2435   0.045   8.171  11.357  0.0447  0.2670  0.1117
  153loPI   PO4 2436   0.490   8.331  11.041  0.2671 -0.1487  0.3013
  153loPI   GL1 2437   0.563   8.216  10.550  0.0864  0.2217 -0.0709
  153loPI   GL2 2438   0.393   8.509  10.486 -0.0652  0.1557  0.1328
  153loPI   C1A 2439   0.842   8.112  10.180 -0.1800  0.1044 -0.1791
  153loPI   C2A 2440   0.956   8.121   9.772  0.1098 -0.1435  0.1701
  153loPI   C3A 2441   0.763   8.035   9.324  0.0401  0.1923  0.0617
  153loPI   C4A 2442   0.765   8.162   8.992 -0.1056 -0.0720 -0.0989
  153loPI   C5A 2443   0.553   8.205   8.626  0.3408  0.2889  0.1636
  153loPI   C6A 2444   0.295   8.206   8.332 -0.0779  0.3558 -0.0701
  153loPI   C1B 2445   0.579   8.520  10.095 -0.0052  0.1675  0.1749
  153loPI   C2B 2446   0.578   8.445   9.663  0.3235 -0.2581  0.1155
  153loPI   C3B 2447   0.440   8.518   9.216 -0.2087  0.0621  0.0966
  153loPI   C4B 2448   0.472   8.658   8.836 -0.0193  0.2011  0.0604
  154loPI    C1 2449  12.964  14.816  11.054  0.0846 -0.1955  0.0830
  154loPI    C2 2450  13.224  14.646  11.306 -0.0713 -0.2342  0.2192
  154loPI    C3 2451  13.062  15.001  11.395  0.0277 -0.1523  0.0760
  154loPI   PO4 2452  13.071  14.780  10.790 -0.4077  0.1198  0.1588
  154loPI   GL1 2453  13.303  14.996  10.645  0.0139  0.0798 -0.0241
  154loPI   GL2 2454  13.431  15.294  10.587  0.3654  0.3022  0.1695
  154loPI   C1A 2455  13.229  14.784  10.207 -0.1678 -0.0581 -0.0253
  154loPI   C2A 2456  13.077  14.706   9.758  0.1950  0.2537 -0.1305
  154loPI   C3A 2457  13.075  14.712   9.303  0.0033 -0.2853  0.0987
  154loPI   C4A 2458  13.154  14.782   8.843  0.1770 -0.1019 -0.0208
  154loPI   C5A 2459  12.968  14.714   8.449  0.2755  0.2814 -0.1381
  154loPI   C6A 2460  12.724  14.486   8.204  0.2153 -0.1133 -0.2745
  154loPI   C1B 2461  13.433  15.239  10.212 -0.1165  0.4286  0.0833
  154loPI   C2B 2462  13.342  15.181   9.809  0.2271 -0.3378 -0.0001
  154loPI   C3B 2463  13.249  15.217   9.417 -0.0744 -0.2874 -0.1249
  154loPI   C4B 2464  13.329  15.287   8.988 -0.1495  0.1339  0.1733
  155loPI    C1 2465   8.452   2.698  11.294  0.0633 -0.0264 -0.0644
  155loPI    C2 2466   8.616   3.021  11.464 -0.0330  0.0709 -0.1544
  155loPI    C3 2467   8.234   2.928  11.538 -0.0079 -0.0180 -0.1354
  155loPI   PO4 2468   8.494   2.639  11.008 -0.2377 -0.2135  0.1319
  155loPI   GL1 2469   8.762   2.477  10.716 -0.0420 -0.1485 -0.1909
  155loPI   GL2 2470   9.041   2.625  10.686  0.1083 -0.7084 -0.1151
  155loPI   C1A 2471   8.618   2.540  10.319 -0.0305 -0.0418 -0.0170
  155loPI   C2A 2472   8.745   2.561   9.871  0.1120  0.2207 -0.1554
  155loPI   C3A 2473   8.744   2.502   9.443  0.2082 -0.0804 -0.2348
  155loPI   C4A 2474   8.697   2.491   9.011 -0.1280 -0.0619  0.0510
  155loPI   C5A 2475   8.766   2.540   8.560  0.2007 -0.0719  0.0647
  155loPI   C6A 2476   9.124   2.796   8.340  0.0199 -0.1232  0.3674
  155loPI   C1B 2477   9.178   2.647  10.187  0.1534  0.1720  0.0382
  155loPI   C2B 2478   9.292   2.608   9.815 -0.0431 -0.0760 -0.0076
  155loPI   C3B 2479   9.228   2.559   9.400 -0.0133 -0.1396  0.1370
  155loPI   C4B 2480   9.145   2.600   8.896 -0.2676  0.0212  0.0566
  156loPI    C1 2481   4.628  10.843  11.220 -0.1567  0.1138  0.0517
  156loPI    C2 2482   4.958  10.621  11.257 -0.1023  0.1537 -0.1753
  156loPI    C3 2483   4.910  10.947  11.484  0.0555  0.1975 -0.2033
  156loPI   PO4 2484   4.558  10.978  11.022 -0.3573 -0.0095 -0.0900
  156loPI   GL1 2485   4.590  11.184  10.672  0.0625 -0.0831 -0.0010
  156loPI   GL2 2486   4.782  11.181  10.311  0.0764  0.0480  0.1367
  156loPI   C1A 2487   4.639  10.761  10.408  0.0212 -0.1686 -0.0071
  156loPI   C2A 2488   4.533  10.679  10.021  0.0008 -0.1128  0.2310
  156loPI   C3A 2489   4.501  10.805   9.677 -0.2683 -0.2311  0.0200
  156loPI   C4A 2490   4.398  10.770   9.173  0.0163  0.0101  0.0439
  156loPI   C5A 2491   4.403  10.614   8.851 -0.1928 -0.1489  0.1249
  156loPI   C6A 2492   4.664  10.557   8.421  0.0506  0.1270 -0.0532
  156loPI   C1B 2493   4.695  11.235   9.776  0.0513  0.0763 -0.4571
  156loPI   C2B 2494   4.629  11.211   9.394 -0.1408 -0.0899 -0.1610
  156loPI   C3B 2495   4.574  11.189   8.928  0.0741  0.2412  0.1065
  156loPI   C4B 2496   4.805  11.017   8.580 -0.0617  0.3304  0.3329
  157loPI    C1 2497  16.423  11.201  10.971  0.3597  0.0506 -0.2852
  157loPI    C2 2498  16.454  10.841  11.141  0.0761  0.0805 -0.1655
  157loPI    C3 2499  16.518  11.170  11.359 -0.0474  0.1123 -0.1767
  157loPI   PO4 2500  16.505  11.148  10.733  0.0404  0.1041  0.1044
  157loPI   GL1 2501  16.515  10.886  10.312 -0.1996 -0.0983  0.0402
  157loPI   GL2 2502  16.819  10.772  10.338  0.0589 -0.0454  0.1601
  157loPI   C1A 2503  16.536  11.140   9.969 -0.0129 -0.1527 -0.0635
  157loPI   C2A 2504  16.401  11.100   9.542  0.1476  0.0911 -0.1116
  157loPI   C3A 2505  16.392  11.124   9.139 -0.0177 -0.0205  0.0339
  157loPI   C4A 2506  16.333  11.145   8.680 -0.2284 -0.0067 -0.1116
  157loPI   C5A 2507  16.616  11.482   8.435 -0.1933  0.1489 -0.1116
  157loPI   C6A 2508  16.897  11.459   8.013  0.0617 -0.3683  0.0575
  157loPI   C1B 2509  16.730  10.680   9.911  0.0294  0.0162 -0.1703
  157loPI   C2B 2510  16.714  10.609   9.530 -0.0849 -0.2305 -0.1141
  157loPI   C3B 2511  16.729  10.673   9.146 -0.1060  0.0444  0.2090
  157loPI   C4B 2512  16.756  10.716   8.716 -0.1208 -0.1075  0.2105
  158loPI    C1 2513  10.694  12.779  11.482  0.0849 -0.0401 -0.0408
  158loPI    C2 2514  10.668  13.115  11.698 -0.1302 -0.0966  0.0234
  158loPI    C3 2515  10.821  12.783  11.862  0.0049 -0.0534 -0.0138
  158loPI   PO4 2516  10.592  12.892  11.281  0.0441 -0.0348 -0.1826
  158loPI   GL1 2517  10.775  13.076  10.941 -0.1683  0.1043  0.3165
  158loPI   GL2 2518  10.677  12.836  10.766  0.0611  0.1339 -0.2756
  158loPI   C1A 2519  10.997  13.136  10.525  0.0826 -0.3221 -0.1999
  158loPI   C2A 2520  11.020  13.178  10.066  0.1708  0.1430 -0.1171
  158loPI   C3A 2521  10.996  13.200   9.655 -0.1947  0.0717 -0.0080
  158loPI   C4A 2522  11.001  13.110   9.180 -0.1508  0.2833  0.2100
  158loPI   C5A 2523  10.978  13.105   8.681 -0.3230 -0.1143  0.1188
  158loPI   C6A 2524  10.632  12.828   8.583  0.3309  0.0088  0.1831
  158loPI   C1B 2525  10.775  12.710  10.456 -0.0762 -0.0499 -0.1308
  158loPI   C2B 2526  10.788  12.719   9.991 -0.2141  0.3299  0.2130
  158loPI   C3B 2527  10.768  12.715   9.525 -0.2190  0.1097  0.3126
  158loPI   C4B 2528  10.728  12.635   9.090  0.3617  0.0915 -0.0684
  159loPI    C1 2529   8.243  15.872  11.244 -0.1730  0.2395  0.1297
  159loPI    C2 2530   8.415  16.140  11.487  0.0901 -0.0143  0.2297
  159loPI    C3 2531   8.176  15.858  11.638 -0.0309  0.0439  0.1484
  159loPI   PO4 2532   8.481  15.769  11.110  0.2382  0.2617 -0.1361
  159loPI   GL1 2533   8.603  15.766  10.678  0.2068 -0.0030 -0.0645
  159loPI   GL2 2534   8.733  15.577  10.388 -0.2527  0.3140  0.0023
  159loPI   C1A 2535   8.225  15.537  10.360 -0.3090 -0.1704  0.1408
  159loPI   C2A 2536   8.055  15.560   9.953  0.0134  0.2640 -0.0093
  159loPI   C3A 2537   8.069  15.541   9.532 -0.0250 -0.3209  0.1137
  159loPI   C4A 2538   8.017  15.531   9.008  0.2286 -0.0777 -0.2932
  159loPI   C5A 2539   7.981  15.498   8.587 -0.1545 -0.0919  0.0935
  159loPI   C6A 2540   8.141  15.768   8.197  0.1740 -0.3415  0.1154
  159loPI   C1B 2541   8.562  15.598   9.983 -0.1002 -0.1633  0.1501
  159loPI   C2B 2542   8.609  15.587   9.565  0.0032 -0.0880  0.5274
  159loPI   C3B 2543   8.520  15.496   9.254 -0.1171 -0.0141  0.4476
  159loPI   C4B 2544   8.664  15.435   8.887 -0.4032 -0.3372 -0.0085
  160loPI    C1 2545   1.849  13.319  11.165  0.1651 -0.0208 -0.0178
  160loPI    C2 2546   1.956  13.105  11.486 -0.1316 -0.0667  0.0533
  160loPI    C3 2547   1.697  13.408  11.524 -0.1683 -0.0721 -0.1428
  160loPI   PO4 2548   1.757  13.178  10.987 -0.2780  0.1759  0.0327
  160loPI   GL1 2549   1.556  13.322  10.696 -0.0775  0.1907  0.1433
  160loPI   GL2 2550   1.243  13.167  10.684  0.0765 -0.0652 -0.1059
  160loPI   C1A 2551   1.599  13.264  10.249  0.2274 -0.0963 -0.0531
  160loPI   C2A 2552   1.592  13.195   9.791  0.1111 -0.2865 -0.1603
  160loPI   C3A 2553   1.517  13.199   9.345 -0.1402  0.1167 -0.0657
  160loPI   C4A 2554   1.514  13.223   8.868  0.1278  0.0951  0.2666
  160loPI   C5A 2555   1.686  13.213   8.504 -0.2503  0.1225 -0.0832
  160loPI   C6A 2556   2.077  13.132   8.221 -0.1682 -0.0180  0.0936
  160loPI   C1B 2557   1.105  13.219  10.346 -0.1776  0.0379  0.0136
  160loPI   C2B 2558   1.080  13.121   9.894  0.1450  0.2020 -0.1144
  160loPI   C3B 2559   1.050  13.073   9.501  0.1404  0.0746 -0.1264
  160loPI   C4B 2560   1.094  13.167   9.105  0.0115  0.3162 -0.0009
  161loPI    C1 2561  13.403   9.683  11.047  0.1096  0.0995  0.1639
  161loPI    C2 2562  13.089   9.825  11.251  0.0900  0.0492  0.1688
  161loPI    C3 2563  13.450   9.812  11.423  0.0116 -0.2933  0.3157
  161loPI   PO4 2564  13.386   9.811  10.836  0.2065  0.3554 -0.2138
  161loPI   GL1 2565  13.452   9.700  10.407  0.1205  0.1786 -0.0388
  161loPI   GL2 2566  13.457   9.992  10.338 -0.0696 -0.0744  0.0049
  161loPI   C1A 2567  13.236   9.432  10.105 -0.1097  0.0160 -0.1591
  161loPI   C2A 2568  13.152   9.292   9.671 -0.0886 -0.1008 -0.1017
  161loPI   C3A 2569  13.125   9.494   9.251 -0.0728  0.2169 -0.0401
  161loPI   C4A 2570  13.138   9.423   8.822 -0.2091  0.1264  0.1800
  161loPI   C5A 2571  13.140   9.463   8.360 -0.1831 -0.0882 -0.0342
  161loPI   C6A 2572  12.708   9.640   8.182 -0.0701 -0.0080  0.1298
  161loPI   C1B 2573  13.410   9.977   9.889 -0.1163  0.1123 -0.0699
  161loPI   C2B 2574  13.389   9.979   9.418  0.0676  0.2364 -0.1271
  161loPI   C3B 2575  13.357   9.889   8.920 -0.1818  0.1601  0.0160
  161loPI   C4B 2576  13.339   9.957   8.513 -0.1675  0.1601 -0.0009
  162loPI    C1 2577  15.711  14.307  11.065 -0.1354  0.0529 -0.0742
  162loPI    C2 2578  15.556  14.008  11.279  0.2395 -0.0036  0.1277
  162loPI    C3 2579  15.542  14.382  11.419  0.1782  0.0092  0.0883
  162loPI   PO4 2580  15.673  14.242  10.841  0.0961 -0.2994 -0.1556
  162loPI   GL1 2581  15.387  14.167  10.502 -0.0351  0.2156  0.0815
  162loPI   GL2 2582  15.369  14.480  10.566  0.0061  0.0544 -0.0171
  162loPI   C1A 2583  15.456  14.078  10.129 -0.1369  0.0938 -0.0361
  162loPI   C2A 2584  15.396  14.119   9.695  0.0121  0.0432  0.2023
  162loPI   C3A 2585  15.330  14.177   9.284  0.2534 -0.1564 -0.2652
  162loPI   C4A 2586  15.262  14.163   8.809  0.1213 -0.1512 -0.1726
  162loPI   C5A 2587  15.436  14.315   8.377  0.2072  0.3026  0.1656
  162loPI   C6A 2588  15.603  14.435   7.992  0.1432  0.1928  0.1468
  162loPI   C1B 2589  15.604  14.560  10.131 -0.0701 -0.1894 -0.0237
  162loPI   C2B 2590  15.533  14.642   9.734 -0.1116  0.0102 -0.3042
  162loPI   C3B 2591  15.543  14.705   9.289 -0.0667  0.1055  0.0673
  162loPI   C4B 2592  15.488  14.611   8.865  0.0269 -0.1551 -0.1584
  163loPI    C1 2593  15.447   3.633  11.296 -0.0941  0.2732  0.0692
  163loPI    C2 2594  15.199   3.319  11.300 -0.0256  0.2201  0.2058
  163loPI    C3 2595  15.486   3.350  11.577  0.2187  0.2026 -0.0417
  163loPI   PO4 2596  15.602   3.601  11.039 -0.0708  0.0185 -0.1829
  163loPI   GL1 2597  15.738   3.533  10.626  0.1458  0.1360  0.1733
  163loPI   GL2 2598  15.548   3.778  10.521  0.2363 -0.0576 -0.0374
  163loPI   C1A 2599  15.893   3.291  10.191  0.1984 -0.0571 -0.0120
  163loPI   C2A 2600  15.897   3.306   9.781 -0.0323 -0.0043 -0.2171
  163loPI   C3A 2601  15.944   3.270   9.320  0.1460 -0.1454 -0.2124
  163loPI   C4A 2602  15.831   3.220   8.888  0.0106  0.5905  0.0035
  163loPI   C5A 2603  15.566   2.983   8.671  0.1487 -0.1183 -0.3097
  163loPI   C6A 2604  15.447   2.797   8.380  0.0140  0.0631 -0.1908
  163loPI   C1B 2605  15.675   3.721  10.049  0.1967 -0.4511  0.0459
  163loPI   C2B 2606  15.594   3.725   9.534 -0.2704 -0.0052 -0.0760
  163loPI   C3B 2607  15.578   3.666   9.103  0.0528 -0.0360  0.2098
  163loPI   C4B 2608  15.397   3.519   8.708 -0.1098 -0.2787  0.2288
  164loPI    C1 2609  15.331  10.074  10.613 -0.1807  0.2035 -0.2285
  164loPI    C2 2610  15.006   9.862  10.712  0.1401 -0.2231 -0.0587
  164loPI    C3 2611  15.010  10.258  10.765 -0.2279 -0.2555  0.2590
  164loPI   PO4 2612  15.418  10.083  10.443 -0.0371  0.1684  0.0655
  164loPI   GL1 2613  15.414   9.955  10.149 -0.0903  0.1190 -0.1742
  164loPI   GL2 2614  15.038   9.995  10.165 -0.0754 -0.0903  0.1335
  164loPI   C1A 2615  15.287   9.644   9.872  0.1635 -0.1236  0.1702
  164loPI   C2A 2616  15.228   9.630   9.438 -0.0811  0.1005 -0.2301
  164loPI   C3A 2617  15.203   9.605   9.020 -0.3019 -0.0154  0.1555
  164loPI   C4A 2618  15.353   9.502   8.591 -0.2690 -0.0007  0.1286
  164loPI   C5A 2619  15.520   9.006   8.347 -0.1037  0.0474  0.0428
  164loPI   C6A 2620  15.564   8.553   8.333  0.1141  0.0479  0.3272
  164loPI   C1B 2621  14.919  10.015   9.778  0.1190  0.3368 -0.0789
  164loPI   C2B 2622  14.914  10.082   9.377  0.2981 -0.0781 -0.3804
  164loPI   C3B 2623  14.981  10.017   9.003  0.3615 -0.0919  0.0239
  164loPI   C4B 2624  14.969  10.005   8.617  0.4220 -0.1429  0.1032
  165loPI    C1 2625   9.201   0.803  11.293  0.0271 -0.0549 -0.0174
  165loPI    C2 2626   9.418   0.900  11.615 -0.1000  0.0428  0.0395
  165loPI    C3 2627   9.136   0.617  11.641 -0.1294  0.0702  0.0215
  165loPI   PO4 2628   9.065   0.970  11.188  0.1484 -0.0615  0.1342
  165loPI   GL1 2629   8.829   0.874  10.776 -0.2517  0.3015 -0.0408
  165loPI   GL2 2630   9.097   0.901  10.614  0.2544  0.0220 -0.0864
  165loPI   C1A 2631   8.690   1.136  10.382 -0.1281  0.3549 -0.0824
  165loPI   C2A 2632   8.541   1.206   9.909  0.0003  0.2040 -0.0491
  165loPI   C3A 2633   8.646   1.082   9.553 -0.0015 -0.0047  0.3297
  165loPI   C4A 2634   8.530   1.074   9.105  0.1094  0.0640  0.1150
  165loPI   C5A 2635   8.319   1.015   8.735 -0.2569 -0.2969  0.0031
  165loPI   C6A 2636   8.029   0.902   8.500 -0.0641  0.0560  0.1372
  165loPI   C1B 2637   9.382   0.872  10.282 -0.1716 -0.0121  0.2026
  165loPI   C2B 2638   9.385   0.971   9.763  0.0537  0.1580 -0.1193
  165loPI   C3B 2639   9.294   0.805   9.384 -0.0603  0.0862 -0.1110
  165loPI   C4B 2640   9.343   0.752   8.981 -0.4180  0.3342 -0.1902
  166loPI    C1 2641  12.801  12.420  11.298 -0.1514 -0.0859 -0.0015
  166loPI    C2 2642  12.828  12.050  11.446  0.2524 -0.1284 -0.1689
  166loPI    C3 2643  13.149  12.287  11.442 -0.0035  0.2283 -0.0608
  166loPI   PO4 2644  12.670  12.315  10.989 -0.1894 -0.0597 -0.0238
  166loPI   GL1 2645  12.834  12.132  10.615  0.1969  0.0103 -0.3237
  166loPI   GL2 2646  12.618  12.366  10.494  0.2649 -0.1390 -0.1064
  166loPI   C1A 2647  12.957  12.100  10.175  0.0111  0.0186 -0.0256
  166loPI   C2A 2648  12.880  12.077   9.761  0.0896  0.1751 -0.0548
  166loPI   C3A 2649  12.903  12.043   9.268  0.0835 -0.2223 -0.0217
  166loPI   C4A 2650  12.779  12.049   8.905 -0.2071 -0.1994  0.0396
  166loPI   C5A 2651  12.739  12.059   8.432  0.0299  0.1609 -0.2444
  166loPI   C6A 2652  13.071  12.058   8.140  0.1148  0.2200 -0.1010
  166loPI   C1B 2653  12.610  12.445  10.104 -0.4116  0.0807  0.1625
  166loPI   C2B 2654  12.626  12.484   9.652  0.1224 -0.1724  0.0050
  166loPI   C3B 2655  12.560  12.465   9.208 -0.1382 -0.1154 -0.0015
  166loPI   C4B 2656  12.484  12.408   8.787 -0.2805  0.0385 -0.3896
  167loPI    C1 2657  10.262  10.268  11.073  0.0910  0.0014 -0.0103
  167loPI    C2 2658  10.337   9.982  10.804  0.1751  0.0124  0.0008
  167loPI    C3 2659  10.344   9.896  11.194 -0.1757 -0.0575 -0.0043
  167loPI   PO4 2660  10.058  10.395  10.885 -0.0349  0.2070 -0.4406
  167loPI   GL1 2661   9.915  10.369  10.512 -0.2376  0.3748  0.1076
  167loPI   GL2 2662  10.226  10.431  10.294  0.0904  0.0929 -0.4456
  167loPI   C1A 2663   9.775  10.354  10.092  0.1255 -0.2106 -0.0796
  167loPI   C2A 2664   9.707  10.329   9.701 -0.0965  0.1696 -0.1581
  167loPI   C3A 2665   9.712  10.303   9.193  0.1597 -0.2132  0.1638
  167loPI   C4A 2666   9.620  10.329   8.762  0.0895  0.0799 -0.0289
  167loPI   C5A 2667   9.465  10.518   8.523 -0.0271  0.0203 -0.0836
  167loPI   C6A 2668   9.083  10.590   8.245 -0.1675 -0.1629 -0.2806
  167loPI   C1B 2669  10.200  10.482   9.883  0.0442 -0.0331 -0.0154
  167loPI   C2B 2670  10.254  10.306   9.362 -0.2079 -0.0863  0.1092
  167loPI   C3B 2671  10.194  10.370   8.857  0.2586  0.1409 -0.1955
  167loPI   C4B 2672  10.096  10.316   8.423 -0.2255  0.3231  0.1532
  168loPI    C1 2673  16.477   2.116  11.315  0.3296  0.3238  0.0798
  168loPI    C2 2674  16.578   2.306  11.653 -0.0057  0.0598  0.3372
  168loPI    C3 2675  16.542   1.908  11.651  0.1895  0.0389 -0.0665
  168loPI   PO4 2676  16.569   2.283  11.112 -0.0077 -0.0991 -0.0039
  168loPI   GL1 2677  16.433   2.364  10.677 -0.2008  0.1200 -0.2529
  168loPI   GL2 2678  16.138   2.348  10.597 -0.1584 -0.1664  0.2594
  168loPI   C1A 2679  16.534   2.311  10.227 -0.1372  0.1693 -0.1121
  168loPI   C2A 2680  16.555   2.411   9.788 -0.1582  0.4090 -0.1458
  168loPI   C3A 2681  16.550   2.398   9.418 -0.2131  0.3080  0.0796
  168loPI   C4A 2682  16.526   2.410   8.984 -0.0494 -0.0326  0.1220
  168loPI   C5A 2683  16.585   2.522   8.520  0.3619  0.0648 -0.0229
  168loPI   C6A 2684  16.256   2.558   8.281  0.1542 -0.1114 -0.1069
  168loPI   C1B 2685  16.001   2.321  10.083  0.1997  0.0038 -0.0529
  168loPI   C2B 2686  16.036   2.376   9.641 -0.2898 -0.0566 -0.0402
  168loPI   C3B 2687  16.039   2.406   9.176  0.0568  0.1240  0.3329
  168loPI   C4B 2688  15.900   2.496   8.730 -0.3221 -0.2570 -0.1776
  169loPI    C1 2689   5.806  10.090  11.290  0.1884  0.0015  0.2485
  169loPI    C2 2690   5.764  10.360  11.581 -0.0345  0.1027  0.1255
  169loPI    C3 2691   6.025  10.060  11.623  0.0142  0.1779  0.3815
  169loPI   PO4 2692   5.927  10.189  11.085 -0.2546  0.2419  0.1111
  169loPI   GL1 2693   5.863  10.312  10.634  0.1999  0.0964  0.1398
  169loPI   GL2 2694   5.719   9.950  10.420 -0.3042  0.0239  0.0299
  169loPI   C1A 2695   5.949  10.386  10.161  0.0086  0.0518  0.0731
  169loPI   C2A 2696   5.917  10.394   9.751  0.1419  0.3118  0.3079
  169loPI   C3A 2697   5.803  10.428   9.305 -0.0502  0.1211 -0.3553
  169loPI   C4A 2698   5.761  10.462   8.881  0.3580  0.1153 -0.0864
  169loPI   C5A 2699   5.792  10.701   8.553  0.2032 -0.1123  0.0788
  169loPI   C6A 2700   5.985  11.060   8.456  0.1199  0.1615  0.0742
  169loPI   C1B 2701   5.730   9.944  10.018  0.0832  0.0424  0.1450
  169loPI   C2B 2702   5.745   9.970   9.567 -0.2403 -0.0139  0.5738
  169loPI   C3B 2703   5.615   9.990   9.199 -0.1083  0.3768  0.0356
  169loPI   C4B 2704   5.578   9.829   8.861  0.1689 -0.0558  0.1517
  170loPI    C1 2705  13.051  11.572  11.072 -0.0644 -0.0537 -0.1403
  170loPI    C2 2706  13.136  11.959  11.018 -0.1010 -0.0467 -0.1479
  170loPI    C3 2707  13.312  11.756  11.314 -0.2308  0.0259 -0.0194
  170loPI   PO4 2708  12.974  11.456  10.771 -0.2609  0.0587  0.1693
  170loPI   GL1 2709  12.867  11.470  10.366  0.3312  0.0088  0.1160
  170loPI   GL2 2710  12.645  11.250  10.318 -0.1576  0.2607  0.4433
  170loPI   C1A 2711  12.802  11.583   9.947  0.0286 -0.2776  0.1923
  170loPI   C2A 2712  12.684  11.573   9.506  0.2657  0.0549 -0.0551
  170loPI   C3A 2713  12.585  11.589   9.104  0.1077 -0.0338  0.0516
  170loPI   C4A 2714  12.568  11.591   8.613  0.1848  0.0509 -0.1027
  170loPI   C5A 2715  12.625  11.372   8.175  0.0655  0.1302  0.1126
  170loPI   C6A 2716  12.634  11.192   7.766  0.0233 -0.0955  0.1686
  170loPI   C1B 2717  12.514  11.149   9.906 -0.2374  0.1688 -0.0770
  170loPI   C2B 2718  12.472  11.134   9.465 -0.2518 -0.3533  0.1211
  170loPI   C3B 2719  12.488  11.059   9.013  0.0373 -0.4617 -0.0318
  170loPI   C4B 2720  12.406  11.052   8.542  0.0501 -0.2055 -0.0106
  171loPI    C1 2721   5.578   6.121  10.865 -0.0085  0.2129 -0.0046
  171loPI    C2 2722   5.867   6.319  11.059  0.1344 -0.0034  0.0068
  171loPI    C3 2723   5.547   6.185  11.258 -0.1012  0.4549 -0.0493
  171loPI   PO4 2724   5.703   6.069  10.640 -0.0521  0.0280 -0.1925
  171loPI   GL1 2725   5.914   5.956  10.310 -0.0179  0.0368  0.0535
  171loPI   GL2 2726   5.759   6.262  10.202  0.1950 -0.1748 -0.2784
  171loPI   C1A 2727   5.792   5.817   9.859  0.0104  0.0078 -0.2043
  171loPI   C2A 2728   5.719   5.851   9.485  0.0408  0.3944 -0.0392
  171loPI   C3A 2729   5.774   5.827   9.123 -0.0388  0.0261 -0.0088
  171loPI   C4A 2730   5.658   5.762   8.723 -0.1918  0.1564 -0.1177
  171loPI   C5A 2731   5.436   5.547   8.260  0.0965 -0.2428  0.0589
  171loPI   C6A 2732   5.130   5.343   8.089 -0.0090 -0.2640 -0.0397
  171loPI   C1B 2733   5.479   6.228   9.840 -0.1512 -0.1174 -0.1005
  171loPI   C2B 2734   5.478   6.331   9.490  0.1396  0.3506  0.1760
  171loPI   C3B 2735   5.483   6.316   9.082 -0.0178 -0.0194  0.0124
  171loPI   C4B 2736   5.362   6.217   8.573 -0.1024 -0.0381 -0.2362
  172loPI    C1 2737  17.134   7.573  11.037  0.0925  0.1356  0.2489
  172loPI    C2 2738  16.950   7.246  11.176  0.0039  0.1455  0.1563
  172loPI    C3 2739  16.922   7.592  11.376  0.0844  0.1008  0.2459
  172loPI   PO4 2740  17.116   7.470  10.762 -0.1354  0.1858  0.1651
  172loPI   GL1 2741  17.392   7.174  10.458 -0.0525  0.0296 -0.2048
  172loPI   GL2 2742  17.510   7.472  10.350  0.3144  0.4538 -0.0441
  172loPI   C1A 2743  17.162   7.074  10.159  0.0627  0.0633 -0.0859
  172loPI   C2A 2744  17.110   6.973   9.747  0.0530  0.1878  0.2504
  172loPI   C3A 2745  16.994   7.062   9.265  0.0627 -0.1880 -0.1900
  172loPI   C4A 2746  17.088   7.055   8.863  0.1179  0.5001  0.0806
  172loPI   C5A 2747  17.348   6.966   8.405 -0.1592  0.0384  0.0066
  172loPI   C6A 2748  17.675   6.904   8.195  0.0574 -0.1191  0.1750
  172loPI   C1B 2749  17.252   7.519   9.916 -0.1982 -0.1630 -0.2582
  172loPI   C2B 2750  17.292   7.460   9.502  0.3129  0.0686 -0.1018
  172loPI   C3B 2751  17.226   7.558   9.072 -0.2733 -0.0573 -0.0386
  172loPI   C4B 2752  17.237   7.459   8.649  0.0721  0.0331 -0.0809
  173loPI    C1 2753  13.295   1.629  11.115 -0.0458  0.0898  0.0135
  173loPI    C2 2754  12.915   1.693  11.225  0.0023  0.0747  0.1919
  173loPI    C3 2755  13.212   1.757  11.485  0.1178  0.0221  0.0743
  173loPI   PO4 2756  13.271   1.645  10.888  0.1209 -0.0400  0.0043
  173loPI   GL1 2757  13.451   1.564  10.503 -0.2104 -0.1871  0.1768
  173loPI   GL2 2758  13.704   1.777  10.507 -0.1283 -0.2687 -0.0818
  173loPI   C1A 2759  13.278   1.604  10.108  0.1197 -0.0500  0.1518
  173loPI   C2A 2760  13.266   1.584   9.609  0.0496  0.0146  0.0295
  173loPI   C3A 2761  13.292   1.536   9.214  0.0995  0.0499  0.1630
  173loPI   C4A 2762  13.208   1.690   8.754  0.0811  0.2756  0.1248
  173loPI   C5A 2763  13.415   1.399   8.479 -0.1808  0.0883 -0.1596
  173loPI   C6A 2764  13.428   1.295   8.044 -0.0148 -0.2745 -0.0755
  173loPI   C1B 2765  13.804   1.685  10.134  0.1856  0.4159 -0.2245
  173loPI   C2B 2766  13.815   1.671   9.734 -0.2268  0.0331  0.0342
  173loPI   C3B 2767  13.812   1.594   9.252 -0.0840  0.2804  0.0409
  173loPI   C4B 2768  13.761   1.642   8.799  0.2372 -0.0860 -0.6532
  174loPI    C1 2769   2.495   2.271  11.048 -0.0599  0.0028 -0.0583
  174loPI    C2 2770   2.198   2.470  11.227  0.0782  0.1062  0.0584
  174loPI    C3 2771   2.576   2.525  11.346  0.1132 -0.2728  0.1349
  174loPI   PO4 2772   2.440   2.336  10.812 -0.4572  0.1036 -0.0226
  174loPI   GL1 2773   2.560   2.326  10.418 -0.1627  0.1850 -0.0328
  174loPI   GL2 2774   2.220   2.289  10.357 -0.2849 -0.0866  0.3390
  174loPI   C1A 2775   2.706   2.290  10.048  0.0024 -0.0366 -0.0712
  174loPI   C2A 2776   2.674   2.292   9.693  0.2328 -0.0075 -0.1323
  174loPI   C3A 2777   2.707   2.388   9.267  0.1916 -0.1346 -0.1994
  174loPI   C4A 2778   2.787   2.377   8.808  0.0935  0.3781 -0.0497
  174loPI   C5A 2779   3.233   2.351   8.677 -0.0287  0.4196 -0.0347
  174loPI   C6A 2780   3.486   2.037   8.768  0.1006 -0.0454 -0.0641
  174loPI   C1B 2781   2.210   2.275   9.889  0.2289  0.1670 -0.1715
  174loPI   C2B 2782   2.208   2.328   9.413  0.0608 -0.1627 -0.1447
  174loPI   C3B 2783   2.259   2.297   8.971 -0.2021  0.1718  0.2898
  174loPI   C4B 2784   2.287   2.313   8.510  0.0409  0.2097  0.0272
  175loPI    C1 2785   8.782   4.159  11.263 -0.1186 -0.0560  0.0138
  175loPI    C2 2786   8.710   4.550  11.223  0.0267 -0.0395 -0.0952
  175loPI    C3 2787   8.591   4.358  11.552 -0.0927  0.0849 -0.0648
  175loPI   PO4 2788   8.656   3.980  11.063 -0.0724  0.1025 -0.0054
  175loPI   GL1 2789   8.491   4.102  10.698  0.1444 -0.0298  0.0612
  175loPI   GL2 2790   8.460   4.439  10.728  0.1907 -0.1768 -0.0572
  175loPI   C1A 2791   8.540   4.296  10.274  0.3152 -0.1994  0.0745
  175loPI   C2A 2792   8.473   4.358   9.868 -0.0658  0.0913  0.2354
  175loPI   C3A 2793   8.594   4.348   9.462 -0.1044 -0.0351 -0.2639
  175loPI   C4A 2794   8.459   4.316   9.030 -0.0380 -0.0684 -0.2634
  175loPI   C5A 2795   8.626   4.221   8.645  0.0903 -0.2228 -0.2631
  175loPI   C6A 2796   9.053   4.269   8.449 -0.0144 -0.3049 -0.0902
  175loPI   C1B 2797   8.651   4.750  10.433 -0.0579 -0.0539 -0.1131
  175loPI   C2B 2798   8.642   4.849  10.023 -0.1367 -0.1804 -0.3075
  175loPI   C3B 2799   8.737   4.806   9.601  0.1217 -0.2524  0.1732
  175loPI   C4B 2800   8.713   4.861   9.114 -0.1307 -0.2564 -0.0185
  176loPI    C1 2801  17.621   5.924  11.082  0.0537  0.0468  0.0938
  176loPI    C2 2802  17.411   6.243  11.202  0.0392  0.1765 -0.2636
  176loPI    C3 2803  17.782   6.185  11.339 -0.1736  0.0144  0.2727
  176loPI   PO4 2804  17.556   5.914  10.868  0.1743 -0.0852  0.2297
  176loPI   GL1 2805  17.778   5.896  10.441  0.0096 -0.3044  0.0258
  176loPI   GL2 2806  17.741   6.234  10.283  0.2281 -0.0798  0.0466
  176loPI   C1A 2807  17.547   5.771  10.028 -0.1306  0.3580 -0.1795
  176loPI   C2A 2808  17.354   5.702   9.548  0.0094  0.0152 -0.2202
  176loPI   C3A 2809  17.404   5.707   9.054  0.2014  0.0459 -0.0884
  176loPI   C4A 2810  17.555   5.677   8.553  0.0696  0.0323 -0.0783
  176loPI   C5A 2811  17.892   5.504   8.325  0.1988  0.1775 -0.2005
  176loPI   C6A 2812  18.115   5.172   8.006 -0.1405  0.2012  0.2616
  176loPI   C1B 2813  17.820   6.215   9.870 -0.0643 -0.0019 -0.0136
  176loPI   C2B 2814  17.696   6.073   9.424 -0.2377 -0.0755 -0.1451
  176loPI   C3B 2815  17.631   6.187   9.076  0.4070  0.0869 -0.2337
  176loPI   C4B 2816  17.470   6.173   8.654 -0.1357  0.2149  0.1502
  177loPI    C1 2817   9.840   7.468  11.354 -0.1483  0.0729 -0.0358
  177loPI    C2 2818   9.558   7.316  11.594  0.1356 -0.0519  0.2264
  177loPI    C3 2819   9.944   7.270  11.686  0.2395  0.3870  0.0369
  177loPI   PO4 2820   9.624   7.519  11.100  0.2549  0.1173  0.0459
  177loPI   GL1 2821   9.449   7.423  10.794 -0.1468 -0.0462  0.3027
  177loPI   GL2 2822   9.258   7.500  10.691  0.1006  0.3921 -0.0362
  177loPI   C1A 2823   9.540   7.491  10.338 -0.1348  0.1864 -0.1273
  177loPI   C2A 2824   9.511   7.568   9.865  0.2526 -0.0102 -0.1456
  177loPI   C3A 2825   9.496   7.610   9.463  0.0511 -0.0253  0.0459
  177loPI   C4A 2826   9.482   7.609   9.074 -0.2433 -0.0663  0.0020
  177loPI   C5A 2827   9.585   7.558   8.653  0.1453 -0.3390  0.1159
  177loPI   C6A 2828   9.965   7.343   8.398  0.1736  0.2081 -0.1053
  177loPI   C1B 2829   8.982   7.574  10.238 -0.1888  0.0543 -0.0770
  177loPI   C2B 2830   8.975   7.495   9.775 -0.0901  0.0575  0.1044
  177loPI   C3B 2831   9.009   7.556   9.325  0.2234 -0.2070  0.1988
  177loPI   C4B 2832   9.018   7.558   8.912 -0.3523 -0.1310 -0.0056
  178loPI    C1 2833  10.624   5.099  11.500  0.1960  0.0855  0.1872
  178loPI    C2 2834  10.623   4.735  11.665 -0.1767 -0.0479 -0.0955
  178loPI    C3 2835  10.402   5.028  11.824 -0.2054 -0.0607 -0.1118
  178loPI   PO4 2836  10.751   5.012  11.297 -0.0074  0.0963 -0.0090
  178loPI   GL1 2837  10.573   4.970  10.897 -0.4368  0.0528  0.1756
  178loPI   GL2 2838  10.588   4.747  10.761  0.1295 -0.0226  0.0156
  178loPI   C1A 2839  10.550   5.327  10.659 -0.1980 -0.3042 -0.2673
  178loPI   C2A 2840  10.571   5.381  10.254 -0.1793  0.2615  0.3028
  178loPI   C3A 2841  10.541   5.473   9.816 -0.0151 -0.0912 -0.0086
  178loPI   C4A 2842  10.485   5.454   9.505 -0.4666 -0.0462  0.2036
  178loPI   C5A 2843  10.478   5.443   9.131  0.1438 -0.0816 -0.1449
  178loPI   C6A 2844  10.241   5.633   8.746  0.2827  0.4493 -0.1910
  178loPI   C1B 2845  10.597   4.562  10.332 -0.0440  0.3192  0.0859
  178loPI   C2B 2846  10.598   4.625   9.945 -0.2601  0.3408 -0.2597
  178loPI   C3B 2847  10.538   4.574   9.455 -0.1121 -0.1162 -0.1531
  178loPI   C4B 2848  10.666   4.615   9.025 -0.1355 -0.4113 -0.3124
  179loPI    C1 2849  14.480   3.063  10.907 -0.1148  0.0547  0.1498
  179loPI    C2 2850  14.793   3.058  11.156  0.0054  0.0575  0.0005
  179loPI    C3 2851  14.753   3.355  10.891  0.0140 -0.0777 -0.1542
  179loPI   PO4 2852  14.476   2.879  10.824  0.1642 -0.2840  0.0452
  179loPI   GL1 2853  14.654   2.727  10.482 -0.1200 -0.3172  0.1227
  179loPI   GL2 2854  15.014   2.782  10.607 -0.2407 -0.0414 -0.1546
  179loPI   C1A 2855  14.753   2.689  10.036  0.1023  0.0225  0.1277
  179loPI   C2A 2856  14.752   2.687   9.620 -0.2522 -0.0889  0.2484
  179loPI   C3A 2857  14.738   2.602   9.223 -0.0677 -0.0793  0.0344
  179loPI   C4A 2858  14.631   2.515   8.766 -0.0207 -0.1559  0.2099
  179loPI   C5A 2859  14.541   2.845   8.428 -0.0186 -0.1770 -0.1284
  179loPI   C6A 2860  14.295   3.174   8.562  0.0156  0.0759  0.2856
  179loPI   C1B 2861  15.246   2.809  10.211  0.0822  0.1742 -0.2080
  179loPI   C2B 2862  15.206   2.789   9.758  0.0157  0.0849  0.4719
  179loPI   C3B 2863  15.250   2.709   9.328 -0.3062  0.0567  0.2037
  179loPI   C4B 2864  15.141   2.765   8.960  0.1098 -0.2109 -0.0219
  180loPI    C1 2865   8.335   1.814  11.415  0.1000  0.2806  0.1384
  180loPI    C2 2866   8.324   2.192  11.286  0.0480  0.3075  0.2216
  180loPI    C3 2867   8.014   2.040  11.488 -0.0746  0.1160 -0.1043
  180loPI   PO4 2868   8.422   1.697  11.118 -0.2208 -0.1092 -0.1938
  180loPI   GL1 2869   8.289   1.602  10.739 -0.0213 -0.2285 -0.1295
  180loPI   GL2 2870   8.238   1.236  10.712 -0.2008 -0.3269  0.0963
  180loPI   C1A 2871   8.298   1.585  10.368  0.5394 -0.0254 -0.2111
  180loPI   C2A 2872   8.365   1.654   9.934 -0.0945  0.0516 -0.0138
  180loPI   C3A 2873   8.296   1.513   9.554 -0.0550  0.0723 -0.3484
  180loPI   C4A 2874   8.272   1.585   9.158  0.0489 -0.0312  0.0889
  180loPI   C5A 2875   8.273   1.508   8.741 -0.2255 -0.0131  0.0725
  180loPI   C6A 2876   8.261   1.289   8.332 -0.6340 -0.0668 -0.1026
  180loPI   C1B 2877   8.081   1.188  10.259  0.0665 -0.3011  0.0328
  180loPI   C2B 2878   8.028   1.149   9.855 -0.1126 -0.2232 -0.2397
  180loPI   C3B 2879   8.097   1.065   9.427 -0.1274 -0.1569  0.1705
  180loPI   C4B 2880   7.955   1.037   9.011 -0.1706  0.3834  0.0862
  181loPI    C1 2881  17.347   9.457  11.120 -0.0746 -0.2286 -0.0837
  181loPI    C2 2882  16.969   9.582  11.082 -0.0386 -0.0642  0.0868
  181loPI    C3 2883  17.069   9.335  11.380 -0.0040 -0.0760  0.0655
  181loPI   PO4 2884  17.373   9.487  10.817  0.2313  0.1491  0.1931
  181loPI   GL1 2885  17.282   9.546  10.419  0.2465 -0.2671 -0.4742
  181loPI   GL2 2886  17.276   9.816  10.389 -0.3145  0.2659  0.2728
  181loPI   C1A 2887  17.138   9.298  10.070 -0.1110 -0.0080  0.2231
  181loPI   C2A 2888  17.081   9.370   9.670  0.2644  0.1930  0.0539
  181loPI   C3A 2889  17.139   9.371   9.216 -0.1155  0.1255  0.3878
  181loPI   C4A 2890  17.214   9.399   8.784  0.1687  0.0946  0.2197
  181loPI   C5A 2891  17.283   9.588   8.375  0.1712 -0.1309 -0.5037
  181loPI   C6A 2892  17.622   9.871   8.304 -0.0046 -0.4341 -0.1540
  181loPI   C1B 2893  17.254   9.752  10.009 -0.0049  0.1802 -0.1263
  181loPI   C2B 2894  17.233   9.807   9.616  0.4684 -0.0030 -0.0098
  181loPI   C3B 2895  17.368   9.798   9.224  0.1514  0.0289 -0.3981
  181loPI   C4B 2896  17.320   9.905   8.772 -0.0294  0.0896  0.1011
  182loPI    C1 2897  14.760   2.326  11.423  0.1821 -0.2199  0.0505
  182loPI    C2 2898  14.788   2.323  11.822 -0.4400  0.2351  0.1134
  182loPI    C3 2899  14.803   2.670  11.623 -0.1099  0.0105 -0.2704
  182loPI   PO4 2900  14.875   2.156  11.352 -0.1460 -0.0999  0.0384
  182loPI   GL1 2901  15.024   2.131  10.935 -0.0276  0.0846  0.0643
  182loPI   GL2 2902  15.151   2.305  10.737 -0.1853 -0.0731 -0.1356
  182loPI   C1A 2903  14.864   1.934  10.549 -0.1105  0.2582 -0.0702
  182loPI   C2A 2904  14.753   1.840  10.120  0.0673  0.0094 -0.1109
  182loPI   C3A 2905  14.793   1.733   9.645  0.0517 -0.3198  0.1798
  182loPI   C4A 2906  14.779   1.777   9.224  0.0656 -0.2395 -0.0974
  182loPI   C5A 2907  14.755   1.801   8.778  0.2777 -0.0481  0.1569
  182loPI   C6A 2908  14.920   2.147   8.527 -0.1926 -0.2641 -0.0576
  182loPI   C1B 2909  15.080   2.342  10.297  0.1308  0.0617  0.0251
  182loPI   C2B 2910  15.044   2.331   9.899 -0.1445 -0.0195 -0.0075
  182loPI   C3B 2911  15.048   2.236   9.456  0.4232 -0.2007 -0.0377
  182loPI   C4B 2912  15.011   2.215   9.014  0.1240  0.2329 -0.2823
  183loPI    C1 2913   8.383  12.281  10.859  0.0768 -0.0536  0.1644
  183loPI    C2 2914   8.443  12.408  11.233  0.0112 -0.0575  0.1762
  183loPI    C3 2915   8.314  12.035  11.167  0.0588 -0.0690  0.1481
  183loPI   PO4 2916   8.322  12.505  10.691  0.0349  0.1219 -0.0939
  183loPI   GL1 2917   8.140  12.446  10.310 -0.1006 -0.0447  0.0287
  183loPI   GL2 2918   7.948  12.761  10.425 -0.2993 -0.2198 -0.0528
  183loPI   C1A 2919   8.264  12.433   9.962 -0.1482 -0.0274  0.0323
  183loPI   C2A 2920   8.186  12.420   9.578 -0.2954  0.1762 -0.2295
  183loPI   C3A 2921   8.187  12.372   9.149  0.0400 -0.1140 -0.1937
  183loPI   C4A 2922   8.061  12.487   8.785  0.1295  0.1045  0.1963
  183loPI   C5A 2923   7.872  12.348   8.436  0.0654  0.1211  0.0692
  183loPI   C6A 2924   7.888  12.519   7.996  0.3377 -0.3463  0.2680
  183loPI   C1B 2925   7.929  12.860   9.946 -0.0722  0.1790  0.1088
  183loPI   C2B 2926   7.936  12.842   9.482  0.0421 -0.1339 -0.0727
  183loPI   C3B 2927   7.781  12.893   9.045 -0.1057  0.0019  0.2412
  183loPI   C4B 2928   7.870  12.940   8.574  0.0965  0.0648 -0.0249
  184loPI    C1 2929   6.096   0.232  11.054  0.2123 -0.0307  0.1743
  184loPI    C2 2930   5.759   0.382  11.208  0.1839  0.0183  0.0659
  184loPI    C3 2931   6.096   0.386  11.423  0.1504  0.1074  0.1175
  184loPI   PO4 2932   6.098   0.281  10.845  0.1126  0.1803 -0.1167
  184loPI   GL1 2933   6.191   0.555  10.528 -0.1565 -0.1694 -0.1498
  184loPI   GL2 2934   6.127   0.883  10.328 -0.0908 -0.0893 -0.1503
  184loPI   C1A 2935   6.243   0.454  10.116  0.0534  0.0386 -0.0089
  184loPI   C2A 2936   6.202   0.434   9.680 -0.1791 -0.3369  0.3208
  184loPI   C3A 2937   6.296   0.501   9.280 -0.1389  0.2175 -0.1003
  184loPI   C4A 2938   6.315   0.563   8.813  0.1111  0.1198  0.2322
  184loPI   C5A 2939   6.421   0.586   8.434  0.0889 -0.0627  0.2030
  184loPI   C6A 2940   6.364   0.956   8.217 -0.0486 -0.1214 -0.0879
  184loPI   C1B 2941   5.901   0.909   9.879  0.1797 -0.1360 -0.1112
  184loPI   C2B 2942   5.922   0.953   9.493 -0.0090  0.2425  0.0561
  184loPI   C3B 2943   5.995   0.926   9.051 -0.4405 -0.3692 -0.0700
  184loPI   C4B 2944   6.052   0.963   8.605 -0.0197 -0.3428 -0.0588
  185loPI    C1 2945  17.516   5.263  11.403 -0.0243 -0.0597 -0.0518
  185loPI    C2 2946  17.841   5.192  11.625 -0.0294  0.1080  0.0110
  185loPI    C3 2947  17.518   5.360  11.791 -0.2028 -0.1905 -0.0171
  185loPI   PO4 2948  17.554   5.396  11.178 -0.1498 -0.1597  0.2389
  185loPI   GL1 2949  17.676   5.408  10.764 -0.3301 -0.0057 -0.0005
  185loPI   GL2 2950  17.453   5.246  10.607  0.1882  0.1884  0.1417
  185loPI   C1A 2951  17.744   5.353  10.264  0.1451 -0.1213 -0.1439
  185loPI   C2A 2952  17.826   5.397   9.853  0.1476 -0.0342  0.0132
  185loPI   C3A 2953  17.773   5.298   9.406  0.1943 -0.0464 -0.0388
  185loPI   C4A 2954  17.717   5.315   9.107  0.1711  0.2181 -0.3541
  185loPI   C5A 2955  17.640   5.162   8.638 -0.1125 -0.1802 -0.0595
  185loPI   C6A 2956  17.595   5.066   8.143 -0.0843 -0.2579  0.1237
  185loPI   C1B 2957  17.268   5.409  10.302  0.2083  0.2918  0.0468
  185loPI   C2B 2958  17.284   5.300   9.877 -0.2003 -0.1116  0.0815
  185loPI   C3B 2959  17.222   5.241   9.383  0.1433 -0.3137 -0.3078
  185loPI   C4B 2960  17.198   5.216   8.918 -0.5699  0.0297  0.0073
  186loPI    C1 2961   4.152   5.847  10.977  0.2395 -0.1345  0.0821
  186loPI    C2 2962   3.828   5.695  11.156  0.1671  0.0902  0.1455
  186loPI    C3 2963   4.190   5.641  11.318  0.1207  0.1463  0.2685
  186loPI   PO4 2964   4.143   5.742  10.688 -0.0410  0.2401 -0.3188
  186loPI   GL1 2965   4.278   5.377  10.411  0.0604  0.1548 -0.0482
  186loPI   GL2 2966   4.021   5.164  10.418 -0.1033 -0.1916  0.2862
  186loPI   C1A 2967   4.320   5.606  10.006  0.1569 -0.2122  0.1132
  186loPI   C2A 2968   4.207   5.479   9.525 -0.1304  0.2052 -0.0353
  186loPI   C3A 2969   4.125   5.579   9.020 -0.2629  0.0959 -0.0109
  186loPI   C4A 2970   4.063   5.510   8.622  0.1182 -0.0394  0.0338
  186loPI   C5A 2971   3.902   5.809   8.263 -0.1500  0.1122 -0.1303
  186loPI   C6A 2972   3.744   6.282   8.294  0.0569  0.3362 -0.0031
  186loPI   C1B 2973   3.993   5.164   9.868 -0.0951 -0.0382 -0.1051
  186loPI   C2B 2974   3.895   5.154   9.381  0.1077 -0.1063  0.0482
  186loPI   C3B 2975   3.918   5.112   8.860  0.0606 -0.1464 -0.0238
  186loPI   C4B 2976   3.755   5.058   8.437 -0.0393  0.2580 -0.0570
  187loPI    C1 2977  12.050  16.122  11.344  0.1582  0.3431 -0.1334
  187loPI    C2 2978  12.378  15.961  11.506 -0.3393 -0.2856  0.3017
  187loPI    C3 2979  12.212  16.285  11.672 -0.0534 -0.0776  0.1906
  187loPI   PO4 2980  12.031  16.077  11.136 -0.1191  0.1556  0.0539
  187loPI   GL1 2981  12.147  15.973  10.729  0.1969 -0.4099 -0.0320
  187loPI   GL2 2982  12.321  15.683  10.516  0.0998 -0.1630  0.0222
  187loPI   C1A 2983  12.252  16.079  10.210  0.1860 -0.1212 -0.1096
  187loPI   C2A 2984  12.189  16.058   9.768  0.1282 -0.1324 -0.0965
  187loPI   C3A 2985  12.290  16.063   9.300  0.1849  0.0072  0.0652
  187loPI   C4A 2986  12.219  16.084   8.927 -0.0288  0.1977  0.0372
  187loPI   C5A 2987  12.218  15.967   8.561 -0.0964  0.5250  0.3067
  187loPI   C6A 2988  12.499  16.255   8.371 -0.2740  0.2281  0.1558
  187loPI   C1B 2989  12.324  15.245  10.231  0.0079  0.1997  0.0389
  187loPI   C2B 2990  12.328  15.222   9.810 -0.1839  0.0576 -0.0106
  187loPI   C3B 2991  12.342  15.092   9.474 -0.1555 -0.1099 -0.0919
  187loPI   C4B 2992  12.376  15.186   9.084  0.2453  0.0745  0.0788
  188loPI    C1 2993  13.611   2.947  11.299  0.1116 -0.2999  0.2019
  188loPI    C2 2994  13.299   2.794  11.498 -0.0873 -0.1024  0.0473
  188loPI    C3 2995  13.501   3.104  11.650 -0.0857 -0.1081  0.0567
  188loPI   PO4 2996  13.482   2.978  11.043  0.1386 -0.3085  0.0593
  188loPI   GL1 2997  13.547   2.774  10.668 -0.2961 -0.4600  0.0707
  188loPI   GL2 2998  13.350   2.974  10.513  0.1643  0.0571  0.1285
  188loPI   C1A 2999  13.607   2.635  10.241 -0.1601  0.0425 -0.0294
  188loPI   C2A 3000  13.669   2.647   9.874 -0.0312  0.1131  0.0934
  188loPI   C3A 3001  13.676   2.504   9.476 -0.2534  0.1510  0.2412
  188loPI   C4A 3002  13.652   2.561   9.067 -0.1714 -0.0875  0.0797
  188loPI   C5A 3003  13.390   2.608   8.678 -0.1175  0.0224 -0.0697
  188loPI   C6A 3004  13.295   2.775   8.317  0.0589 -0.2949 -0.0190
  188loPI   C1B 3005  13.304   2.953  10.045  0.0932 -0.0567  0.1899
  188loPI   C2B 3006  13.377   2.994   9.639  0.0243  0.0590 -0.0059
  188loPI   C3B 3007  13.331   2.989   9.319  0.0557 -0.0143  0.0231
  188loPI   C4B 3008  13.271   3.051   8.805 -0.0607  0.5132  0.3222
  189loPI    C1 3009   7.432   6.709  11.199  0.0015 -0.3040  0.1439
  189loPI    C2 3010   7.790   6.766  11.369 -0.0253 -0.0503  0.1194
  189loPI    C3 3011   7.538   6.494  11.520  0.0962 -0.0855  0.2615
  189loPI   PO4 3012   7.457   6.801  10.945 -0.2915  0.2566  0.2135
  189loPI   GL1 3013   7.199   6.893  10.657  0.1840  0.1691 -0.1209
  189loPI   GL2 3014   7.225   7.248  10.628  0.2248  0.0718 -0.1875
  189loPI   C1A 3015   7.303   6.885  10.210 -0.1709 -0.1894 -0.4028
  189loPI   C2A 3016   7.316   6.959   9.743 -0.0594  0.1858  0.1139
  189loPI   C3A 3017   7.265   6.991   9.381  0.1367 -0.3010  0.0946
  189loPI   C4A 3018   7.200   7.097   8.931 -0.1972  0.1735 -0.1406
  189loPI   C5A 3019   7.308   7.397   8.663 -0.0231  0.1520 -0.0604
  189loPI   C6A 3020   7.569   7.705   8.428 -0.6471  0.0858  0.2393
  189loPI   C1B 3021   7.402   7.355  10.342 -0.1722 -0.1815  0.0143
  189loPI   C2B 3022   7.466   7.359   9.953 -0.2842  0.1246 -0.0419
  189loPI   C3B 3023   7.547   7.345   9.616 -0.2606 -0.0644 -0.0594
  189loPI   C4B 3024   7.419   7.508   9.179  0.3050  0.1864 -0.1104
  190loPI    C1 3025  13.432   1.049  10.994 -0.0627  0.0074 -0.0316
  190loPI    C2 3026  13.813   1.026  11.114 -0.0391  0.1748 -0.0721
  190loPI    C3 3027  13.542   1.208  11.344 -0.0810  0.1163 -0.0750
  190loPI   PO4 3028  13.420   1.107  10.712 -0.3456 -0.0492 -0.1189
  190loPI   GL1 3029  13.480   1.028  10.325  0.0349  0.2379 -0.0620
  190loPI   GL2 3030  13.362   0.680  10.458 -0.0630  0.0994  0.1488
  190loPI   C1A 3031  13.558   1.233   9.897  0.1496  0.1180  0.0223
  190loPI   C2A 3032  13.563   1.231   9.490  0.1149  0.0300  0.5454
  190loPI   C3A 3033  13.562   1.104   8.993  0.3899  0.1541 -0.2361
  190loPI   C4A 3034  13.623   0.907   8.550 -0.0052 -0.0538  0.2039
  190loPI   C5A 3035  13.553   0.683   8.188  0.0116 -0.1776 -0.0408
  190loPI   C6A 3036  13.177   0.426   8.098 -0.2180 -0.0830  0.0736
  190loPI   C1B 3037  13.332   0.706   9.963  0.0281  0.1813  0.0048
  190loPI   C2B 3038  13.366   0.713   9.448  0.0108 -0.3031 -0.1904
  190loPI   C3B 3039  13.340   0.657   8.995  0.0862 -0.2822  0.3357
  190loPI   C4B 3040  13.332   0.391   8.643 -0.2100  0.1170 -0.0095
  191loPI    C1 3041  14.789   6.963  10.870  0.1169  0.1950  0.0629
  191loPI    C2 3042  15.046   6.882  11.166  0.0494 -0.1085  0.0419
  191loPI    C3 3043  14.652   6.881  11.237  0.0405  0.0249 -0.0024
  191loPI   PO4 3044  14.872   6.882  10.678  0.0009  0.1722 -0.0874
  191loPI   GL1 3045  14.937   7.066  10.296  0.0746  0.0564 -0.4422
  191loPI   GL2 3046  15.037   6.807  10.191 -0.1481 -0.0018  0.1794
  191loPI   C1A 3047  14.826   7.191   9.913 -0.1105  0.0916  0.0553
  191loPI   C2A 3048  14.710   7.287   9.535  0.1143 -0.1862  0.0606
  191loPI   C3A 3049  14.658   7.386   9.114  0.3143  0.2237 -0.2346
  191loPI   C4A 3050  14.732   7.405   8.631 -0.1034 -0.0677 -0.0837
  191loPI   C5A 3051  15.065   7.297   8.316  0.1736 -0.0522  0.2245
  191loPI   C6A 3052  15.110   7.014   8.027 -0.2243  0.2153 -0.0886
  191loPI   C1B 3053  15.072   6.750   9.801 -0.1339  0.1911  0.0391
  191loPI   C2B 3054  15.111   6.922   9.399  0.0330  0.0449 -0.1864
  191loPI   C3B 3055  15.067   6.848   8.992 -0.1877  0.1007 -0.0046
  191loPI   C4B 3056  15.020   6.841   8.605  0.0326 -0.1310  0.6116
  192loPI    C1 3057  11.852  16.957  11.236  0.0042  0.0677  0.0559
  192loPI    C2 3058  12.007  16.614  11.369 -0.4428 -0.1687 -0.0146
  192loPI    C3 3059  11.751  16.819  11.597 -0.2584  0.0663 -0.0159
  192loPI   PO4 3060  11.858  16.978  10.885  0.0511  0.0095  0.0421
  192loPI   GL1 3061  12.120  16.892  10.559 -0.2270  0.1301  0.1578
  192loPI   GL2 3062  12.031  16.594  10.435 -0.2621 -0.1041 -0.0401
  192loPI   C1A 3063  12.159  17.005  10.161  0.1403  0.1077 -0.1025
  192loPI   C2A 3064  12.181  16.924   9.762  0.1218  0.1084 -0.1290
  192loPI   C3A 3065  12.108  16.874   9.358 -0.2608 -0.0739 -0.1619
  192loPI   C4A 3066  12.102  16.860   8.979 -0.0478 -0.0581 -0.2399
  192loPI   C5A 3067  12.217  17.106   8.597 -0.0319 -0.2052 -0.1623
  192loPI   C6A 3068  11.958  17.259   8.390 -0.0925  0.0980 -0.1245
  192loPI   C1B 3069  11.993  16.500  10.005  0.2448  0.2614 -0.1595
  192loPI   C2B 3070  11.899  16.508   9.648 -0.0611 -0.1068  0.0966
  192loPI   C3B 3071  11.892  16.415   9.253  0.2216 -0.0032  0.0141
  192loPI   C4B 3072  11.897  16.421   8.857  0.1206 -0.0748 -0.1654
  193loPI    C1 3073  16.503   7.622  11.060  0.2292  0.1974  0.4319
  193loPI    C2 3074  16.412   7.317  11.303  0.0011  0.0177  0.1286
  193loPI    C3 3075  16.144   7.607  11.237  0.1352  0.1690  0.2420
  193loPI   PO4 3076  16.636   7.452  10.871 -0.0276 -0.0147 -0.1842
  193loPI   GL1 3077  16.600   7.365  10.496 -0.1334 -0.1953  0.3056
  193loPI   GL2 3078  16.865   7.436  10.303  0.1267  0.1204 -0.1062
  193loPI   C1A 3079  16.287   7.372  10.092  0.0933  0.1036  0.1109
  193loPI   C2A 3080  16.312   7.473   9.614  0.0310 -0.1083 -0.0372
  193loPI   C3A 3081  16.269   7.536   9.206 -0.1645  0.2566 -0.3469
  193loPI   C4A 3082  16.291   7.530   8.809  0.0751 -0.1790 -0.0494
  193loPI   C5A 3083  16.482   7.288   8.391 -0.0304 -0.1160  0.1534
  193loPI   C6A 3084  16.828   6.951   8.458  0.1579 -0.0312  0.0508
  193loPI   C1B 3085  16.749   7.465   9.910 -0.1074 -0.1284 -0.0286
  193loPI   C2B 3086  16.794   7.495   9.432  0.1721  0.2114  0.0728
  193loPI   C3B 3087  16.732   7.491   9.067 -0.0046 -0.3179  0.0064
  193loPI   C4B 3088  16.752   7.717   8.653  0.2602  0.1923 -0.0672
  194loPI    C1 3089   4.124   6.749  11.130 -0.1885 -0.0129  0.2448
  194loPI    C2 3090   4.044   6.625  11.502  0.2051 -0.2714  0.2494
  194loPI    C3 3091   4.376   6.836  11.428  0.0898 -0.1543  0.0553
  194loPI   PO4 3092   3.824   6.623  10.982 -0.1348 -0.0025  0.1005
  194loPI   GL1 3093   3.904   6.595  10.501 -0.0523 -0.0344  0.0499
  194loPI   GL2 3094   3.638   6.534  10.441  0.0532  0.3054  0.0420
  194loPI   C1A 3095   4.126   6.574  10.139 -0.0685 -0.3152 -0.2266
  194loPI   C2A 3096   4.163   6.496   9.648  0.3097  0.0658  0.2039
  194loPI   C3A 3097   4.110   6.596   9.242  0.0895  0.2160 -0.0192
  194loPI   C4A 3098   4.097   6.606   8.754  0.3273  0.2030  0.3214
  194loPI   C5A 3099   4.040   6.668   8.290 -0.2991  0.1040 -0.1165
  194loPI   C6A 3100   4.039   6.606   7.818  0.1230  0.3033  0.0123
  194loPI   C1B 3101   3.645   6.519   9.948  0.1803 -0.0133 -0.1398
  194loPI   C2B 3102   3.549   6.432   9.544  0.1983 -0.3088 -0.1625
  194loPI   C3B 3103   3.538   6.454   9.174 -0.1652  0.1660  0.0435
  194loPI   C4B 3104   3.641   6.422   8.741  0.1810 -0.3781  0.0838
  195loPI    C1 3105  14.964  11.549  11.012 -0.1567 -0.0587 -0.0178
  195loPI    C2 3106  15.257  11.406  11.243 -0.1519 -0.0728 -0.0327
  195loPI    C3 3107  14.930  11.564  11.410 -0.0990  0.0198 -0.0157
  195loPI   PO4 3108  14.936  11.627  10.752 -0.0762  0.2045  0.0082
  195loPI   GL1 3109  14.824  11.702  10.335 -0.5474  0.2498 -0.1448
  195loPI   GL2 3110  15.019  11.419  10.199 -0.0383 -0.0122 -0.3466
  195loPI   C1A 3111  14.709  11.849   9.938 -0.0430  0.0522 -0.1189
  195loPI   C2A 3112  14.755  11.859   9.493  0.0248  0.0828 -0.0520
  195loPI   C3A 3113  14.742  11.844   9.122 -0.0666 -0.0353 -0.3609
  195loPI   C4A 3114  14.675  11.827   8.670  0.2167 -0.1430 -0.2554
  195loPI   C5A 3115  14.752  12.112   8.343 -0.2898 -0.0320  0.2766
  195loPI   C6A 3116  14.822  12.240   7.938 -0.0604 -0.1370 -0.2012
  195loPI   C1B 3117  15.043  11.470   9.789 -0.0088 -0.2578 -0.1099
  195loPI   C2B 3118  15.049  11.425   9.337 -0.1597  0.2747  0.2455
  195loPI   C3B 3119  15.037  11.327   8.917 -0.0672  0.0180  0.0430
  195loPI   C4B 3120  15.044  11.352   8.484  0.4249 -0.2542 -0.0910
  196loPI    C1 3121   6.469   7.874  11.071  0.0806  0.0885 -0.0105
  196loPI    C2 3122   6.645   7.866  11.429 -0.1282  0.1094  0.0944
  196loPI    C3 3123   6.380   7.583  11.331  0.2141 -0.1200 -0.1946
  196loPI   PO4 3124   6.601   7.875  10.911  0.1868 -0.1894  0.1807
  196loPI   GL1 3125   6.489   7.982  10.470  0.5147  0.0059 -0.0669
  196loPI   GL2 3126   6.711   8.225  10.567  0.0610  0.0951  0.0596
  196loPI   C1A 3127   6.408   8.201  10.129  0.0433  0.1563 -0.0374
  196loPI   C2A 3128   6.343   8.163   9.689 -0.4336 -0.3369  0.1369
  196loPI   C3A 3129   6.292   8.242   9.200  0.0521  0.0568 -0.0122
  196loPI   C4A 3130   6.255   8.237   8.767 -0.3811 -0.2357  0.3108
  196loPI   C5A 3131   6.257   8.279   8.366 -0.0501  0.2203  0.1522
  196loPI   C6A 3132   6.253   8.721   8.161  0.1165  0.1960 -0.1923
  196loPI   C1B 3133   6.954   8.274  10.267  0.2361  0.1010  0.2453
  196loPI   C2B 3134   6.853   8.217   9.802  0.2388 -0.0457 -0.1901
  196loPI   C3B 3135   6.759   8.250   9.402  0.1723  0.5133 -0.2086
  196loPI   C4B 3136   6.775   8.299   8.974  0.1110  0.0192 -0.0153
  197loPI    C1 3137  17.120  12.751  11.090  0.0125  0.2406  0.2396
  197loPI    C2 3138  17.139  12.414  11.304 -0.0699  0.0286 -0.0802
  197loPI    C3 3139  17.169  12.768  11.487 -0.0728 -0.1476  0.2709
  197loPI   PO4 3140  17.212  12.693  10.910 -0.0933 -0.1645 -0.0524
  197loPI   GL1 3141  17.430  12.749  10.519 -0.0292 -0.0311  0.2755
  197loPI   GL2 3142  17.625  12.578  10.390 -0.0860  0.1785  0.2035
  197loPI   C1A 3143  17.341  12.888  10.136 -0.0657 -0.0536  0.0449
  197loPI   C2A 3144  17.179  12.934   9.718 -0.0185  0.0488 -0.0284
  197loPI   C3A 3145  17.185  12.957   9.291  0.0506 -0.1015  0.1818
  197loPI   C4A 3146  17.172  13.050   8.804 -0.3050  0.0803 -0.1751
  197loPI   C5A 3147  17.263  13.059   8.492 -0.0483 -0.1797  0.3512
  197loPI   C6A 3148  17.242  13.339   8.210  0.1724  0.1693 -0.3722
  197loPI   C1B 3149  17.639  12.577   9.902  0.0148  0.0821 -0.0606
  197loPI   C2B 3150  17.469  12.543   9.421  0.1301 -0.3111  0.0365
  197loPI   C3B 3151  17.475  12.606   8.980 -0.2104 -0.0303  0.0237
  197loPI   C4B 3152  17.648  12.641   8.527  0.0312 -0.0009  0.1674
  198loPI    C1 3153   9.610   8.318  11.343 -0.1659 -0.1945 -0.0752
  198loPI    C2 3154   9.677   7.926  11.392 -0.2166 -0.1953 -0.0122
  198loPI    C3 3155   9.377   8.104  11.588 -0.0003 -0.0610  0.2037
  198loPI   PO4 3156   9.713   8.317  11.084  0.2957  0.0124 -0.3004
  198loPI   GL1 3157   9.551   8.320  10.657 -0.0453 -0.2151 -0.0083
  198loPI   GL2 3158   9.614   8.678  10.769  0.1486 -0.0756  0.0432
  198loPI   C1A 3159   9.407   8.509  10.315 -0.0793 -0.0219 -0.2598
  198loPI   C2A 3160   9.395   8.453   9.948 -0.4733  0.1375  0.3439
  198loPI   C3A 3161   9.437   8.543   9.528 -0.1534 -0.2829 -0.0348
  198loPI   C4A 3162   9.356   8.603   9.115 -0.2999 -0.1071 -0.0563
  198loPI   C5A 3163   9.376   8.462   8.746 -0.0916  0.0438 -0.0786
  198loPI   C6A 3164   9.125   8.360   8.439  0.1080 -0.0836 -0.0710
  198loPI   C1B 3165   9.914   8.540  10.434  0.2383  0.2604 -0.1835
  198loPI   C2B 3166   9.902   8.539  10.006 -0.0149  0.0347 -0.0869
  198loPI   C3B 3167   9.923   8.419   9.581  0.1491 -0.3588 -0.2896
  198loPI   C4B 3168   9.896   8.444   9.178  0.6719 -0.0528  0.1504
  199loPI    C1 3169   1.170  14.038  11.375  0.2181 -0.2777 -0.0749
  199loPI    C2 3170   1.459  14.034  11.652  0.0080  0.0939  0.1582
  199loPI    C3 3171   1.145  14.279  11.693 -0.1904 -0.0815 -0.2476
  199loPI   PO4 3172   1.306  14.084  11.165  0.1148  0.1232 -0.1948
  199loPI   GL1 3173   1.548  13.893  10.773 -0.0383 -0.2475 -0.2109
  199loPI   GL2 3174   1.509  14.165  10.576  0.1172 -0.1788  0.0545
  199loPI   C1A 3175   1.301  13.645  10.443  0.0979  0.1998 -0.0750
  199loPI   C2A 3176   1.274  13.578  10.016  0.0782 -0.4811 -0.0748
  199loPI   C3A 3177   1.263  13.593   9.575  0.1198  0.0185  0.0645
  199loPI   C4A 3178   1.310  13.615   9.110 -0.0698  0.2107  0.2284
  199loPI   C5A 3179   1.399  13.606   8.650 -0.0749 -0.3813 -0.0408
  199loPI   C6A 3180   1.550  13.863   8.333 -0.1788 -0.2724  0.1210
  199loPI   C1B 3181   1.539  14.058  10.171 -0.1302 -0.3366 -0.3167
  199loPI   C2B 3182   1.416  14.045   9.792  0.0713  0.1620  0.0703
  199loPI   C3B 3183   1.427  14.114   9.344  0.3347 -0.1180  0.0878
  199loPI   C4B 3184   1.468  14.023   8.946 -0.0457  0.0936  0.0808
  200loPI    C1 3185   7.084  12.466  11.187  0.0369  0.0091 -0.1675
  200loPI    C2 3186   6.896  12.708  11.444 -0.0942 -0.1336 -0.1274
  200loPI    C3 3187   7.291  12.739  11.393 -0.1136  0.1064 -0.1434
  200loPI   PO4 3188   6.962  12.495  10.968  0.1809  0.1606  0.0650
  200loPI   GL1 3189   6.621  12.811  10.752  0.0294  0.3364  0.1984
  200loPI   GL2 3190   6.285  12.853  10.630  0.2659 -0.3642  0.1006
  200loPI   C1A 3191   6.782  12.770  10.407  0.1861 -0.0130 -0.2785
  200loPI   C2A 3192   6.895  12.802   9.889  0.0525  0.0235 -0.2584
  200loPI   C3A 3193   6.847  12.689   9.445 -0.0529 -0.2330 -0.1146
  200loPI   C4A 3194   6.874  12.681   8.991  0.1105 -0.2643 -0.0767
  200loPI   C5A 3195   6.829  12.691   8.503  0.3978 -0.0507 -0.4778
  200loPI   C6A 3196   6.635  12.877   8.179  0.4428  0.3597  0.1458
  200loPI   C1B 3197   6.324  12.785  10.202 -0.1822  0.1897  0.1733
  200loPI   C2B 3198   6.405  12.687   9.756  0.1968  0.1574  0.0508
  200loPI   C3B 3199   6.307  12.677   9.351 -0.1810  0.2323  0.0220
  200loPI   C4B 3200   6.363  12.672   8.933  0.0794  0.0217  0.1254
  201loPI    C1 3201   1.106   2.681  11.117 -0.0495 -0.0575  0.0637
  201loPI    C2 3202   0.967   2.905  11.418 -0.1914  0.1369 -0.1427
  201loPI    C3 3203   1.259   2.640  11.484 -0.3166  0.0777  0.1932
  201loPI   PO4 3204   1.087   2.827  10.930 -0.1869  0.0296  0.0549
  201loPI   GL1 3205   1.337   2.687  10.637  0.0754  0.1962  0.1053
  201loPI   GL2 3206   1.308   2.393  10.692 -0.0536 -0.4291 -0.2521
  201loPI   C1A 3207   1.393   2.678  10.225  0.0976  0.0505 -0.0404
  201loPI   C2A 3208   1.398   2.674   9.778  0.2470 -0.0617  0.1064
  201loPI   C3A 3209   1.346   2.652   9.336 -0.1420  0.0328 -0.2467
  201loPI   C4A 3210   1.377   2.707   8.828  0.1290  0.0667 -0.0483
  201loPI   C5A 3211   1.306   2.960   8.366 -0.2390  0.1854  0.1348
  201loPI   C6A 3212   1.244   2.795   8.003  0.2418 -0.3477  0.0097
  201loPI   C1B 3213   1.086   2.280  10.271  0.1219  0.2343 -0.2674
  201loPI   C2B 3214   1.037   2.185   9.881 -0.1311 -0.0660  0.2005
  201loPI   C3B 3215   1.073   2.237   9.448  0.1536 -0.2021 -0.1102
  201loPI   C4B 3216   1.296   2.240   9.030 -0.1520  0.0154  0.1414
  202loPI    C1 3217  10.215   7.079  11.346 -0.1052  0.2682 -0.1460
  202loPI    C2 3218  10.439   7.099  11.677  0.1421 -0.0578 -0.2882
  202loPI    C3 3219  10.420   7.413  11.430 -0.0759  0.2023  0.0495
  202loPI   PO4 3220  10.250   6.913  11.188 -0.1260 -0.0892  0.2283
  202loPI   GL1 3221  10.497   7.053  10.772  0.0993 -0.1078  0.2037
  202loPI   GL2 3222  10.290   6.776  10.705 -0.1129  0.0264  0.0623
  202loPI   C1A 3223  10.365   7.215  10.340 -0.1969  0.3414 -0.2137
  202loPI   C2A 3224  10.322   7.142   9.940 -0.1001  0.1270 -0.1843
  202loPI   C3A 3225  10.283   7.255   9.493 -0.1826  0.0650  0.0294
  202loPI   C4A 3226  10.276   7.246   9.026 -0.2405  0.1027 -0.0027
  202loPI   C5A 3227  10.390   7.267   8.580 -0.1598 -0.0603  0.1207
  202loPI   C6A 3228  10.450   7.024   8.264 -0.2666 -0.4323  0.3075
  202loPI   C1B 3229  10.149   6.720  10.330  0.0194  0.0062 -0.1650
  202loPI   C2B 3230  10.081   6.673  10.024 -0.0407 -0.0778 -0.0281
  202loPI   C3B 3231  10.091   6.766   9.657  0.0451  0.0411 -0.0117
  202loPI   C4B 3232  10.078   6.815   9.152 -0.3199  0.0994 -0.3293
  203loPI    C1 3233   4.943  10.101  11.134 -0.1121 -0.0373  0.0749
  203loPI    C2 3234   4.967   9.912  11.485 -0.0189 -0.1881 -0.0115
  203loPI    C3 3235   5.273  10.134  11.356 -0.0190 -0.2023 -0.0363
  203loPI   PO4 3236   4.974   9.987  10.880  0.3598 -0.0167 -0.0706
  203loPI   GL1 3237   5.177   9.977  10.506  0.0107  0.1586 -0.3195
  203loPI   GL2 3238   4.873  10.199  10.465 -0.3160 -0.1421  0.1279
  203loPI   C1A 3239   5.218   9.861  10.195  0.0316  0.0599 -0.2263
  203loPI   C2A 3240   5.221   9.931   9.757 -0.1420 -0.0346 -0.0667
  203loPI   C3A 3241   5.109   9.842   9.289 -0.1380 -0.1810  0.3215
  203loPI   C4A 3242   5.029   9.728   8.834  0.0083 -0.0829  0.2586
  203loPI   C5A 3243   4.826   9.791   8.488 -0.0128 -0.0687 -0.2713
  203loPI   C6A 3244   4.457   9.866   8.325  0.1336  0.1368  0.0035
  203loPI   C1B 3245   4.904  10.252  10.060  0.2078  0.3188  0.2527
  203loPI   C2B 3246   4.888  10.291   9.683 -0.2569 -0.1432  0.2672
  203loPI   C3B 3247   4.761  10.269   9.322  0.1533 -0.0640  0.4813
  203loPI   C4B 3248   4.717  10.216   8.845  0.0075 -0.0066 -0.2370
  204loPI    C1 3249   6.932   4.376  11.230 -0.1713  0.0045  0.0828
  204loPI    C2 3250   7.119   4.669  11.428 -0.2823  0.1045  0.0406
  204loPI    C3 3251   7.049   4.319  11.608 -0.0810  0.0761  0.0658
  204loPI   PO4 3252   6.976   4.325  10.985  0.0421  0.0209 -0.0042
  204loPI   GL1 3253   7.095   4.478  10.633  0.2939 -0.0618  0.3177
  204loPI   GL2 3254   7.018   4.246  10.491  0.3592  0.0532 -0.0579
  204loPI   C1A 3255   7.212   4.654  10.356 -0.1301  0.1017 -0.3962
  204loPI   C2A 3256   7.194   4.700   9.908 -0.0399  0.1530  0.1307
  204loPI   C3A 3257   7.202   4.684   9.491  0.3289  0.0655 -0.2046
  204loPI   C4A 3258   7.140   4.567   9.117  0.1244 -0.1659  0.1440
  204loPI   C5A 3259   7.181   4.622   8.727  0.2223 -0.2907 -0.1892
  204loPI   C6A 3260   7.175   4.874   8.261 -0.1437 -0.0175 -0.0978
  204loPI   C1B 3261   7.002   4.206  10.032  0.0684 -0.0721  0.0523
  204loPI   C2B 3262   7.016   4.263   9.627 -0.0251  0.1916 -0.0257
  204loPI   C3B 3263   6.994   4.090   9.249 -0.0817 -0.1423  0.0359
  204loPI   C4B 3264   6.938   4.104   8.721 -0.1176 -0.1976 -0.2450
  205loPI    C1 3265  14.290   1.317  11.249  0.1906 -0.0840 -0.1577
  205loPI    C2 3266  14.305   1.632  11.495  0.1019 -0.0552 -0.1884
  205loPI    C3 3267  14.085   1.312  11.592  0.0750 -0.0480 -0.2255
  205loPI   PO4 3268  14.190   1.385  11.061  0.0354  0.2328 -0.0696
  205loPI   GL1 3269  14.110   1.219  10.625  0.0302  0.4329  0.1966
  205loPI   GL2 3270  13.879   0.876  10.595 -0.3433 -0.2761  0.1292
  205loPI   C1A 3271  14.041   1.188  10.211  0.1031  0.3810  0.2802
  205loPI   C2A 3272  14.126   1.263   9.801  0.0483 -0.1923  0.1141
  205loPI   C3A 3273  14.080   1.172   9.418 -0.1406  0.3851  0.1501
  205loPI   C4A 3274  14.078   1.188   9.130  0.0439 -0.3658 -0.1223
  205loPI   C5A 3275  14.101   1.235   8.686  0.1657  0.0976  0.0621
  205loPI   C6A 3276  13.973   1.202   8.232 -0.0941  0.0856  0.1897
  205loPI   C1B 3277  13.835   0.764  10.107 -0.0920 -0.0532 -0.2276
  205loPI   C2B 3278  13.876   0.812   9.748  0.0432 -0.2351 -0.1100
  205loPI   C3B 3279  13.836   0.716   9.345 -0.2350 -0.6002  0.1827
  205loPI   C4B 3280  13.928   0.745   8.997  0.2531  0.0918  0.1090
  206loPI    C1 3281   7.727   9.013  11.444 -0.0897  0.1933  0.0932
  206loPI    C2 3282   7.427   8.825  11.630 -0.1039  0.2067  0.0839
  206loPI    C3 3283   7.775   8.882  11.819 -0.0669  0.0858  0.0532
  206loPI   PO4 3284   7.700   8.828  11.168  0.3623  0.0132  0.0462
  206loPI   GL1 3285   7.889   8.766  10.804  0.1064 -0.0335  0.0532
  206loPI   GL2 3286   7.514   8.799  10.658  0.1172 -0.1782 -0.0642
  206loPI   C1A 3287   8.108   8.762  10.322 -0.2134  0.2379  0.2213
  206loPI   C2A 3288   8.114   8.719   9.825  0.0247  0.1015  0.0896
  206loPI   C3A 3289   8.090   8.768   9.335 -0.2990  0.1721 -0.1664
  206loPI   C4A 3290   8.002   8.859   8.981  0.2917  0.1412 -0.1326
  206loPI   C5A 3291   7.925   8.894   8.521  0.1023 -0.0602 -0.1347
  206loPI   C6A 3292   7.529   8.959   8.346  0.0552  0.0655  0.2653
  206loPI   C1B 3293   7.610   8.750  10.291  0.0171 -0.3046  0.0404
  206loPI   C2B 3294   7.629   8.747   9.803  0.2934 -0.1979 -0.0389
  206loPI   C3B 3295   7.518   8.754   9.352 -0.2411  0.0495 -0.0603
  206loPI   C4B 3296   7.533   8.788   8.895 -0.1140 -0.1561  0.1158
  207loPI    C1 3297  11.460  11.382  11.021 -0.0614  0.1881  0.1705
  207loPI    C2 3298  11.345  11.158  11.332 -0.0263  0.1878  0.1833
  207loPI    C3 3299  11.712  11.318  11.325  0.1207 -0.1448 -0.0433
  207loPI   PO4 3300  11.236  11.344  10.875  0.0201 -0.0679  0.2083
  207loPI   GL1 3301  11.238  11.232  10.603  0.1505 -0.0139  0.2878
  207loPI   GL2 3302  11.492  11.056  10.455  0.0626  0.1390  0.0276
  207loPI   C1A 3303  11.262  11.372  10.201 -0.1409  0.1240  0.2556
  207loPI   C2A 3304  11.157  11.376   9.830  0.0905  0.1847 -0.0588
  207loPI   C3A 3305  11.136  11.362   9.398 -0.0832  0.0592  0.0175
  207loPI   C4A 3306  11.067  11.379   8.975  0.1327 -0.2646 -0.2322
  207loPI   C5A 3307  11.194  11.362   8.530 -0.3019  0.0502 -0.1805
  207loPI   C6A 3308  11.583  11.527   8.338  0.3046 -0.1287  0.0665
  207loPI   C1B 3309  11.453  10.957  10.004 -0.2110  0.0157 -0.1175
  207loPI   C2B 3310  11.470  10.966   9.575  0.4039 -0.0982  0.1637
  207loPI   C3B 3311  11.465  10.941   9.132  0.2526  0.0156  0.0673
  207loPI   C4B 3312  11.349  10.947   8.720  0.0929 -0.1171  0.0474
  208loPI    C1 3313   9.672   0.509  11.149 -0.0087 -0.1289  0.0644
  208loPI    C2 3314   9.353   0.515  10.909  0.0193 -0.1324  0.0271
  208loPI    C3 3315   9.368   0.258  11.215  0.0686 -0.2636 -0.0841
  208loPI   PO4 3316   9.920   0.492  10.983 -0.1438  0.2333  0.2248
  208loPI   GL1 3317   9.940   0.550  10.592 -0.1671 -0.1246 -0.2428
  208loPI   GL2 3318   9.711   0.548  10.483  0.0512  0.0734 -0.1841
  208loPI   C1A 3319  10.262   0.513  10.300 -0.2680 -0.0367 -0.2557
  208loPI   C2A 3320  10.236   0.406   9.916 -0.1876  0.2118  0.0421
  208loPI   C3A 3321  10.329   0.408   9.490  0.0451  0.0557 -0.0744
  208loPI   C4A 3322  10.247   0.418   9.103 -0.1807  0.1809 -0.0417
  208loPI   C5A 3323  10.052   0.403   8.751  0.4098 -0.1140 -0.0409
  208loPI   C6A 3324  10.003   0.221   8.406  0.1144  0.1701 -0.2413
  208loPI   C1B 3325   9.644   0.361  10.079 -0.0758  0.0813  0.0240
  208loPI   C2B 3326   9.637   0.269   9.698  0.0114 -0.0944 -0.0986
  208loPI   C3B 3327   9.789   0.378   9.261  0.1190  0.1082 -0.2378
  208loPI   C4B 3328   9.537   0.299   8.796 -0.0597  0.0307  0.1968
  209loPI    C1 3329   2.250   5.728  10.950 -0.0044 -0.2190 -0.1339
  209loPI    C2 3330   2.483   5.590  11.244  0.1630  0.0651 -0.1304
  209loPI    C3 3331   2.287   5.936  11.289 -0.0148 -0.0183 -0.2540
  209loPI   PO4 3332   2.363   5.798  10.768  0.1965  0.1076  0.4100
  209loPI   GL1 3333   2.490   5.679  10.297  0.0275 -0.0727 -0.0884
  209loPI   GL2 3334   2.380   5.871  10.230  0.2337 -0.2340 -0.1261
  209loPI   C1A 3335   2.590   5.535   9.944  0.0431 -0.0263 -0.0402
  209loPI   C2A 3336   2.593   5.531   9.475  0.1801  0.3333  0.1580
  209loPI   C3A 3337   2.597   5.519   9.106  0.0072  0.1130 -0.1810
  209loPI   C4A 3338   2.459   5.632   8.801 -0.2045  0.0624 -0.0828
  209loPI   C5A 3339   2.264   5.679   8.448 -0.1580 -0.0936 -0.0234
  209loPI   C6A 3340   2.149   5.686   7.972  0.1826 -0.1816  0.3534
  209loPI   C1B 3341   2.352   5.898   9.710  0.0214  0.0272 -0.1685
  209loPI   C2B 3342   2.257   5.942   9.290 -0.1975 -0.0989  0.0434
  209loPI   C3B 3343   2.274   6.077   8.826  0.1366 -0.0881  0.0012
  209loPI   C4B 3344   2.407   6.151   8.468  0.2724 -0.1495  0.1327
  210loPI    C1 3345  15.234   4.438  10.974 -0.0886  0.0577 -0.1214
  210loPI    C2 3346  15.403   4.598  11.299 -0.2183  0.0314 -0.0405
  210loPI    C3 3347  15.500   4.227  11.185  0.1167  0.1799 -0.2539
  210loPI   PO4 3348  15.246   4.602  10.719  0.1775  0.3572 -0.0315
  210loPI   GL1 3349  15.137   4.512  10.289  0.2467  0.0741  0.0540
  210loPI   GL2 3350  14.901   4.326  10.234 -0.0824 -0.2653  0.1805
  210loPI   C1A 3351  15.001   4.506   9.795  0.2195  0.1004  0.2148
  210loPI   C2A 3352  14.951   4.546   9.373 -0.0570  0.2564  0.0972
  210loPI   C3A 3353  15.015   4.573   8.968 -0.1690  0.1338  0.3466
  210loPI   C4A 3354  15.023   4.509   8.605  0.2006 -0.0167  0.1239
  210loPI   C5A 3355  14.746   4.408   8.286 -0.0748  0.0422  0.2280
  210loPI   C6A 3356  14.560   4.616   7.909 -0.1871  0.0494  0.0302
  210loPI   C1B 3357  14.894   4.043   9.889  0.0262 -0.0703  0.0359
  210loPI   C2B 3358  14.773   4.035   9.503  0.2791 -0.0375 -0.0846
  210loPI   C3B 3359  14.791   4.098   9.036 -0.1992 -0.0094  0.0334
  210loPI   C4B 3360  14.697   4.058   8.640  0.0013  0.0307  0.1822
  211loPI    C1 3361   4.556  16.808  11.149 -0.4010  0.2133 -0.1609
  211loPI    C2 3362   4.371  16.910  11.489 -0.4297  0.1591 -0.1602
  211loPI    C3 3363   4.542  16.551  11.455  0.2282  0.4349  0.0697
  211loPI   PO4 3364   4.442  16.836  10.891  0.2888  0.0490  0.2662
  211loPI   GL1 3365   4.206  16.925  10.493  0.0982 -0.1584 -0.1290
  211loPI   GL2 3366   4.036  16.578  10.572 -0.0610 -0.1525  0.0762
  211loPI   C1A 3367   4.372  17.142  10.104 -0.2776  0.0320  0.0048
  211loPI   C2A 3368   4.368  17.182   9.654 -0.1929  0.1081 -0.2532
  211loPI   C3A 3369   4.370  17.034   9.179  0.2356  0.0978 -0.1388
  211loPI   C4A 3370   4.350  17.025   8.730 -0.0194  0.0782 -0.2016
  211loPI   C5A 3371   4.197  16.894   8.371 -0.0084  0.0567  0.0372
  211loPI   C6A 3372   3.931  17.051   8.038  0.3261 -0.0954 -0.0888
  211loPI   C1B 3373   4.046  16.549  10.084 -0.1600 -0.2255  0.0036
  211loPI   C2B 3374   4.016  16.488   9.612 -0.0111  0.0898 -0.0885
  211loPI   C3B 3375   4.119  16.567   9.092 -0.3600 -0.0604  0.3148
  211loPI   C4B 3376   4.153  16.542   8.656 -0.0542 -0.1729  0.1079
  212loPI    C1 3377   5.567  17.188  11.175  0.1470 -0.0103  0.1485
  212loPI    C2 3378   5.257  17.376  11.343  0.1659 -0.0609  0.2409
  212loPI    C3 3379   5.273  16.976  11.345  0.1735 -0.0614  0.1311
  212loPI   PO4 3380   5.512  17.322  10.903  0.1397 -0.2613  0.2065
  212loPI   GL1 3381   5.707  17.252  10.517  0.1513  0.2456  0.3193
  212loPI   GL2 3382   5.413  17.106  10.521  0.0221 -0.0129  0.0560
  212loPI   C1A 3383   5.870  17.201  10.067  0.0609 -0.0357 -0.0712
  212loPI   C2A 3384   5.776  17.154   9.696 -0.1800  0.0823 -0.1587
  212loPI   C3A 3385   5.813  17.206   9.276  0.1609  0.1703  0.1003
  212loPI   C4A 3386   5.868  17.258   8.811 -0.1245 -0.0562 -0.0857
  212loPI   C5A 3387   5.992  17.243   8.310 -0.1001  0.1767  0.3249
  212loPI   C6A 3388   6.225  17.339   7.978 -0.0050  0.1096 -0.0891
  212loPI   C1B 3389   5.341  17.083  10.033 -0.0145  0.2084  0.3278
  212loPI   C2B 3390   5.304  17.112   9.557  0.0018  0.4271 -0.0445
  212loPI   C3B 3391   5.359  17.226   9.143 -0.2653  0.0044  0.0951
  212loPI   C4B 3392   5.353  17.206   8.753  0.0060 -0.1977 -0.3479
  213loPI    C1 3393  11.209   5.166  11.343 -0.0862  0.1764  0.2086
  213loPI    C2 3394  11.479   5.033  11.607 -0.0619  0.2856  0.2392
  213loPI    C3 3395  11.096   4.922  11.639  0.0248 -0.0880  0.0371
  213loPI   PO4 3396  11.302   5.321  11.175 -0.0309 -0.0878  0.4718
  213loPI   GL1 3397  11.571   5.438  10.842 -0.0198  0.2011  0.2665
  213loPI   GL2 3398  11.219   5.442  10.709  0.1686  0.0211 -0.2457
  213loPI   C1A 3399  11.646   5.572  10.489 -0.1699  0.1423 -0.1706
  213loPI   C2A 3400  11.552   5.501  10.120 -0.3195  0.1445  0.0665
  213loPI   C3A 3401  11.446   5.561   9.696 -0.3694 -0.1309  0.1618
  213loPI   C4A 3402  11.532   5.590   9.257  0.1670 -0.1217  0.4724
  213loPI   C5A 3403  11.473   5.611   8.851  0.1733  0.2104 -0.1893
  213loPI   C6A 3404  11.862   5.608   8.630 -0.3622  0.1641  0.2373
  213loPI   C1B 3405  11.063   5.528  10.355  0.3035  0.2080 -0.0024
  213loPI   C2B 3406  10.974   5.501  10.024 -0.1725  0.1497  0.0189
  213loPI   C3B 3407  10.947   5.588   9.588  0.1508  0.1986 -0.3576
  213loPI   C4B 3408  10.971   5.557   9.189 -0.2819 -0.1550  0.1193
  214loPI    C1 3409   5.817  16.376  11.321 -0.0893 -0.1267  0.1402
  214loPI    C2 3410   5.762  16.769  11.365 -0.3111 -0.1265 -0.1140
  214loPI    C3 3411   5.764  16.531  11.686  0.2264  0.1271  0.0828
  214loPI   PO4 3412   5.709  16.424  11.020 -0.1424 -0.1197  0.0824
  214loPI   GL1 3413   5.636  16.486  10.617 -0.0539  0.2340 -0.0794
  214loPI   GL2 3414   5.750  16.681  10.550 -0.1454 -0.2818  0.0148
  214loPI   C1A 3415   5.516  16.207  10.257  0.0233  0.0248  0.0059
  214loPI   C2A 3416   5.375  16.175   9.877  0.1134 -0.3126  0.0560
  214loPI   C3A 3417   5.382  16.207   9.382  0.1390 -0.2106  0.1655
  214loPI   C4A 3418   5.357  16.303   9.036 -0.3230  0.2890  0.2559
  214loPI   C5A 3419   5.515  16.325   8.575  0.2535 -0.1513 -0.0192
  214loPI   C6A 3420   5.757  16.535   8.229 -0.0018 -0.1085 -0.1585
  214loPI   C1B 3421   5.665  16.675  10.142 -0.3693 -0.0580 -0.0497
  214loPI   C2B 3422   5.580  16.701   9.789  0.2150  0.2237  0.3565
  214loPI   C3B 3423   5.602  16.635   9.442 -0.1770 -0.1345 -0.0865
  214loPI   C4B 3424   5.699  16.740   9.005 -0.2891 -0.2640 -0.0340
  215loPI    C1 3425   0.120   7.883  10.944  0.0035  0.2126 -0.0123
  215loPI    C2 3426  -0.154   7.635  10.791 -0.0280  0.2986 -0.0968
  215loPI    C3 3427  -0.130   7.687  11.187  0.0378  0.0936 -0.0723
  215loPI   PO4 3428   0.108   8.101  10.811 -0.1889 -0.1529 -0.2513
  215loPI   GL1 3429  -0.126   8.115  10.472 -0.4175 -0.0013 -0.1739
  215loPI   GL2 3430  -0.111   8.429  10.516 -0.1538 -0.2239  0.2197
  215loPI   C1A 3431  -0.168   7.871  10.089 -0.0902 -0.0483 -0.1282
  215loPI   C2A 3432  -0.230   8.006   9.711  0.3402 -0.1452  0.0860
  215loPI   C3A 3433  -0.297   7.987   9.220  0.0348 -0.0257 -0.0567
  215loPI   C4A 3434  -0.218   8.151   8.930  0.2351  0.4826  0.0503
  215loPI   C5A 3435  -0.201   8.333   8.515 -0.2843 -0.1163 -0.0237
  215loPI   C6A 3436  -0.552   8.264   8.170 -0.0310  0.0098 -0.0086
  215loPI   C1B 3437   0.008   8.499  10.072  0.1122 -0.0776 -0.0067
  215loPI   C2B 3438   0.092   8.591   9.645  0.1404 -0.1188 -0.3716
  215loPI   C3B 3439  -0.106   8.515   9.250  0.0105 -0.1329 -0.3391
  215loPI   C4B 3440  -0.057   8.608   8.866  0.1399  0.1000  0.1893
  216loPI    C1 3441  17.544   0.132  11.448 -0.3073 -0.1023 -0.0481
  216loPI    C2 3442  17.632   0.457  11.664  0.0238 -0.0471 -0.2593
  216loPI    C3 3443  17.538   0.115  11.848 -0.2980  0.1553 -0.0351
  216loPI   PO4 3444  17.370   0.308  11.239 -0.2084 -0.1436  0.2604
  216loPI   GL1 3445  17.253   0.181  10.825 -0.1358  0.0657  0.0652
  216loPI   GL2 3446  17.411   0.401  10.717  0.2728 -0.0517  0.0156
  216loPI   C1A 3447  16.999   0.188  10.381 -0.0236  0.1755 -0.0233
  216loPI   C2A 3448  17.000   0.169   9.941  0.0500 -0.0128  0.0506
  216loPI   C3A 3449  17.045   0.233   9.563  0.3435  0.2655  0.0127
  216loPI   C4A 3450  17.029   0.185   9.242 -0.2176 -0.0220 -0.2642
  216loPI   C5A 3451  16.980   0.178   8.817 -0.1916 -0.1584 -0.2168
  216loPI   C6A 3452  16.717  -0.113   8.493 -0.1746 -0.0547 -0.1465
  216loPI   C1B 3453  17.537   0.142  10.321  0.2871  0.1615  0.5570
  216loPI   C2B 3454  17.500   0.264   9.868  0.1792  0.0008 -0.0767
  216loPI   C3B 3455  17.531   0.194   9.430 -0.1294 -0.1669 -0.0179
  216loPI   C4B 3456  17.550   0.386   9.036  0.0375  0.2960 -0.1291
  217loPI    C1 3457  12.141  12.525  11.128  0.0235  0.2627  0.1020
  217loPI    C2 3458  12.197  12.164  11.291  0.3093  0.1172 -0.3028
  217loPI    C3 3459  12.372  12.485  11.452  0.1704  0.0558 -0.0250
  217loPI   PO4 3460  12.153  12.537  10.905  0.3434  0.1682  0.0618
  217loPI   GL1 3461  12.156  12.533  10.446 -0.0926  0.0242 -0.1118
  217loPI   GL2 3462  11.794  12.713  10.498 -0.0617 -0.0627 -0.1938
  217loPI   C1A 3463  12.083  12.417   9.990  0.0753  0.0432 -0.2120
  217loPI   C2A 3464  12.107  12.429   9.597  0.3072 -0.0850  0.0875
  217loPI   C3A 3465  12.070  12.437   9.125  0.0808 -0.0750  0.0326
  217loPI   C4A 3466  11.978  12.494   8.669 -0.6228 -0.2000 -0.3437
  217loPI   C5A 3467  12.283  12.472   8.330  0.1032 -0.1377 -0.1331
  217loPI   C6A 3468  12.750  12.505   8.177 -0.0446 -0.2011 -0.0796
  217loPI   C1B 3469  11.761  12.833  10.118  0.2110  0.1081  0.0089
  217loPI   C2B 3470  11.816  12.846   9.783  0.1293 -0.0396 -0.0282
  217loPI   C3B 3471  11.802  12.887   9.360 -0.1139  0.0436  0.0047
  217loPI   C4B 3472  11.744  12.749   9.048 -0.1892 -0.2312 -0.2294
  218loPI    C1 3473  15.922   2.093  11.331 -0.2350  0.0112 -0.0469
  218loPI    C2 3474  15.693   2.103  11.659 -0.0958 -0.1985  0.0596
  218loPI    C3 3475  16.090   2.068  11.694 -0.0511  0.0893 -0.1251
  218loPI   PO4 3476  15.797   1.879  11.227 -0.3896  0.2016 -0.0671
  218loPI   GL1 3477  15.695   1.661  10.816 -0.1897 -0.1198  0.1498
  218loPI   GL2 3478  15.387   1.826  10.753  0.1201  0.0450 -0.5366
  218loPI   C1A 3479  15.774   1.879  10.456 -0.0927 -0.0154  0.1200
  218loPI   C2A 3480  15.871   1.817  10.036  0.0439  0.0713  0.4608
  218loPI   C3A 3481  15.848   1.947   9.617 -0.0823 -0.1287  0.1102
  218loPI   C4A 3482  15.780   1.908   9.204 -0.1269 -0.3137 -0.2506
  218loPI   C5A 3483  15.742   1.970   8.728  0.4297 -0.0343 -0.0967
  218loPI   C6A 3484  15.467   1.808   8.364  0.2046 -0.1536 -0.0202
  218loPI   C1B 3485  15.314   1.953  10.304  0.0196  0.0665 -0.1546
  218loPI   C2B 3486  15.391   1.960   9.835  0.0232  0.1869  0.1065
  218loPI   C3B 3487  15.327   1.835   9.407 -0.0678  0.0951  0.1000
  218loPI   C4B 3488  15.305   1.835   8.962  0.0718 -0.1017 -0.0062
  219loPI    C1 3489   0.321   0.277  11.442  0.1440 -0.0592  0.0044
  219loPI    C2 3490   0.647   0.294  11.674  0.1381 -0.0227  0.0103
  219loPI    C3 3491   0.289   0.222  11.837  0.1384 -0.0287  0.0081
  219loPI   PO4 3492   0.386   0.206  11.179  0.1594  0.2923  0.0800
  219loPI   GL1 3493   0.500   0.251  10.713 -0.0672 -0.2637 -0.2023
  219loPI   GL2 3494   0.201   0.263  10.491  0.1256  0.0507 -0.3274
  219loPI   C1A 3495   0.786   0.304  10.420 -0.2098  0.3076 -0.0323
  219loPI   C2A 3496   0.871   0.425  10.009  0.4687  0.2880  0.1192
  219loPI   C3A 3497   0.885   0.396   9.580 -0.2323 -0.1488  0.0256
  219loPI   C4A 3498   0.926   0.410   9.131 -0.0135  0.1290  0.1660
  219loPI   C5A 3499   0.890   0.319   8.687 -0.0076 -0.0841  0.2632
  219loPI   C6A 3500   0.724   0.018   8.391  0.2365  0.1962 -0.0445
  219loPI   C1B 3501   0.262   0.251  10.087  0.0547  0.2344 -0.0577
  219loPI   C2B 3502   0.213   0.315   9.630 -0.2262  0.1783 -0.2670
  219loPI   C3B 3503   0.258   0.347   9.246 -0.3279  0.0549 -0.0411
  219loPI   C4B 3504   0.394   0.277   8.793  0.2427  0.2530 -0.1199
  220loPI    C1 3505  17.282  10.531  11.201 -0.1344  0.1083 -0.1821
  220loPI    C2 3506  17.270  10.233  11.467  0.4003  0.2906  0.0603
  220loPI    C3 3507  17.208  10.610  11.586  0.0495  0.3146 -0.1864
  220loPI   PO4 3508  17.182  10.450  11.001 -0.0698  0.0043  0.0812
  220loPI   GL1 3509  17.151  10.289  10.584 -0.0970  0.1237 -0.2522
  220loPI   GL2 3510  17.217  10.572  10.498 -0.1243 -0.1522 -0.1973
  220loPI   C1A 3511  17.011  10.236  10.106 -0.2679 -0.1403 -0.0519
  220loPI   C2A 3512  16.972  10.197   9.622 -0.3901  0.0301  0.0872
  220loPI   C3A 3513  16.955  10.266   9.269 -0.0557  0.3271  0.0665
  220loPI   C4A 3514  16.986  10.288   8.770  0.0393  0.0239  0.0794
  220loPI   C5A 3515  16.625  10.192   8.410  0.0149 -0.0115 -0.1770
  220loPI   C6A 3516  16.360  10.518   8.362  0.0209 -0.2596  0.1182
  220loPI   C1B 3517  17.228  10.673  10.104  0.1050 -0.0597  0.2325
  220loPI   C2B 3518  17.215  10.632   9.752  0.0541  0.0293  0.1543
  220loPI   C3B 3519  17.268  10.687   9.326  0.3068 -0.0554 -0.0254
  220loPI   C4B 3520  17.270  10.759   8.852  0.0199  0.4534  0.3429
  221loPI    C1 3521   0.678   2.531  11.406 -0.1442 -0.0102  0.0154
  221loPI    C2 3522   0.548   2.269  11.678 -0.1387  0.1402  0.1650
  221loPI    C3 3523   0.810   2.552  11.783  0.0395  0.0589 -0.0514
  221loPI   PO4 3524   0.675   2.447  11.233 -0.3026  0.0486 -0.2022
  221loPI   GL1 3525   0.764   2.476  10.777  0.0646  0.3624 -0.1653
  221loPI   GL2 3526   0.756   2.836  10.569  0.2771 -0.0490 -0.1321
  221loPI   C1A 3527   0.607   2.343  10.415 -0.2211 -0.1518 -0.1577
  221loPI   C2A 3528   0.504   2.074  10.057  0.1113  0.0937  0.1181
  221loPI   C3A 3529   0.634   2.090   9.622 -0.0588  0.0608  0.1590
  221loPI   C4A 3530   0.647   2.187   9.199 -0.1100  0.3401 -0.0473
  221loPI   C5A 3531   0.868   2.122   8.778  0.2717 -0.0326  0.2798
  221loPI   C6A 3532   0.919   1.841   8.413  0.1269  0.1937  0.1256
  221loPI   C1B 3533   0.783   2.674  10.114  0.2088 -0.0510 -0.0301
  221loPI   C2B 3534   0.830   2.598   9.711  0.0022 -0.3555 -0.0007
  221loPI   C3B 3535   0.835   2.709   9.350 -0.0190 -0.1516  0.1557
  221loPI   C4B 3536   0.882   2.621   8.983 -0.2916 -0.0726  0.0713
  222loPI    C1 3537   2.891   2.081  11.357 -0.2517  0.0676  0.1167
  222loPI    C2 3538   3.112   2.411  11.405  0.0598 -0.1010 -0.1170
  222loPI    C3 3539   2.875   2.283  11.701  0.1643  0.1642  0.0847
  222loPI   PO4 3540   3.028   1.956  11.211 -0.2103 -0.0727  0.0276
  222loPI   GL1 3541   3.084   1.782  10.807  0.1293  0.3401  0.3758
  222loPI   GL2 3542   2.837   2.005  10.751 -0.0750 -0.1827 -0.0321
  222loPI   C1A 3543   3.254   1.380  10.538 -0.0928 -0.2779  0.2980
  222loPI   C2A 3544   3.258   1.388  10.177  0.0072 -0.0583 -0.0214
  222loPI   C3A 3545   3.339   1.524   9.750  0.2945 -0.0068 -0.0634
  222loPI   C4A 3546   3.396   1.528   9.281  0.1901  0.1030 -0.0914
  222loPI   C5A 3547   3.311   1.541   8.845 -0.0041 -0.1236  0.0197
  222loPI   C6A 3548   3.493   1.357   8.421 -0.2348  0.1211  0.0478
  222loPI   C1B 3549   2.957   1.885  10.273 -0.3596 -0.1422 -0.1638
  222loPI   C2B 3550   2.986   1.899   9.904  0.3213 -0.1388 -0.0258
  222loPI   C3B 3551   2.964   1.940   9.482 -0.1562 -0.0041  0.1231
  222loPI   C4B 3552   2.999   1.903   9.074 -0.3307 -0.3926 -0.0589
  223loPI    C1 3553   4.184  10.334  11.044  0.2138  0.0650 -0.0347
  223loPI    C2 3554   4.201  10.541  11.386 -0.1421 -0.0398  0.0498
  223loPI    C3 3555   4.507  10.307  11.279  0.1451  0.3086  0.0912
  223loPI   PO4 3556   4.136  10.429  10.853 -0.0696 -0.0423 -0.0800
  223loPI   GL1 3557   4.186  10.567  10.442 -0.0874 -0.1092  0.3365
  223loPI   GL2 3558   4.408  10.305  10.437  0.0338  0.3113 -0.1253
  223loPI   C1A 3559   4.043  10.632   9.979  0.0788  0.1479  0.2062
  223loPI   C2A 3560   4.044  10.726   9.553 -0.1549 -0.0059  0.2217
  223loPI   C3A 3561   3.892  10.655   9.253  0.0343 -0.1422  0.1859
  223loPI   C4A 3562   3.931  10.588   8.853 -0.3469 -0.1320 -0.1555
  223loPI   C5A 3563   3.716  10.745   8.518 -0.2416  0.0187  0.0426
  223loPI   C6A 3564   3.366  10.578   8.235  0.3360  0.0086  0.0684
  223loPI   C1B 3565   4.370  10.215  10.014  0.2182 -0.1620  0.0377
  223loPI   C2B 3566   4.372  10.338   9.557  0.4012 -0.1941  0.1718
  223loPI   C3B 3567   4.275  10.223   9.108 -0.2175  0.0817  0.1319
  223loPI   C4B 3568   4.182  10.126   8.725  0.1247  0.0302  0.0900
  224loPI    C1 3569  10.323   4.679  11.282  0.2197  0.1857  0.0845
  224loPI    C2 3570  10.164   4.413  11.535  0.2279  0.0634 -0.0379
  224loPI    C3 3571  10.065   4.800  11.563  0.1693  0.0388  0.1020
  224loPI   PO4 3572  10.198   4.584  11.087 -0.0642 -0.3351 -0.0705
  224loPI   GL1 3573  10.016   4.562  10.618 -0.3881  0.0831 -0.1004
  224loPI   GL2 3574  10.308   4.334  10.654  0.1043  0.1283  0.0802
  224loPI   C1A 3575  10.121   4.466  10.152  0.1660 -0.4278  0.1060
  224loPI   C2A 3576  10.045   4.489   9.654 -0.2005 -0.1152  0.0903
  224loPI   C3A 3577  10.073   4.507   9.224 -0.0752 -0.0583 -0.0111
  224loPI   C4A 3578  10.120   4.557   8.747 -0.1778  0.2699  0.0614
  224loPI   C5A 3579   9.951   4.740   8.384  0.1107  0.1590 -0.0197
  224loPI   C6A 3580   9.923   4.827   8.046  0.2662 -0.0208  0.1022
  224loPI   C1B 3581  10.384   4.016  10.302  0.0640  0.0309 -0.0512
  224loPI   C2B 3582  10.383   4.116   9.900  0.1763 -0.0858  0.1005
  224loPI   C3B 3583  10.319   4.080   9.487 -0.2423  0.0259 -0.1555
  224loPI   C4B 3584  10.401   4.128   9.030  0.1597  0.1973 -0.4139
  225loPI    C1 3585   0.249   7.413  11.155  0.0940  0.0812  0.2392
  225loPI    C2 3586   0.604   7.474  11.329  0.2169  0.0759 -0.0063
  225loPI    C3 3587   0.320   7.754  11.352  0.1990  0.0377  0.2774
  225loPI   PO4 3588   0.308   7.365  10.935  0.1261 -0.0816 -0.4267
  225loPI   GL1 3589   0.235   7.376  10.534 -0.3789 -0.0659 -0.2259
  225loPI   GL2 3590   0.227   7.705  10.511  0.0740 -0.0989  0.0709
  225loPI   C1A 3591   0.169   7.536  10.035 -0.2505 -0.0205  0.0025
  225loPI   C2A 3592   0.036   7.552   9.604  0.2072 -0.0591 -0.0581
  225loPI   C3A 3593  -0.029   7.527   9.204 -0.1250  0.2509  0.0349
  225loPI   C4A 3594   0.015   7.704   8.925  0.0296 -0.0111 -0.2885
  225loPI   C5A 3595  -0.085   7.861   8.505 -0.1176  0.1637  0.3202
  225loPI   C6A 3596  -0.004   7.889   8.089 -0.3034 -0.0832  0.3830
  225loPI   C1B 3597   0.296   7.985  10.146  0.1369 -0.2572 -0.0607
  225loPI   C2B 3598   0.279   8.076   9.840  0.2011  0.0705 -0.2737
  225loPI   C3B 3599   0.207   8.067   9.481  0.0983 -0.0253 -0.0272
  225loPI   C4B 3600   0.249   8.125   9.041 -0.4292  0.0173 -0.0511
  226loPI    C1 3601   4.957   2.668  11.269 -0.0889 -0.0028 -0.0775
  226loPI    C2 3602   4.657   2.415  11.194 -0.1082 -0.0038  0.0024
  226loPI    C3 3603   4.713   2.555  11.564 -0.1274  0.1470 -0.0510
  226loPI   PO4 3604   5.108   2.623  11.134 -0.0178 -0.3940 -0.0820
  226loPI   GL1 3605   5.054   2.385  10.801 -0.0154  0.1158 -0.2993
  226loPI   GL2 3606   4.767   2.463  10.638 -0.3672  0.0950 -0.0712
  226loPI   C1A 3607   5.015   2.144  10.319  0.0089 -0.1895 -0.0771
  226loPI   C2A 3608   5.065   2.187   9.904 -0.1688  0.2822  0.2423
  226loPI   C3A 3609   5.118   2.186   9.465 -0.2284  0.3019 -0.0420
  226loPI   C4A 3610   4.966   2.115   9.038 -0.0282  0.1741 -0.1568
  226loPI   C5A 3611   5.051   2.136   8.592 -0.0756  0.0574  0.2752
  226loPI   C6A 3612   4.611   2.180   8.525 -0.1804  0.2643 -0.0620
  226loPI   C1B 3613   4.763   2.559  10.172 -0.0695  0.0236 -0.3075
  226loPI   C2B 3614   4.822   2.603   9.712 -0.1204  0.1633  0.1714
  226loPI   C3B 3615   4.775   2.590   9.290  0.0120  0.2737  0.0912
  226loPI   C4B 3616   4.809   2.515   8.879  0.0714  0.0820  0.1911
  227loPI    C1 3617   3.935   7.180  10.863  0.0024 -0.0752 -0.0038
  227loPI    C2 3618   3.718   7.077  11.182 -0.0444 -0.0708 -0.0341
  227loPI    C3 3619   3.813   7.461  11.120 -0.1591 -0.0528 -0.1028
  227loPI   PO4 3620   3.883   7.037  10.648 -0.0606  0.0804 -0.1297
  227loPI   GL1 3621   4.060   7.108  10.277 -0.1190  0.1495  0.1824
  227loPI   GL2 3622   3.896   7.363  10.265  0.0904  0.0377 -0.0544
  227loPI   C1A 3623   3.914   6.950   9.899  0.0655  0.1704  0.1404
  227loPI   C2A 3624   3.790   6.921   9.539  0.0212  0.0283  0.1613
  227loPI   C3A 3625   3.773   6.957   9.016 -0.2591 -0.1366  0.0511
  227loPI   C4A 3626   3.676   6.955   8.657 -0.1045 -0.2076  0.1191
  227loPI   C5A 3627   3.498   6.700   8.359 -0.0103  0.2794 -0.3236
  227loPI   C6A 3628   3.194   6.370   8.498  0.0037 -0.1903 -0.2133
  227loPI   C1B 3629   3.620   7.337  10.028  0.1152 -0.0094  0.2147
  227loPI   C2B 3630   3.535   7.402   9.578 -0.1547  0.1551  0.0739
  227loPI   C3B 3631   3.481   7.458   9.136  0.2562  0.1916  0.1807
  227loPI   C4B 3632   3.387   7.385   8.722 -0.1574 -0.1601 -0.0146
  228loPI    C1 3633   9.585  11.942  11.051 -0.1486  0.0188  0.1968
  228loPI    C2 3634   9.737  12.037  11.408  0.0085  0.1221  0.1035
  228loPI    C3 3635   9.475  12.282  11.231  0.0101  0.1222  0.1012
  228loPI   PO4 3636   9.679  11.683  11.009  0.2860  0.1796  0.0127
  228loPI   GL1 3637   9.720  11.595  10.662  0.3859 -0.0464  0.0931
  228loPI   GL2 3638   9.928  11.757  10.470  0.1821  0.0599 -0.1670
  228loPI   C1A 3639   9.434  11.751  10.322  0.1199  0.0646 -0.0342
  228loPI   C2A 3640   9.405  11.721   9.856 -0.0594 -0.2933  0.2071
  228loPI   C3A 3641   9.290  11.638   9.431  0.0922  0.0651 -0.0206
  228loPI   C4A 3642   9.259  11.666   9.049 -0.0449  0.0240  0.0533
  228loPI   C5A 3643   9.257  11.658   8.633 -0.2209  0.0283  0.0609
  228loPI   C6A 3644   9.181  11.385   8.243  0.2110 -0.1085  0.0313
  228loPI   C1B 3645   9.877  11.736  10.121  0.1182 -0.3292 -0.1342
  228loPI   C2B 3646   9.848  11.684   9.639  0.1526 -0.1173  0.1299
  228loPI   C3B 3647   9.789  11.702   9.223  0.4925 -0.0075 -0.0466
  228loPI   C4B 3648   9.743  11.675   8.747 -0.0018 -0.1634 -0.0321
  229loPI    C1 3649  10.995  10.867  11.001 -0.0176  0.2423  0.0770
  229loPI    C2 3650  10.694  10.662  11.167 -0.0117  0.1475 -0.0280
  229loPI    C3 3651  11.067  10.612  11.301 -0.0443  0.2803  0.1159
  229loPI   PO4 3652  10.980  10.863  10.757 -0.2332  0.2436 -0.3216
  229loPI   GL1 3653  10.779  11.213  10.453  0.2368  0.0908  0.0407
  229loPI   GL2 3654  10.946  10.913  10.248  0.2307  0.4313 -0.2653
  229loPI   C1A 3655  10.756  11.409  10.118 -0.5065 -0.2557 -0.2144
  229loPI   C2A 3656  10.567  11.332   9.754 -0.0195  0.1390 -0.1291
  229loPI   C3A 3657  10.628  11.322   9.196 -0.1209  0.1903 -0.0893
  229loPI   C4A 3658  10.446  11.206   8.790  0.0308  0.0044 -0.0955
  229loPI   C5A 3659  10.626  11.308   8.335 -0.1633 -0.2140  0.0190
  229loPI   C6A 3660  10.583  11.699   8.038 -0.2038  0.1771  0.1135
  229loPI   C1B 3661  10.888  10.859   9.822 -0.2251 -0.0086  0.0736
  229loPI   C2B 3662  10.851  10.874   9.376  0.1914  0.0431 -0.2214
  229loPI   C3B 3663  10.912  10.912   9.042  0.0925 -0.0803 -0.0738
  229loPI   C4B 3664  10.863  10.868   8.646 -0.2909  0.3039 -0.1787
  230loPI    C1 3665  15.858   9.587  10.988 -0.1803 -0.0425 -0.0250
  230loPI    C2 3666  15.648   9.925  10.944  0.2027  0.2034 -0.0168
  230loPI    C3 3667  15.798   9.828  11.302  0.1068  0.0291 -0.0225
  230loPI   PO4 3668  16.060   9.623  10.799 -0.0866 -0.0467  0.2500
  230loPI   GL1 3669  16.257   9.477  10.405 -0.1355  0.2182 -0.0005
  230loPI   GL2 3670  16.009   9.296  10.309 -0.0377  0.0890  0.1469
  230loPI   C1A 3671  16.299   9.616   9.988 -0.0817 -0.0404 -0.0822
  230loPI   C2A 3672  16.249   9.632   9.546  0.0540  0.0203 -0.2146
  230loPI   C3A 3673  16.276   9.681   9.089 -0.3675  0.2108  0.0093
  230loPI   C4A 3674  16.370   9.783   8.679  0.2008 -0.1883  0.1346
  230loPI   C5A 3675  16.398   9.570   8.353 -0.1689 -0.1201 -0.1871
  230loPI   C6A 3676  16.101   9.352   8.206  0.3509 -0.0648  0.2344
  230loPI   C1B 3677  16.043   9.189   9.910  0.0060 -0.0738 -0.1563
  230loPI   C2B 3678  15.995   9.162   9.506  0.0109  0.2332 -0.0540
  230loPI   C3B 3679  16.033   9.195   9.136 -0.3787  0.0033  0.0355
  230loPI   C4B 3680  16.099   9.242   8.745 -0.1663 -0.4180  0.1418
  231loPI    C1 3681  15.728   8.700  11.069 -0.0966 -0.0120 -0.0654
  231loPI    C2 3682  15.729   8.465  11.393 -0.1491 -0.0165 -0.0683
  231loPI    C3 3683  15.701   8.862  11.434 -0.0668 -0.0109 -0.0637
  231loPI   PO4 3684  15.649   8.628  10.885 -0.0963  0.3230  0.0730
  231loPI   GL1 3685  15.677   8.451  10.545 -0.4613  0.1656  0.0960
  231loPI   GL2 3686  15.428   8.580  10.390  0.1456 -0.0292  0.1085
  231loPI   C1A 3687  15.664   8.327  10.086  0.4297 -0.3807 -0.2519
  231loPI   C2A 3688  15.573   8.274   9.692 -0.1255 -0.0202  0.0328
  231loPI   C3A 3689  15.584   8.274   9.253  0.2631 -0.0455 -0.1786
  231loPI   C4A 3690  15.585   8.292   8.764  0.1855 -0.2654 -0.2771
  231loPI   C5A 3691  15.927   8.320   8.468  0.1329 -0.0489 -0.0278
  231loPI   C6A 3692  15.823   8.207   7.989  0.3660 -0.0833  0.4018
  231loPI   C1B 3693  15.341   8.717   9.950 -0.2543 -0.1805  0.1096
  231loPI   C2B 3694  15.247   8.681   9.527  0.0141 -0.0793  0.0287
  231loPI   C3B 3695  15.290   8.648   9.127  0.0230  0.0102  0.0265
  231loPI   C4B 3696  15.295   8.700   8.702  0.2271 -0.0550 -0.2916
  232loPI    C1 3697  12.238  17.239  11.124  0.1495 -0.2184 -0.1049
  232loPI    C2 3698  12.367  17.149  11.492 -0.0419 -0.0810 -0.0027
  232loPI    C3 3699  12.061  17.401  11.443 -0.0709 -0.1619 -0.2541
  232loPI   PO4 3700  12.345  17.055  10.956  0.0471  0.3573  0.1659
  232loPI   GL1 3701  12.600  16.920  10.509  0.3171  0.0272  0.3470
  232loPI   GL2 3702  12.707  17.216  10.664 -0.1301  0.0822  0.2236
  232loPI   C1A 3703  12.709  17.044  10.118  0.0380  0.1803 -0.0226
  232loPI   C2A 3704  12.648  16.963   9.690 -0.0933  0.0342  0.3808
  232loPI   C3A 3705  12.717  17.040   9.254 -0.0582 -0.2447 -0.1926
  232loPI   C4A 3706  12.722  17.025   8.855  0.1716 -0.1653  0.0767
  232loPI   C5A 3707  12.680  16.894   8.462 -0.0923  0.0620 -0.3846
  232loPI   C6A 3708  12.633  16.681   8.104 -0.1161  0.1344  0.0476
  232loPI   C1B 3709  12.874  17.589  10.391  0.0031  0.0406 -0.0269
  232loPI   C2B 3710  12.847  17.492   9.936 -0.2923  0.0254  0.4385
  232loPI   C3B 3711  12.881  17.462   9.490  0.0969 -0.1485 -0.0709
  232loPI   C4B 3712  12.859  17.475   9.046  0.0808 -0.0847  0.1472
  233loPI    C1 3713  14.129  11.118  10.804 -0.0615  0.0437 -0.1115
  233loPI    C2 3714  14.160  10.769  10.997 -0.1714  0.0538 -0.0747
  233loPI    C3 3715  14.349  11.092  11.138  0.0554 -0.0246 -0.1931
  233loPI   PO4 3716  14.218  11.060  10.579 -0.1195 -0.1598  0.0008
  233loPI   GL1 3717  14.178  10.982  10.263  0.3750  0.0766 -0.1651
  233loPI   GL2 3718  14.363  10.690  10.167  0.2079 -0.1180  0.0156
  233loPI   C1A 3719  14.019  11.317   9.968 -0.1678 -0.3215 -0.0111
  233loPI   C2A 3720  14.029  11.357   9.550 -0.0486 -0.0740  0.0893
  233loPI   C3A 3721  13.964  11.265   8.996  0.0374  0.0227  0.0032
  233loPI   C4A 3722  13.996  11.260   8.673  0.3064  0.2536 -0.0228
  233loPI   C5A 3723  14.160  11.273   8.212 -0.0982  0.1067  0.1429
  233loPI   C6A 3724  13.975  11.597   7.952 -0.0066  0.3163  0.0335
  233loPI   C1B 3725  14.388  10.894   9.809 -0.2510 -0.1029 -0.0046
  233loPI   C2B 3726  14.274  10.998   9.390 -0.1780  0.0003  0.1224
  233loPI   C3B 3727  14.332  10.983   8.960 -0.2372  0.3539 -0.1919
  233loPI   C4B 3728  14.302  10.878   8.492 -0.0766 -0.1994 -0.0145
  234loPI    C1 3729  11.970   5.177  11.407 -0.0396 -0.1864 -0.0205
  234loPI    C2 3730  12.025   5.370  11.753 -0.0513  0.1135 -0.1828
  234loPI    C3 3731  12.265   5.066  11.654 -0.0473  0.0263  0.0865
  234loPI   PO4 3732  11.929   5.395  11.227 -0.1260 -0.0572 -0.1807
  234loPI   GL1 3733  12.095   5.285  10.811 -0.1583  0.0816 -0.0420
  234loPI   GL2 3734  11.897   5.119  10.633  0.0434 -0.0097 -0.1605
  234loPI   C1A 3735  12.123   5.487  10.355  0.5203  0.0212 -0.0815
  234loPI   C2A 3736  12.022   5.485   9.939 -0.1042 -0.1126 -0.1625
  234loPI   C3A 3737  11.912   5.560   9.591  0.1208  0.1554 -0.0165
  234loPI   C4A 3738  11.995   5.707   9.115 -0.0568  0.0027  0.2606
  234loPI   C5A 3739  12.265   5.860   8.739 -0.1033  0.0575 -0.0512
  234loPI   C6A 3740  12.461   5.709   8.466  0.0298 -0.0557 -0.2680
  234loPI   C1B 3741  11.836   5.083  10.147 -0.0057  0.3099 -0.3138
  234loPI   C2B 3742  11.818   5.063   9.712 -0.0818 -0.0921  0.0032
  234loPI   C3B 3743  11.743   5.079   9.315  0.0404 -0.1520 -0.1848
  234loPI   C4B 3744  11.822   5.262   8.987 -0.1320  0.4039  0.2146
  235loPI    C1 3745  10.194   5.209  11.207  0.1083  0.0286 -0.0750
  235loPI    C2 3746  10.154   5.354  11.578 -0.0105 -0.1614 -0.0121
  235loPI    C3 3747  10.385   5.545  11.312 -0.1614  0.1400  0.0686
  235loPI   PO4 3748   9.891   5.182  11.160 -0.0032  0.2719 -0.3056
  235loPI   GL1 3749   9.768   5.101  10.835  0.4014 -0.3544  0.2052
  235loPI   GL2 3750  10.113   5.020  10.751  0.0890 -0.1460  0.2877
  235loPI   C1A 3751   9.864   5.312  10.452 -0.2125 -0.1882 -0.3505
  235loPI   C2A 3752  10.022   5.378  10.110  0.0944  0.1571  0.0369
  235loPI   C3A 3753  10.016   5.392   9.718 -0.1282 -0.6504 -0.2436
  235loPI   C4A 3754  10.021   5.403   9.301  0.2606  0.1302 -0.2664
  235loPI   C5A 3755  10.075   5.122   8.898  0.0334 -0.2995 -0.2564
  235loPI   C6A 3756  10.451   4.928   8.762 -0.0146 -0.1939 -0.0868
  235loPI   C1B 3757  10.269   4.970  10.405  0.2325 -0.3337 -0.3523
  235loPI   C2B 3758  10.354   5.026  10.016  0.2506  0.1374 -0.0095
  235loPI   C3B 3759  10.268   4.996   9.636  0.2085  0.2352  0.0536
  235loPI   C4B 3760  10.303   4.976   9.283 -0.3691 -0.0020  0.1097
  236loPI    C1 3761   6.086   2.028  11.018  0.2066 -0.0832 -0.1104
  236loPI    C2 3762   6.077   2.426  10.984  0.0672 -0.0666  0.1046
  236loPI    C3 3763   5.955   2.251  11.323 -0.3884 -0.3192 -0.1811
  236loPI   PO4 3764   6.207   1.952  10.867  0.1678  0.0806  0.0008
  236loPI   GL1 3765   6.177   1.801  10.440 -0.1104  0.0435 -0.1931
  236loPI   GL2 3766   5.972   1.710  10.358  0.0189  0.1932  0.2107
  236loPI   C1A 3767   6.387   1.841   9.951  0.1588  0.1821  0.1440
  236loPI   C2A 3768   6.440   1.917   9.498 -0.2073 -0.1361  0.0895
  236loPI   C3A 3769   6.431   1.913   9.027 -0.0902 -0.0144 -0.1233
  236loPI   C4A 3770   6.405   1.813   8.589 -0.1226 -0.3679  0.0925
  236loPI   C5A 3771   6.328   1.928   8.229 -0.1750 -0.0016  0.2633
  236loPI   C6A 3772   6.232   2.072   7.787  0.1700 -0.0641 -0.1262
  236loPI   C1B 3773   5.859   1.798   9.968  0.0961  0.0486  0.0294
  236loPI   C2B 3774   5.900   1.771   9.627 -0.1430 -0.0126  0.0283
  236loPI   C3B 3775   5.919   1.851   9.140  0.0454 -0.0172  0.2993
  236loPI   C4B 3776   5.902   1.689   8.740 -0.0359 -0.0777 -0.1066
  237loPI    C1 3777   4.888   7.300  10.921 -0.0242  0.1434 -0.0353
  237loPI    C2 3778   4.853   7.067  11.244 -0.0157  0.3159  0.0920
  237loPI    C3 3779   5.160   7.322  11.214  0.1373  0.1051 -0.1809
  237loPI   PO4 3780   4.807   7.138  10.748 -0.2974 -0.1022  0.2614
  237loPI   GL1 3781   4.644   7.116  10.325  0.0259 -0.1408 -0.0602
  237loPI   GL2 3782   4.822   7.008  10.122  0.1435  0.1671  0.0652
  237loPI   C1A 3783   4.382   6.983   9.975 -0.0812 -0.0690 -0.0829
  237loPI   C2A 3784   4.341   6.987   9.564 -0.0172 -0.1935 -0.1915
  237loPI   C3A 3785   4.297   7.034   9.061 -0.0510  0.0336 -0.0606
  237loPI   C4A 3786   4.183   7.051   8.533  0.0391 -0.2515  0.1461
  237loPI   C5A 3787   4.388   6.902   8.098 -0.0891 -0.2859  0.0420
  237loPI   C6A 3788   4.586   6.663   7.723  0.0061  0.1162 -0.2557
  237loPI   C1B 3789   4.839   7.032   9.706  0.2358  0.1342 -0.0516
  237loPI   C2B 3790   4.819   7.030   9.352 -0.2041  0.0416  0.0414
  237loPI   C3B 3791   4.873   7.087   8.876 -0.2232  0.1034 -0.0784
  237loPI   C4B 3792   4.669   7.105   8.474  0.0943 -0.0649  0.0531
  238loPI    C1 3793   0.197  14.003  11.138 -0.0172 -0.0496 -0.0904
  238loPI    C2 3794  -0.141  13.897  11.323  0.0998 -0.1491  0.0695
  238loPI    C3 3795   0.121  14.136  11.508  0.1371 -0.1070 -0.0372
  238loPI   PO4 3796   0.107  14.141  10.956 -0.1759 -0.2077  0.0962
  238loPI   GL1 3797   0.292  14.311  10.618  0.1299 -0.1090 -0.3851
  238loPI   GL2 3798   0.503  14.082  10.548  0.1181  0.1742 -0.1408
  238loPI   C1A 3799   0.135  14.429  10.223  0.0585 -0.0044  0.1868
  238loPI   C2A 3800   0.149  14.394   9.772 -0.0729  0.0735 -0.2459
  238loPI   C3A 3801   0.063  14.469   9.365  0.0917 -0.2275 -0.2490
  238loPI   C4A 3802   0.100  14.451   9.042 -0.0698 -0.3051  0.3108
  238loPI   C5A 3803   0.152  14.427   8.619 -0.0123 -0.2998  0.3329
  238loPI   C6A 3804   0.015  14.422   8.149  0.0952  0.0914  0.3285
  238loPI   C1B 3805   0.526  14.016  10.113 -0.1388 -0.0223  0.0142
  238loPI   C2B 3806   0.409  14.045   9.632 -0.3607 -0.0946 -0.0897
  238loPI   C3B 3807   0.351  13.972   9.176  0.0136 -0.1836  0.0885
  238loPI   C4B 3808   0.448  13.936   8.753 -0.2153  0.2651 -0.1212
  239loPI    C1 3809  16.882  16.731  11.240 -0.2792 -0.0834  0.0484
  239loPI    C2 3810  16.909  16.358  11.383 -0.1506 -0.1214 -0.0725
  239loPI    C3 3811  17.001  16.669  11.617  0.0947 -0.1852 -0.0821
  239loPI   PO4 3812  16.864  16.672  10.969  0.0640 -0.1071 -0.1400
  239loPI   GL1 3813  16.869  16.386  10.696  0.0898 -0.0563 -0.0156
  239loPI   GL2 3814  16.690  16.129  10.694 -0.3599  0.3537  0.0732
  239loPI   C1A 3815  16.895  16.556  10.232 -0.0032 -0.0760 -0.2192
  239loPI   C2A 3816  16.882  16.473   9.848 -0.0943  0.0474  0.2042
  239loPI   C3A 3817  16.928  16.550   9.381 -0.0076 -0.3086  0.2219
  239loPI   C4A 3818  17.041  16.604   8.975  0.1976  0.1861 -0.1173
  239loPI   C5A 3819  16.710  16.489   8.657 -0.1729  0.1509 -0.3475
  239loPI   C6A 3820  16.469  16.771   8.448  0.1453  0.0245  0.1849
  239loPI   C1B 3821  16.617  16.108  10.333  0.0168 -0.2552 -0.0200
  239loPI   C2B 3822  16.753  16.000   9.896 -0.4488  0.0247 -0.3661
  239loPI   C3B 3823  16.732  16.073   9.449 -0.0286 -0.2767  0.0897
  239loPI   C4B 3824  16.801  16.174   9.012  0.0685 -0.3077  0.0187
  240loPI    C1 3825  13.945  12.546  11.141 -0.1679  0.2474 -0.0403
  240loPI    C2 3826  14.139  12.343  11.426 -0.3662 -0.2383 -0.2407
  240loPI    C3 3827  14.193  12.738  11.389 -0.0115 -0.2394  0.1911
  240loPI   PO4 3828  13.988  12.487  10.937 -0.1643  0.1119  0.1858
  240loPI   GL1 3829  14.290  12.229  10.464  0.3256 -0.2309  0.1711
  240loPI   GL2 3830  13.979  12.110  10.491  0.3692 -0.0075 -0.1807
  240loPI   C1A 3831  14.355  12.246  10.018 -0.1711  0.0066  0.1668
  240loPI   C2A 3832  14.447  12.271   9.632  0.1254  0.2498  0.1737
  240loPI   C3A 3833  14.339  12.249   9.160  0.0969  0.0932  0.0478
  240loPI   C4A 3834  14.344  12.187   8.802 -0.1854 -0.1234  0.0070
  240loPI   C5A 3835  14.284  12.261   8.261  0.2813  0.0029 -0.0605
  240loPI   C6A 3836  13.974  12.364   7.898 -0.1349 -0.1924 -0.1771
  240loPI   C1B 3837  13.895  12.140   9.964  0.1242 -0.0119 -0.3019
  240loPI   C2B 3838  13.933  12.154   9.580  0.0202 -0.0102 -0.0125
  240loPI   C3B 3839  13.865  12.108   9.169  0.5376  0.0659  0.0245
  240loPI   C4B 3840  13.871  12.014   8.720 -0.0077 -0.4798  0.1669
  241loPI    C1 3841   5.872   8.975  11.244  0.1930 -0.0063  0.0511
  241loPI    C2 3842   5.521   8.795  11.312  0.0749  0.2002 -0.0017
  241loPI    C3 3843   5.775   8.858  11.615  0.0734  0.0382  0.0345
  241loPI   PO4 3844   5.820   9.111  11.049  0.0557  0.1939  0.0060
  241loPI   GL1 3845   5.901   9.100  10.561  0.1727 -0.1913  0.1364
  241loPI   GL2 3846   6.247   9.146  10.424  0.0877  0.1440  0.1887
  241loPI   C1A 3847   5.785   9.073  10.128  0.0343 -0.2075 -0.0514
  241loPI   C2A 3848   5.746   9.118   9.738  0.1229  0.2168  0.5335
  241loPI   C3A 3849   5.795   9.032   9.343  0.0825 -0.1959  0.0831
  241loPI   C4A 3850   5.765   9.105   8.949 -0.1159  0.3271 -0.2476
  241loPI   C5A 3851   5.671   9.113   8.555 -0.0025  0.1217  0.0420
  241loPI   C6A 3852   5.673   9.345   8.238  0.2903  0.0894  0.1689
  241loPI   C1B 3853   6.277   9.114   9.965 -0.0986  0.0328  0.2490
  241loPI   C2B 3854   6.221   9.025   9.499  0.1102 -0.1015  0.0998
  241loPI   C3B 3855   6.225   9.161   9.057  0.1139 -0.1522 -0.1237
  241loPI   C4B 3856   6.219   9.071   8.567 -0.0128  0.0381 -0.3352
  242loPI    C1 3857  11.865   9.031  10.986  0.0715 -0.1149 -0.0913
  242loPI    C2 3858  11.476   8.953  11.040  0.0913 -0.0660  0.1301
  242loPI    C3 3859  11.745   8.827  11.309  0.2100  0.0532  0.0682
  242loPI   PO4 3860  11.920   9.192  10.878 -0.1013  0.0119  0.0896
  242loPI   GL1 3861  11.954   9.326  10.506  0.0463  0.0882 -0.0748
  242loPI   GL2 3862  11.745   9.281  10.351  0.1306  0.1508 -0.0373
  242loPI   C1A 3863  12.166   9.170  10.137  0.2438  0.2109  0.2158
  242loPI   C2A 3864  12.206   9.335   9.708 -0.0817  0.0393  0.0435
  242loPI   C3A 3865  12.140   9.308   9.316 -0.0244  0.0688 -0.0407
  242loPI   C4A 3866  12.182   9.258   8.875  0.0444  0.0486  0.1429
  242loPI   C5A 3867  12.188   9.065   8.465 -0.0789 -0.0615  0.2560
  242loPI   C6A 3868  12.035   9.247   8.076 -0.0851  0.1366  0.0018
  242loPI   C1B 3869  11.671   9.110   9.973  0.1568  0.3035  0.3514
  242loPI   C2B 3870  11.656   9.211   9.581  0.2807  0.1976  0.0400
  242loPI   C3B 3871  11.711   9.222   9.131 -0.2485  0.0116 -0.0575
  242loPI   C4B 3872  11.727   9.267   8.637  0.0366 -0.1606  0.0472
  243loPI    C1 3873   2.826  14.319  11.373 -0.0430  0.2260 -0.1426
  243loPI    C2 3874   2.681  14.679  11.472 -0.0553  0.2195 -0.1368
  243loPI    C3 3875   2.737  14.401  11.754 -0.3863  0.0933 -0.1909
  243loPI   PO4 3876   2.841  14.360  11.132 -0.2194 -0.0533  0.1379
  243loPI   GL1 3877   2.874  14.460  10.724 -0.1006  0.1774  0.1455
  243loPI   GL2 3878   2.992  14.248  10.476 -0.3358 -0.0351 -0.0036
  243loPI   C1A 3879   2.776  14.643  10.337 -0.1827 -0.1408  0.1312
  243loPI   C2A 3880   2.710  14.748   9.996 -0.1472  0.2086 -0.1015
  243loPI   C3A 3881   2.796  14.763   9.602 -0.0547  0.0844  0.4784
  243loPI   C4A 3882   2.814  14.664   9.138  0.3449 -0.5552 -0.3119
  243loPI   C5A 3883   2.929  14.745   8.663  0.0272  0.0869  0.1082
  243loPI   C6A 3884   3.361  14.761   8.440 -0.2914 -0.0804  0.3418
  243loPI   C1B 3885   3.034  14.256  10.025  0.0929 -0.3214 -0.1632
  243loPI   C2B 3886   3.033  14.274   9.650  0.0954  0.4444  0.1052
  243loPI   C3B 3887   3.114  14.224   9.183  0.2230 -0.0876  0.1667
  243loPI   C4B 3888   3.228  14.316   8.609  0.0406  0.3180 -0.0776
  244loPI    C1 3889   7.341   1.078  11.226  0.2210  0.1808  0.0585
  244loPI    C2 3890   7.703   1.078  11.395  0.1963  0.2551  0.1120
  244loPI    C3 3891   7.380   1.167  11.614  0.1057 -0.1418  0.1472
  244loPI   PO4 3892   7.332   1.127  10.994 -0.2614  0.1515 -0.2895
  244loPI   GL1 3893   7.323   0.939  10.607 -0.0395 -0.1510 -0.0061
  244loPI   GL2 3894   7.563   1.024  10.378 -0.1588  0.1207  0.1729
  244loPI   C1A 3895   7.095   1.160  10.229  0.0579 -0.1863  0.0868
  244loPI   C2A 3896   6.972   1.025   9.848 -0.0344 -0.0137 -0.1983
  244loPI   C3A 3897   6.998   1.016   9.432 -0.2706  0.0886 -0.0746
  244loPI   C4A 3898   6.950   1.049   9.065 -0.2600  0.2141  0.0663
  244loPI   C5A 3899   7.044   1.061   8.635 -0.0983  0.0179  0.0412
  244loPI   C6A 3900   6.846   0.909   8.230 -0.1529  0.1149 -0.0223
  244loPI   C1B 3901   7.501   1.124   9.953 -0.0379 -0.1350  0.0146
  244loPI   C2B 3902   7.512   1.110   9.487  0.0426 -0.0303  0.0380
  244loPI   C3B 3903   7.448   1.008   8.986 -0.2300  0.3073 -0.2806
  244loPI   C4B 3904   7.464   0.838   8.594  0.3144  0.0241  0.1140
  245loPI    C1 3905  14.886   1.604  11.019  0.0385 -0.3383  0.2077
  245loPI    C2 3906  14.835   1.666  11.410  0.2635 -0.1623  0.2108
  245loPI    C3 3907  15.199   1.701  11.248  0.1235  0.0561 -0.0650
  245loPI   PO4 3908  14.777   1.379  11.020  0.0675  0.0150 -0.3201
  245loPI   GL1 3909  14.665   1.236  10.642  0.0111 -0.2241 -0.1609
  245loPI   GL2 3910  14.486   0.864  10.530 -0.2319 -0.0462  0.1422
  245loPI   C1A 3911  14.986   1.425  10.287 -0.0962 -0.0093  0.1397
  245loPI   C2A 3912  15.152   1.464   9.858 -0.0585  0.3896  0.1799
  245loPI   C3A 3913  15.023   1.384   9.289 -0.2445 -0.1995  0.0124
  245loPI   C4A 3914  15.075   1.398   8.889  0.0667 -0.0293 -0.4215
  245loPI   C5A 3915  15.027   1.526   8.511 -0.0367 -0.0571  0.2046
  245loPI   C6A 3916  14.573   1.415   8.505 -0.3344  0.0093  0.0410
  245loPI   C1B 3917  14.423   0.924  10.112 -0.1718  0.1210 -0.0194
  245loPI   C2B 3918  14.453   0.880   9.691 -0.0718  0.1787 -0.1094
  245loPI   C3B 3919  14.450   0.830   9.292  0.0633 -0.0509 -0.3323
  245loPI   C4B 3920  14.449   0.811   8.882  0.0024  0.3975 -0.2083
  246loPI    C1 3921  14.232   7.145  11.002  0.1069  0.0296  0.1258
  246loPI    C2 3922  14.288   7.234  11.388 -0.3651  0.0650  0.1909
  246loPI    C3 3923  14.173   6.866  11.282 -0.0131 -0.0113  0.0601
  246loPI   PO4 3924  14.405   7.219  10.845 -0.0463  0.0091  0.1626
  246loPI   GL1 3925  14.413   7.071  10.446  0.1908  0.1277  0.2418
  246loPI   GL2 3926  14.502   7.368  10.219  0.0584  0.1034 -0.1515
  246loPI   C1A 3927  14.248   7.052   9.949  0.0362 -0.0753 -0.0614
  246loPI   C2A 3928  14.231   7.161   9.484  0.4321 -0.3427  0.0803
  246loPI   C3A 3929  14.185   7.265   9.079  0.0412 -0.0201 -0.3727
  246loPI   C4A 3930  14.127   7.285   8.663 -0.0843  0.2708  0.0088
  246loPI   C5A 3931  14.275   7.323   8.322 -0.0638 -0.2024  0.1130
  246loPI   C6A 3932  14.605   7.381   8.083 -0.0249 -0.0618 -0.4219
  246loPI   C1B 3933  14.438   7.602   9.903 -0.1415 -0.1402 -0.4753
  246loPI   C2B 3934  14.380   7.628   9.534  0.1431 -0.0940 -0.1828
  246loPI   C3B 3935  14.344   7.763   9.013  0.2159 -0.2556  0.0599
  246loPI   C4B 3936  14.320   7.735   8.611 -0.0487  0.0112 -0.0818
  247loPI    C1 3937  15.741   2.673  11.474  0.1695 -0.0567 -0.0696
  247loPI    C2 3938  16.111   2.564  11.580  0.1474 -0.0287  0.0375
  247loPI    C3 3939  15.816   2.560  11.851  0.0390 -0.1847 -0.0811
  247loPI   PO4 3940  15.685   2.565  11.204  0.1754 -0.1658 -0.1982
  247loPI   GL1 3941  15.671   2.661  10.800  0.0658  0.1855 -0.1179
  247loPI   GL2 3942  15.631   2.942  10.549 -0.1983  0.2988 -0.0647
  247loPI   C1A 3943  15.590   2.377  10.481 -0.2987  0.2064  0.2024
  247loPI   C2A 3944  15.508   2.422   9.978 -0.0994 -0.0319  0.0197
  247loPI   C3A 3945  15.525   2.381   9.567  0.0026  0.0417  0.0856
  247loPI   C4A 3946  15.516   2.334   9.105 -0.2768  0.3801  0.1024
  247loPI   C5A 3947  15.346   2.381   8.632  0.1674  0.0826 -0.3034
  247loPI   C6A 3948  15.322   2.286   8.273  0.3225  0.1495  0.2488
  247loPI   C1B 3949  15.779   2.776  10.190  0.0929  0.1603 -0.0009
  247loPI   C2B 3950  15.717   2.828   9.853  0.2347  0.1611  0.0316
  247loPI   C3B 3951  15.792   2.802   9.448 -0.0354 -0.0570  0.0632
  247loPI   C4B 3952  15.705   2.802   9.134  0.1017  0.3887  0.3281
  248loPI    C1 3953   7.704   1.481  11.123  0.0272 -0.2766  0.1081
  248loPI    C2 3954   8.081   1.388  11.218  0.0988  0.0436  0.1475
  248loPI    C3 3955   7.843   1.561  11.489 -0.0899 -0.1912  0.1344
  248loPI   PO4 3956   7.715   1.437  10.842 -0.2028  0.1837  0.1183
  248loPI   GL1 3957   7.853   1.684  10.479 -0.0805 -0.2241 -0.0102
  248loPI   GL2 3958   7.992   1.997  10.520  0.0337  0.1396  0.2585
  248loPI   C1A 3959   7.722   1.586  10.048 -0.2429  0.1897 -0.4062
  248loPI   C2A 3960   7.731   1.567   9.601 -0.4273  0.1491 -0.2859
  248loPI   C3A 3961   7.725   1.458   9.182  0.1704 -0.2881 -0.2502
  248loPI   C4A 3962   7.731   1.501   8.814 -0.3174  0.1641 -0.1575
  248loPI   C5A 3963   7.818   1.530   8.361  0.1781  0.2070 -0.0848
  248loPI   C6A 3964   8.235   1.763   8.261 -0.3236  0.1427 -0.2104
  248loPI   C1B 3965   8.049   2.019  10.041  0.3423  0.1575  0.1431
  248loPI   C2B 3966   8.036   2.055   9.559 -0.1659  0.0200  0.0159
  248loPI   C3B 3967   7.910   1.980   9.092  0.0271  0.1103  0.0700
  248loPI   C4B 3968   7.922   2.050   8.685  0.1269  0.2549  0.2684
  249loPI    C1 3969   7.565  12.564  11.032  0.1733  0.1152 -0.1723
  249loPI    C2 3970   7.783  12.372  10.757  0.1574 -0.1385 -0.0107
  249loPI    C3 3971   7.950  12.485  11.102  0.1166 -0.0353 -0.0245
  249loPI   PO4 3972   7.415  12.730  10.912 -0.1940 -0.0417  0.3770
  249loPI   GL1 3973   7.445  12.675  10.480 -0.0182 -0.1328 -0.1245
  249loPI   GL2 3974   7.163  12.414  10.462 -0.1868 -0.1519 -0.1054
  249loPI   C1A 3975   7.370  12.855  10.093  0.1174  0.1042 -0.1810
  249loPI   C2A 3976   7.407  12.840   9.638  0.0434 -0.1656  0.0432
  249loPI   C3A 3977   7.331  12.734   9.266 -0.1710 -0.3632 -0.3195
  249loPI   C4A 3978   7.355  12.759   8.798 -0.0616 -0.4305  0.2121
  249loPI   C5A 3979   7.445  12.630   8.302 -0.1160 -0.2369 -0.0831
  249loPI   C6A 3980   7.405  12.785   7.842 -0.1217  0.0570 -0.2919
  249loPI   C1B 3981   7.060  12.370  10.108 -0.0690 -0.0136 -0.0492
  249loPI   C2B 3982   7.152  12.379   9.735  0.1885  0.3630  0.0498
  249loPI   C3B 3983   7.119  12.291   9.265 -0.5639  0.2395  0.1826
  249loPI   C4B 3984   7.182  12.245   8.760  0.0469 -0.0524  0.0580
  250loPI    C1 3985  13.986   1.966  11.148  0.1327  0.0213  0.0888
  250loPI    C2 3986  13.805   1.653  11.318  0.0155  0.0682  0.0517
  250loPI    C3 3987  13.796   2.010  11.498 -0.0693  0.1075 -0.0296
  250loPI   PO4 3988  14.003   1.905  10.921 -0.0109  0.0526  0.3023
  250loPI   GL1 3989  14.173   1.751  10.652  0.1781 -0.1537  0.2210
  250loPI   GL2 3990  14.418   1.656  10.663 -0.0124 -0.2024  0.0831
  250loPI   C1A 3991  14.242   1.868  10.170  0.0166  0.1834 -0.0780
  250loPI   C2A 3992  14.344   1.745   9.795 -0.0052  0.0848  0.1262
  250loPI   C3A 3993  14.261   1.763   9.360 -0.2652  0.1476 -0.0566
  250loPI   C4A 3994  14.219   1.741   8.935  0.1819  0.1168 -0.0159
  250loPI   C5A 3995  14.158   1.653   8.444  0.1169 -0.2961  0.2330
  250loPI   C6A 3996  13.793   1.667   8.286 -0.0183 -0.4918  0.2134
  250loPI   C1B 3997  14.459   1.432  10.263 -0.2850  0.2366 -0.0877
  250loPI   C2B 3998  14.653   1.351   9.898 -0.0604  0.2031  0.1642
  250loPI   C3B 3999  14.558   1.333   9.410  0.1837 -0.0205 -0.2354
  250loPI   C4B 4000  14.539   1.365   8.992 -0.0579  0.0028  0.0023
  251loPI    C1 4001  10.243   9.434  11.083 -0.1062 -0.1781  0.2212
  251loPI    C2 4002  10.244   9.126  11.339 -0.2508 -0.0745  0.3486
  251loPI    C3 4003  10.159   9.495  11.470  0.0008  0.0345  0.2126
  251loPI   PO4 4004  10.201   9.465  10.782  0.2442 -0.2816 -0.3283
  251loPI   GL1 4005  10.477   9.550  10.499  0.0357 -0.1826  0.1683
  251loPI   GL2 4006  10.849   9.569  10.447 -0.1724  0.0121 -0.3082
  251loPI   C1A 4007  10.329   9.400  10.056  0.3136  0.2618  0.0835
  251loPI   C2A 4008  10.440   9.440   9.589  0.0045 -0.0494  0.1260
  251loPI   C3A 4009  10.207   9.459   9.228 -0.1961 -0.2419  0.0638
  251loPI   C4A 4010  10.164   9.460   8.822 -0.0942  0.3422  0.0007
  251loPI   C5A 4011   9.967   9.246   8.450 -0.0654 -0.0828 -0.1488
  251loPI   C6A 4012   9.620   8.960   8.471  0.1941 -0.1490  0.0040
  251loPI   C1B 4013  10.801   9.501  10.010  0.1105  0.0338  0.0219
  251loPI   C2B 4014  10.891   9.536   9.519  0.2923 -0.0469 -0.4400
  251loPI   C3B 4015  10.813   9.519   9.062  0.1014 -0.0298  0.1471
  251loPI   C4B 4016  10.798   9.663   8.654 -0.0137  0.0496 -0.1215
  252loPI    C1 4017  13.450   6.238  11.032  0.0700 -0.2326 -0.0121
  252loPI    C2 4018  13.317   6.338  11.395  0.1657 -0.1125 -0.0096
  252loPI    C3 4019  13.175   6.525  11.071  0.1132 -0.1883 -0.0305
  252loPI   PO4 4020  13.436   5.987  11.032 -0.0615 -0.0710 -0.0946
  252loPI   GL1 4021  13.482   5.754  10.648 -0.2467 -0.1972 -0.0468
  252loPI   GL2 4022  13.114   5.774  10.599 -0.2388  0.2148 -0.0487
  252loPI   C1A 4023  13.569   5.781  10.239 -0.1053  0.1407  0.1934
  252loPI   C2A 4024  13.538   5.782   9.843 -0.0912  0.1117  0.1947
  252loPI   C3A 4025  13.582   5.717   9.407 -0.0929 -0.2139  0.1481
  252loPI   C4A 4026  13.546   5.796   8.881  0.1870  0.2244  0.0138
  252loPI   C5A 4027  13.478   5.944   8.467  0.3948 -0.1935  0.3390
  252loPI   C6A 4028  13.749   5.931   8.010 -0.2439  0.0048 -0.1562
  252loPI   C1B 4029  13.077   5.720  10.064  0.4202  0.0759  0.0425
  252loPI   C2B 4030  13.053   5.695   9.654 -0.0795  0.1702  0.1073
  252loPI   C3B 4031  13.035   5.720   9.210  0.1068  0.2554  0.1391
  252loPI   C4B 4032  13.050   5.623   8.810  0.0474  0.0444  0.1236
  253loPI    C1 4033   1.182   0.824  11.227 -0.0091  0.1131  0.0955
  253loPI    C2 4034   1.189   0.425  11.200 -0.3169  0.1194 -0.1333
  253loPI    C3 4035   1.054   0.601  11.533  0.1953  0.0383  0.1284
  253loPI   PO4 4036   1.181   0.865  10.978 -0.1844 -0.2052  0.0701
  253loPI   GL1 4037   1.469   0.570  10.738 -0.0105  0.0905 -0.0197
  253loPI   GL2 4038   1.189   0.347  10.736 -0.1310 -0.0311  0.3685
  253loPI   C1A 4039   1.545   0.829  10.348 -0.1484  0.0110  0.0022
  253loPI   C2A 4040   1.539   0.858   9.865 -0.2414 -0.0807 -0.0128
  253loPI   C3A 4041   1.561   0.818   9.496 -0.2389 -0.1462  0.0796
  253loPI   C4A 4042   1.502   0.874   9.128 -0.1881 -0.1373 -0.3733
  253loPI   C5A 4043   1.758   0.936   8.798  0.0103 -0.1830  0.0243
  253loPI   C6A 4044   2.142   1.048   8.466  0.1990 -0.2403  0.0719
  253loPI   C1B 4045   1.351   0.403  10.256 -0.0476  0.3199  0.3607
  253loPI   C2B 4046   1.384   0.418   9.826 -0.2794  0.2051  0.3905
  253loPI   C3B 4047   1.343   0.366   9.402  0.1720 -0.1528 -0.1724
  253loPI   C4B 4048   1.429   0.367   8.923  0.0285  0.1200  0.5697
  254loPI    C1 4049   9.516  16.918  11.123  0.0500  0.0762 -0.2398
  254loPI    C2 4050   9.618  16.627  10.870 -0.0664 -0.2462  0.0753
  254loPI    C3 4051   9.596  16.552  11.262  0.3088  0.2948  0.2115
  254loPI   PO4 4052   9.564  17.113  10.917 -0.0514  0.0688  0.1384
  254loPI   GL1 4053   9.564  17.098  10.518  0.2682 -0.1830 -0.1898
  254loPI   GL2 4054   9.422  17.386  10.579  0.1394 -0.0853 -0.0992
  254loPI   C1A 4055   9.620  16.855  10.239  0.0026 -0.0850 -0.2311
  254loPI   C2A 4056   9.607  16.766   9.866 -0.2728  0.1638 -0.3456
  254loPI   C3A 4057   9.597  16.621   9.465  0.2386 -0.0585  0.2110
  254loPI   C4A 4058   9.506  16.570   9.012  0.2914 -0.0111  0.0533
  254loPI   C5A 4059   9.697  16.561   8.655 -0.1339 -0.0750  0.1119
  254loPI   C6A 4060   9.949  16.593   8.293 -0.0336 -0.0595 -0.2048
  254loPI   C1B 4061   9.283  17.220  10.154 -0.2987  0.1935  0.2549
  254loPI   C2B 4062   9.208  17.166   9.659 -0.0763  0.1481  0.1722
  254loPI   C3B 4063   9.287  17.119   9.165 -0.0577  0.0340  0.3532
  254loPI   C4B 4064   9.213  17.001   8.692 -0.0062 -0.0389  0.1052
  255loPI    C1 4065   9.900  12.475  11.325 -0.2272 -0.3543  0.0473
  255loPI    C2 4066  10.102  12.784  11.478 -0.1973 -0.1383 -0.4127
  255loPI    C3 4067   9.894  12.542  11.719 -0.0317  0.1003 -0.0212
  255loPI   PO4 4068   9.837  12.599  11.064 -0.3081 -0.0541  0.2245
  255loPI   GL1 4069   9.597  12.467  10.724  0.1370 -0.1236  0.1223
  255loPI   GL2 4070   9.643  12.163  10.617  0.0845  0.0282 -0.0404
  255loPI   C1A 4071   9.683  12.677  10.428 -0.0595  0.1422 -0.1253
  255loPI   C2A 4072   9.753  12.595   9.988 -0.2657 -0.3754  0.1698
  255loPI   C3A 4073   9.828  12.605   9.593 -0.1703 -0.0874  0.1159
  255loPI   C4A 4074   9.710  12.622   9.124 -0.0300 -0.3397  0.0143
  255loPI   C5A 4075   9.714  12.416   8.689 -0.3010 -0.0658  0.1089
  255loPI   C6A 4076   9.509  12.057   8.480 -0.0210 -0.0351 -0.1725
  255loPI   C1B 4077   9.593  12.199  10.190 -0.0100  0.2398  0.0371
  255loPI   C2B 4078   9.593  12.162   9.802  0.0686  0.1996  0.1030
  255loPI   C3B 4079   9.530  12.142   9.405 -0.1529  0.4609 -0.4248
  255loPI   C4B 4080   9.488  12.087   9.011  0.0578 -0.2107  0.1047
  256loPI    C1 4081   0.136   6.924  11.000  0.0129 -0.0634 -0.0346
  256loPI    C2 4082  -0.017   6.650  11.247  0.1483 -0.0379  0.0788
  256loPI    C3 4083   0.019   7.029  11.368  0.2130 -0.0249  0.0192
  256loPI   PO4 4084   0.089   6.896  10.789  0.4202  0.1627 -0.0840
  256loPI   GL1 4085   0.112   6.707  10.352 -0.2025  0.0121  0.0762
  256loPI   GL2 4086   0.448   6.727  10.273  0.1409 -0.0764  0.0462
  256loPI   C1A 4087   0.046   7.044  10.138  0.0152  0.1708 -0.0482
  256loPI   C2A 4088  -0.159   7.100   9.840 -0.0553  0.1972  0.0450
  256loPI   C3A 4089  -0.182   7.060   9.388  0.0712  0.1738  0.0964
  256loPI   C4A 4090  -0.159   7.097   8.909  0.5965 -0.0201 -0.0941
  256loPI   C5A 4091  -0.055   7.320   8.487 -0.1307  0.4499 -0.0353
  256loPI   C6A 4092   0.310   7.295   8.192 -0.1358  0.0987 -0.0551
  256loPI   C1B 4093   0.265   6.637   9.771 -0.0931  0.0028 -0.0406
  256loPI   C2B 4094   0.222   6.572   9.338  0.1887 -0.2527 -0.1347
  256loPI   C3B 4095   0.308   6.757   8.884  0.0075  0.3333 -0.2641
  256loPI   C4B 4096   0.386   6.847   8.420 -0.1413 -0.2826  0.1151
  257loPI    C1 4097  17.645   8.983  11.188  0.2423  0.2105  0.0587
  257loPI    C2 4098  17.568   9.104  11.562  0.0552  0.0106  0.0872
  257loPI    C3 4099  17.725   8.742  11.497 -0.0057  0.0052 -0.0336
  257loPI   PO4 4100  17.547   9.024  11.046 -0.1199 -0.0988 -0.0885
  257loPI   GL1 4101  17.644   8.939  10.642 -0.0592  0.1599  0.0607
  257loPI   GL2 4102  17.336   9.067  10.500  0.0189  0.3217  0.0987
  257loPI   C1A 4103  17.918   8.919  10.318 -0.1647  0.0954 -0.2912
  257loPI   C2A 4104  18.019   9.000   9.911 -0.0275 -0.1219  0.1792
  257loPI   C3A 4105  17.946   9.027   9.505 -0.3650  0.1300  0.0224
  257loPI   C4A 4106  17.983   9.028   9.097 -0.2657  0.1254 -0.0292
  257loPI   C5A 4107  18.051   9.127   8.645 -0.1409 -0.0821 -0.1075
  257loPI   C6A 4108  17.912   8.845   8.444  0.0412 -0.2229  0.2152
  257loPI   C1B 4109  17.422   8.844  10.117  0.2264 -0.1932 -0.3255
  257loPI   C2B 4110  17.422   8.921   9.687 -0.0576 -0.1108 -0.0993
  257loPI   C3B 4111  17.454   8.933   9.180 -0.3620 -0.2086 -0.0865
  257loPI   C4B 4112  17.523   9.017   8.743 -0.2986  0.1626 -0.0999
  258loPI    C1 4113   9.134  17.365  10.967  0.0526 -0.3715  0.0087
  258loPI    C2 4114   9.018  17.613  11.259  0.0096 -0.1624 -0.1831
  258loPI    C3 4115   9.298  17.336  11.331  0.1590  0.0319 -0.0023
  258loPI   PO4 4116   8.945  17.333  10.814  0.1719 -0.1536 -0.4245
  258loPI   GL1 4117   8.872  17.142  10.415  0.0870  0.1817 -0.0281
  258loPI   GL2 4118   8.680  16.952  10.423  0.0521  0.1739 -0.0380
  258loPI   C1A 4119   8.791  17.075   9.958  0.1214  0.0305  0.0907
  258loPI   C2A 4120   8.691  17.039   9.592 -0.4394 -0.2217  0.1146
  258loPI   C3A 4121   8.725  17.078   9.137 -0.0936 -0.0759  0.1700
  258loPI   C4A 4122   8.718  17.003   8.723  0.1660  0.3051  0.2165
  258loPI   C5A 4123   8.826  16.661   8.455 -0.0192 -0.1722 -0.2907
  258loPI   C6A 4124   9.212  16.366   8.544  0.2786  0.1433  0.1223
  258loPI   C1B 4125   8.999  16.691  10.091 -0.0368  0.1797 -0.0149
  258loPI   C2B 4126   9.119  16.600   9.726 -0.2280 -0.1487 -0.1009
  258loPI   C3B 4127   9.045  16.713   9.347  0.2282  0.0608  0.1757
  258loPI   C4B 4128   8.982  16.665   8.944  0.0528  0.1035 -0.0231
  259loPI    C1 4129   8.433   9.674  11.505 -0.0365 -0.0640 -0.1166
  259loPI    C2 4130   8.766   9.459  11.558 -0.0325 -0.0424 -0.0536
  259loPI    C3 4131   8.739   9.828  11.710 -0.1126 -0.0717  0.0040
  259loPI   PO4 4132   8.302   9.601  11.227 -0.2188 -0.1463  0.1723
  259loPI   GL1 4133   8.484   9.559  10.780  0.1167 -0.0651  0.0896
  259loPI   GL2 4134   8.407   9.161  10.729  0.1346 -0.0362  0.0686
  259loPI   C1A 4135   8.541   9.703  10.316 -0.0860 -0.0251 -0.0009
  259loPI   C2A 4136   8.541   9.730   9.874 -0.0049 -0.0696  0.0620
  259loPI   C3A 4137   8.448   9.736   9.389 -0.3101  0.0975  0.1067
  259loPI   C4A 4138   8.365   9.759   9.054  0.0504  0.0046 -0.1828
  259loPI   C5A 4139   8.252   9.595   8.669 -0.1256 -0.1109  0.1475
  259loPI   C6A 4140   8.197   9.325   8.365  0.1085 -0.1308 -0.2779
  259loPI   C1B 4141   8.336   9.249  10.335 -0.1364 -0.3902 -0.2250
  259loPI   C2B 4142   8.340   9.230   9.959  0.2361 -0.1361  0.1178
  259loPI   C3B 4143   8.327   9.260   9.478  0.1650 -0.1118  0.1215
  259loPI   C4B 4144   8.216   9.258   9.068 -0.2963 -0.0683  0.2346
  260loPI    C1 4145   7.841   7.386  11.096  0.0953 -0.0080  0.1525
  260loPI    C2 4146   7.624   7.266  11.410 -0.2045 -0.1685 -0.1091
  260loPI    C3 4147   8.024   7.245  11.422 -0.2041 -0.0107  0.3227
  260loPI   PO4 4148   7.661   7.275  10.896  0.2172  0.1936 -0.0972
  260loPI   GL1 4149   7.805   6.990  10.470 -0.1089  0.0851  0.0828
  260loPI   GL2 4150   8.078   7.159  10.577  0.0395  0.0237  0.1903
  260loPI   C1A 4151   7.770   6.948   9.995 -0.4178 -0.1305  0.0288
  260loPI   C2A 4152   7.813   6.944   9.539  0.0784 -0.1031 -0.2983
  260loPI   C3A 4153   7.706   6.887   9.037  0.2042 -0.1233 -0.0688
  260loPI   C4A 4154   7.528   6.798   8.613  0.2263  0.2504  0.1864
  260loPI   C5A 4155   7.181   6.886   8.480  0.0220 -0.0177  0.1108
  260loPI   C6A 4156   6.911   6.648   8.270 -0.2247  0.1975 -0.0781
  260loPI   C1B 4157   8.263   7.042  10.165  0.3110 -0.2257  0.1455
  260loPI   C2B 4158   8.337   7.005   9.766  0.1772  0.0687  0.2845
  260loPI   C3B 4159   8.299   6.989   9.339 -0.1131  0.0557  0.0224
  260loPI   C4B 4160   8.209   7.086   8.863  0.1559  0.0481  0.0545
  261loPI    C1 4161   6.420  17.037  11.164 -0.2782  0.2109  0.0590
  261loPI    C2 4162   6.708  17.309  11.223  0.0398 -0.0857 -0.0872
  261loPI    C3 4163   6.689  16.984  11.456 -0.1761 -0.0714 -0.0828
  261loPI   PO4 4164   6.447  16.968  10.908 -0.3962 -0.1262  0.3400
  261loPI   GL1 4165   6.311  16.917  10.568 -0.0767  0.1150 -0.0500
  261loPI   GL2 4166   6.298  17.241  10.446  0.3374  0.4276  0.0916
  261loPI   C1A 4167   6.197  16.775  10.214 -0.1377 -0.2635 -0.0154
  261loPI   C2A 4168   6.078  16.773   9.795  0.0473 -0.0367 -0.1978
  261loPI   C3A 4169   6.111  16.780   9.374  0.0509 -0.3835 -0.1232
  261loPI   C4A 4170   6.205  16.884   8.862 -0.0782  0.3551 -0.1224
  261loPI   C5A 4171   6.315  16.845   8.495 -0.5032 -0.0173  0.0249
  261loPI   C6A 4172   6.319  16.438   8.382 -0.2875 -0.1598  0.1398
  261loPI   C1B 4173   6.355  17.276   9.994 -0.0213  0.0724  0.1513
  261loPI   C2B 4174   6.268  17.298   9.534 -0.0471 -0.1747 -0.1181
  261loPI   C3B 4175   6.321  17.352   9.132  0.1340  0.0939  0.2369
  261loPI   C4B 4176   6.428  17.289   8.603  0.1026 -0.0047 -0.0256
  262loPI    C1 4177  13.953  14.298  10.901 -0.0598 -0.0460 -0.0302
  262loPI    C2 4178  14.292  14.235  11.105  0.0608 -0.0236 -0.2206
  262loPI    C3 4179  14.077  13.925  10.972  0.0939 -0.0375 -0.2418
  262loPI   PO4 4180  14.118  14.582  10.809 -0.2192 -0.1262  0.2445
  262loPI   GL1 4181  14.321  14.610  10.436 -0.0231  0.0580  0.0014
  262loPI   GL2 4182  14.312  15.005  10.374 -0.0133  0.2625 -0.0464
  262loPI   C1A 4183  14.513  14.473   9.994 -0.1318 -0.0089 -0.2561
  262loPI   C2A 4184  14.522  14.452   9.528 -0.3138 -0.1979 -0.2476
  262loPI   C3A 4185  14.362  14.476   9.101 -0.2884  0.2293 -0.3241
  262loPI   C4A 4186  14.537  14.389   8.589  0.1342 -0.0741 -0.0280
  262loPI   C5A 4187  14.832  14.116   8.463  0.4180  0.0708  0.0699
  262loPI   C6A 4188  15.199  13.927   8.326  0.1727 -0.0501  0.0169
  262loPI   C1B 4189  14.224  14.879   9.963 -0.1281  0.0521 -0.2265
  262loPI   C2B 4190  14.113  14.822   9.470  0.0836 -0.0146 -0.1216
  262loPI   C3B 4191  14.044  14.901   9.076  0.1822  0.0941 -0.2995
  262loPI   C4B 4192  14.141  14.954   8.732 -0.4074  0.1002  0.3813
  263loPI    C1 4193  11.388   1.653  11.154 -0.1942  0.0564  0.0036
  263loPI    C2 4194  11.237   1.476  11.479  0.0052  0.0639  0.1019
  263loPI    C3 4195  11.527   1.749  11.516  0.0208  0.0736 -0.0816
  263loPI   PO4 4196  11.221   1.775  11.021  0.0519 -0.0356 -0.3300
  263loPI   GL1 4197  11.243   1.647  10.662  0.0305 -0.4247 -0.0114
  263loPI   GL2 4198  11.435   1.910  10.609 -0.2959 -0.0382 -0.0455
  263loPI   C1A 4199  11.152   1.455  10.224 -0.1773 -0.0554 -0.4414
  263loPI   C2A 4200  11.148   1.376   9.856  0.0969  0.0887  0.1104
  263loPI   C3A 4201  11.302   1.344   9.492  0.1627 -0.1171  0.3029
  263loPI   C4A 4202  11.130   1.345   9.087  0.0694  0.1880  0.0715
  263loPI   C5A 4203  11.126   1.416   8.693  0.2991  0.0428  0.4479
  263loPI   C6A 4204  10.940   1.493   8.267 -0.0257  0.1163 -0.0693
  263loPI   C1B 4205  11.418   1.912  10.177 -0.1772  0.0301  0.0563
  263loPI   C2B 4206  11.473   1.912   9.743  0.2805  0.1919  0.2838
  263loPI   C3B 4207  11.402   1.797   9.299 -0.0261  0.2116  0.1418
  263loPI   C4B 4208  11.351   1.866   8.899  0.2424 -0.1861 -0.0278
  264loPI    C1 4209   7.721  17.308  10.815  0.1624  0.1611  0.0049
  264loPI    C2 4210   7.724  17.566  11.120 -0.2338 -0.0238  0.1713
  264loPI    C3 4211   7.539  17.662  10.779 -0.0976  0.0413  0.1154
  264loPI   PO4 4212   7.925  17.288  10.708 -0.0455 -0.1243  0.2563
  264loPI   GL1 4213   8.003  17.219  10.265  0.1416 -0.3206  0.1267
  264loPI   GL2 4214   8.188  16.920  10.329 -0.2659  0.2632 -0.2885
  264loPI   C1A 4215   7.842  17.460   9.899 -0.2889 -0.2242  0.2393
  264loPI   C2A 4216   7.891  17.556   9.492 -0.0046  0.1938  0.2966
  264loPI   C3A 4217   7.847  17.395   9.110  0.1239 -0.1598 -0.0847
  264loPI   C4A 4218   7.841  17.243   8.704 -0.0066  0.1417 -0.0849
  264loPI   C5A 4219   7.858  17.019   8.330 -0.0548  0.0879  0.0896
  264loPI   C6A 4220   7.869  16.660   8.130  0.4473 -0.0952  0.1042
  264loPI   C1B 4221   8.150  16.979   9.892 -0.0449 -0.1961  0.0114
  264loPI   C2B 4222   8.149  17.086   9.462 -0.3411 -0.2903 -0.0749
  264loPI   C3B 4223   8.200  16.982   9.038  0.0505  0.0309  0.1993
  264loPI   C4B 4224   8.226  16.821   8.664  0.0140  0.0034  0.1519
  265loPI    C1 4225   3.291  12.073  11.167 -0.0108 -0.0971 -0.0702
  265loPI    C2 4226   3.650  11.999  11.327  0.0002  0.0816 -0.0096
  265loPI    C3 4227   3.321  11.966  11.552 -0.0036  0.1191 -0.0095
  265loPI   PO4 4228   3.357  11.974  10.901 -0.0664 -0.0215  0.0445
  265loPI   GL1 4229   3.429  11.774  10.565 -0.1628  0.1738 -0.3783
  265loPI   GL2 4230   3.772  11.529  10.435 -0.1161 -0.0471 -0.3043
  265loPI   C1A 4231   3.613  11.976  10.242  0.0291 -0.1278 -0.1391
  265loPI   C2A 4232   3.592  12.025   9.857 -0.0931  0.1379 -0.1067
  265loPI   C3A 4233   3.623  12.033   9.403  0.0057 -0.2174 -0.1330
  265loPI   C4A 4234   3.474  12.055   9.005  0.0860  0.0791  0.2629
  265loPI   C5A 4235   3.344  12.106   8.581 -0.1699 -0.0983  0.0819
  265loPI   C6A 4236   3.337  11.868   8.248 -0.0845 -0.1267 -0.2752
  265loPI   C1B 4237   3.910  11.641  10.060  0.3579 -0.1242  0.2658
  265loPI   C2B 4238   3.920  11.662   9.548 -0.0252  0.1091  0.0271
  265loPI   C3B 4239   3.779  11.641   9.044 -0.0482  0.0153 -0.0832
  265loPI   C4B 4240   3.781  11.613   8.624  0.1679 -0.0490  0.2877
  266loPI    C1 4241  13.041   4.702  11.308  0.1490  0.0314 -0.0683
  266loPI    C2 4242  12.916   5.040  11.136  0.0351 -0.0364 -0.1199
  266loPI    C3 4243  12.651   4.792  11.303  0.1200 -0.0929 -0.0688
  266loPI   PO4 4244  13.278   4.549  11.197 -0.1910  0.2567  0.0153
  266loPI   GL1 4245  13.320   4.431  10.742  0.0566 -0.0244 -0.0813
  266loPI   GL2 4246  13.441   4.236  10.562  0.4214 -0.1370 -0.1295
  266loPI   C1A 4247  13.009   4.283  10.314  0.1397 -0.1286 -0.2623
  266loPI   C2A 4248  12.921   4.327   9.878  0.2142  0.0838 -0.1041
  266loPI   C3A 4249  12.939   4.280   9.382 -0.1975 -0.1109 -0.0055
  266loPI   C4A 4250  12.902   4.501   8.972  0.0345 -0.1768  0.1005
  266loPI   C5A 4251  12.848   4.363   8.579 -0.0891  0.3369  0.2301
  266loPI   C6A 4252  12.749   4.560   8.255 -0.1309  0.1545 -0.0784
  266loPI   C1B 4253  13.492   4.270  10.072 -0.0483 -0.1442  0.1229
  266loPI   C2B 4254  13.494   4.332   9.638  0.0004  0.1075  0.1084
  266loPI   C3B 4255  13.424   4.390   9.154 -0.2753  0.2054  0.1059
  266loPI   C4B 4256  13.431   4.422   8.761 -0.1084 -0.4404 -0.2363
  267loPI    C1 4257   2.392   7.673  10.986  0.0839  0.0379 -0.0088
  267loPI    C2 4258   2.485   7.312  11.131  0.2292  0.1106  0.0817
  267loPI    C3 4259   2.362   7.601  11.379 -0.0810  0.0656 -0.0156
  267loPI   PO4 4260   2.464   7.722  10.783 -0.1258 -0.0255  0.0530
  267loPI   GL1 4261   2.241   7.821  10.295  0.0661 -0.1655  0.1034
  267loPI   GL2 4262   2.218   7.494  10.341 -0.0457  0.1848 -0.0266
  267loPI   C1A 4263   2.275   7.783   9.766 -0.0239  0.2426 -0.1954
  267loPI   C2A 4264   2.185   7.763   9.342 -0.1110  0.2770  0.0059
  267loPI   C3A 4265   2.090   7.756   8.838  0.1783 -0.0913 -0.0532
  267loPI   C4A 4266   2.148   7.872   8.436 -0.0714  0.0144 -0.0943
  267loPI   C5A 4267   1.979   8.091   8.163 -0.0741 -0.1870 -0.2166
  267loPI   C6A 4268   1.824   8.426   7.882  0.1028  0.1600 -0.0855
  267loPI   C1B 4269   2.077   7.323  10.021  0.0517 -0.1041 -0.1218
  267loPI   C2B 4270   1.993   7.279   9.522 -0.0623 -0.0947 -0.0239
  267loPI   C3B 4271   1.964   7.310   9.074 -0.1648  0.1349 -0.0055
  267loPI   C4B 4272   1.829   7.284   8.708 -0.1861  0.1354  0.2962
  268loPI    C1 4273   5.625  15.623  11.329  0.0180 -0.2951  0.2448
  268loPI    C2 4274   5.517  16.006  11.368  0.3427 -0.1965  0.1996
  268loPI    C3 4275   5.363  15.730  11.613 -0.1198 -0.0864  0.0427
  268loPI   PO4 4276   5.724  15.675  11.067 -0.0751  0.3219 -0.1027
  268loPI   GL1 4277   5.801  15.309  10.739 -0.1485 -0.2021  0.4671
  268loPI   GL2 4278   5.411  15.499  10.575 -0.3149  0.1515 -0.0243
  268loPI   C1A 4279   6.084  15.362  10.362  0.1741  0.1943 -0.3254
  268loPI   C2A 4280   6.028  15.394   9.978  0.1164 -0.1792  0.3047
  268loPI   C3A 4281   6.079  15.361   9.504  0.0262 -0.0460 -0.1955
  268loPI   C4A 4282   6.077  15.347   9.074  0.0701  0.2174 -0.0615
  268loPI   C5A 4283   5.974  15.346   8.560  0.0022 -0.2565  0.0371
  268loPI   C6A 4284   5.642  15.639   8.452  0.1388  0.2320 -0.1254
  268loPI   C1B 4285   5.547  15.346  10.185 -0.4258  0.0794 -0.0114
  268loPI   C2B 4286   5.582  15.288   9.724 -0.2386 -0.0770 -0.0611
  268loPI   C3B 4287   5.599  15.337   9.269  0.0619 -0.0166  0.1548
  268loPI   C4B 4288   5.519  15.304   8.875  0.0482  0.4592  0.0244
  269loPI    C1 4289   2.041  16.743  11.025 -0.3198 -0.2094 -0.1322
  269loPI    C2 4290   2.080  16.609  11.400  0.0121 -0.1155 -0.1300
  269loPI    C3 4291   1.744  16.795  11.288 -0.0195  0.0147  0.1712
  269loPI   PO4 4292   2.060  16.657  10.812  0.0691  0.2165  0.2233
  269loPI   GL1 4293   2.256  16.463  10.542  0.1304 -0.2533 -0.0490
  269loPI   GL2 4294   2.500  16.442  10.451  0.0302 -0.2484 -0.0696
  269loPI   C1A 4295   2.077  16.414  10.039  0.0357  0.0752 -0.1220
  269loPI   C2A 4296   2.013  16.409   9.534  0.3650  0.0629 -0.2463
  269loPI   C3A 4297   2.150  16.462   9.051  0.0367 -0.0034 -0.0751
  269loPI   C4A 4298   2.165  16.403   8.612  0.0500 -0.1183 -0.0958
  269loPI   C5A 4299   2.146  16.588   8.231  0.0282 -0.0387 -0.0802
  269loPI   C6A 4300   2.348  16.813   7.983 -0.1030 -0.1840  0.3811
  269loPI   C1B 4301   2.579  16.498   9.872  0.1811 -0.2695 -0.1764
  269loPI   C2B 4302   2.513  16.516   9.483 -0.2133  0.0744 -0.2001
  269loPI   C3B 4303   2.649  16.503   9.028 -0.2672 -0.0263 -0.0296
  269loPI   C4B 4304   2.595  16.573   8.527 -0.2506 -0.0640  0.1126
  270loPI    C1 4305   5.898  12.181  11.430  0.2062  0.0734  0.1719
  270loPI    C2 4306   5.681  12.239  11.761  0.0199 -0.1042  0.0833
  270loPI    C3 4307   6.051  12.088  11.788  0.0758  0.0538  0.2229
  270loPI   PO4 4308   5.690  12.155  11.163  0.0471  0.2536 -0.2236
  270loPI   GL1 4309   5.663  12.195  10.716 -0.1107  0.3150 -0.4338
  270loPI   GL2 4310   5.363  12.020  10.600 -0.4345 -0.0974  0.2461
  270loPI   C1A 4311   5.710  12.218  10.241  0.0640 -0.1563 -0.1338
  270loPI   C2A 4312   5.636  12.275   9.762 -0.1312 -0.0682  0.2393
  270loPI   C3A 4313   5.582  12.171   9.450 -0.1224  0.1315 -0.0103
  270loPI   C4A 4314   5.600  12.186   9.071  0.1572 -0.3362 -0.0947
  270loPI   C5A 4315   5.559  12.246   8.603 -0.2588 -0.3120 -0.2168
  270loPI   C6A 4316   5.486  12.090   8.119 -0.0600  0.2267 -0.0032
  270loPI   C1B 4317   5.195  12.108  10.166  0.0317 -0.1853  0.3013
  270loPI   C2B 4318   5.140  12.075   9.739  0.0038 -0.2571 -0.1213
  270loPI   C3B 4319   5.113  12.126   9.247 -0.1353 -0.0180  0.1300
  270loPI   C4B 4320   5.096  12.184   8.765 -0.1960 -0.1948  0.3396
  271loPI    C1 4321   7.508  16.850  11.183  0.0217  0.2042 -0.0202
  271loPI    C2 4322   7.801  17.106  11.277  0.1629  0.0718 -0.0949
  271loPI    C3 4323   7.790  16.743  11.446 -0.0723  0.1478  0.0584
  271loPI   PO4 4324   7.472  16.843  10.932 -0.1289  0.0290 -0.0309
  271loPI   GL1 4325   7.555  16.633  10.556  0.1345  0.2101  0.1623
  271loPI   GL2 4326   7.682  16.884  10.473  0.3869 -0.2132  0.0629
  271loPI   C1A 4327   7.472  16.515  10.151 -0.2853 -0.0108 -0.0786
  271loPI   C2A 4328   7.558  16.521   9.762  0.0393 -0.1610 -0.1520
  271loPI   C3A 4329   7.519  16.484   9.334  0.1073 -0.2996 -0.1248
  271loPI   C4A 4330   7.442  16.382   8.939 -0.0239 -0.1521  0.2875
  271loPI   C5A 4331   7.664  16.442   8.505 -0.0206  0.2147 -0.0878
  271loPI   C6A 4332   7.399  16.390   8.092 -0.2071 -0.1830  0.1225
  271loPI   C1B 4333   7.681  16.965  10.024 -0.1050  0.0805 -0.1496
  271loPI   C2B 4334   7.688  17.027   9.569 -0.0449  0.1945 -0.1272
  271loPI   C3B 4335   7.654  16.973   9.219 -0.0585 -0.1611  0.0448
  271loPI   C4B 4336   7.689  16.817   8.900  0.0724 -0.1525  0.3475
  272loPI    C1 4337   5.299   6.529  10.815  0.1141  0.1282 -0.0464
  272loPI    C2 4338   5.196   6.898  10.930 -0.1431  0.1025 -0.1856
  272loPI    C3 4339   5.225   6.605  11.201 -0.3671  0.1279 -0.1316
  272loPI   PO4 4340   5.469   6.609  10.509  0.2657 -0.0214  0.1348
  272loPI   GL1 4341   5.543   6.924  10.168 -0.1638  0.1414  0.2981
  272loPI   GL2 4342   5.276   6.701  10.050 -0.0613 -0.1676 -0.3513
  272loPI   C1A 4343   5.685   6.732   9.781  0.0137 -0.1774  0.0093
  272loPI   C2A 4344   5.760   6.775   9.362  0.3445  0.1203 -0.0166
  272loPI   C3A 4345   5.650   6.877   8.941 -0.1376 -0.0108  0.0641
  272loPI   C4A 4346   5.547   6.713   8.587 -0.0458  0.1669  0.2212
  272loPI   C5A 4347   5.342   6.911   8.254 -0.1078  0.0274  0.0307
  272loPI   C6A 4348   4.907   6.971   8.058  0.1205  0.1440  0.0010
  272loPI   C1B 4349   5.138   6.624   9.753  0.1016  0.1132 -0.0472
  272loPI   C2B 4350   5.160   6.644   9.301  0.2474  0.0290 -0.1036
  272loPI   C3B 4351   5.138   6.592   8.909  0.0552  0.3236  0.2337
  272loPI   C4B 4352   5.043   6.613   8.424  0.1317  0.2144 -0.4072
  273loPI    C1 4353   5.311   0.595  11.136 -0.0509  0.0152 -0.0862
  273loPI    C2 4354   5.068   0.561  11.452 -0.1178  0.2065 -0.1160
  273loPI    C3 4355   5.449   0.671  11.504 -0.0612 -0.0028 -0.0787
  273loPI   PO4 4356   5.222   0.703  10.901  0.3670  0.1190  0.1040
  273loPI   GL1 4357   4.992   0.732  10.511  0.2923  0.3005  0.1447
  273loPI   GL2 4358   4.964   1.100  10.581 -0.2230  0.0746  0.1457
  273loPI   C1A 4359   4.850   0.842  10.131 -0.0348 -0.2560 -0.1159
  273loPI   C2A 4360   4.854   0.834   9.725 -0.3439  0.0791  0.1074
  273loPI   C3A 4361   4.877   0.756   9.334  0.0658 -0.1215 -0.0467
  273loPI   C4A 4362   4.954   0.728   8.933 -0.1048  0.2504  0.0731
  273loPI   C5A 4363   5.073   0.742   8.517  0.1293  0.0677  0.3698
  273loPI   C6A 4364   5.011   0.609   8.191  0.2590 -0.1187 -0.2304
  273loPI   C1B 4365   5.123   1.269  10.096 -0.1699 -0.1998  0.0511
  273loPI   C2B 4366   5.088   1.335   9.645  0.0243  0.0101  0.0879
  273loPI   C3B 4367   5.111   1.168   9.294  0.2581  0.2069 -0.0320
  273loPI   C4B 4368   5.210   1.236   8.819 -0.2238 -0.2672  0.2892
  274loPI    C1 4369  11.120   3.401  11.200  0.2755  0.3237  0.1061
  274loPI    C2 4370  10.832   3.532  11.445  0.0329 -0.0730  0.0418
  274loPI    C3 4371  11.183   3.414  11.595  0.1390  0.3342  0.1281
  274loPI   PO4 4372  11.170   3.649  11.033  0.0431 -0.0108  0.1297
  274loPI   GL1 4373  11.365   3.779  10.616  0.0956 -0.1941 -0.0203
  274loPI   GL2 4374  11.067   3.911  10.618  0.0640 -0.3369 -0.2125
  274loPI   C1A 4375  11.227   3.739  10.224  0.0807  0.1217  0.4108
  274loPI   C2A 4376  11.229   3.659   9.807 -0.1093  0.1537 -0.1566
  274loPI   C3A 4377  11.208   3.736   9.343 -0.1209  0.0835  0.2146
  274loPI   C4A 4378  11.105   3.561   8.954 -0.0816 -0.0763  0.2145
  274loPI   C5A 4379  11.123   3.419   8.483  0.1429 -0.0772  0.0232
  274loPI   C6A 4380  10.901   3.273   8.152  0.0215  0.0707 -0.0088
  274loPI   C1B 4381  10.891   4.115  10.131 -0.1972  0.0425  0.0221
  274loPI   C2B 4382  10.861   4.179   9.738  0.4631 -0.2772  0.0384
  274loPI   C3B 4383  10.842   4.173   9.271 -0.0362 -0.2032 -0.0145
  274loPI   C4B 4384  10.837   4.114   8.830  0.2285 -0.0242  0.0347
  275loPI    C1 4385  11.652   3.547  11.188 -0.2909  0.2661 -0.0131
  275loPI    C2 4386  11.759   3.411  11.549 -0.0811 -0.1284 -0.2172
  275loPI    C3 4387  11.678   3.800  11.497 -0.0503 -0.0560  0.2370
  275loPI   PO4 4388  11.820   3.490  11.052  0.0787  0.0859 -0.2265
  275loPI   GL1 4389  11.848   3.579  10.607 -0.0938  0.0809  0.1249
  275loPI   GL2 4390  11.897   3.331  10.599  0.0210 -0.1096  0.0001
  275loPI   C1A 4391  11.751   3.697  10.093  0.2143 -0.0749  0.2753
  275loPI   C2A 4392  11.810   3.769   9.632  0.0888 -0.1100  0.2414
  275loPI   C3A 4393  11.711   3.696   9.179 -0.0606 -0.0037  0.2129
  275loPI   C4A 4394  11.580   3.665   8.760 -0.1090  0.2429  0.1818
  275loPI   C5A 4395  11.640   3.600   8.415 -0.1338  0.0839  0.1820
  275loPI   C6A 4396  11.503   3.214   8.236  0.0370 -0.0588  0.1020
  275loPI   C1B 4397  12.048   3.325  10.159  0.2279 -0.1218  0.2319
  275loPI   C2B 4398  12.226   3.263   9.668  0.3269  0.4357  0.1341
  275loPI   C3B 4399  12.158   3.329   9.199  0.0326  0.1142  0.0031
  275loPI   C4B 4400  12.008   3.395   8.771  0.5080  0.4098  0.0302
  276loPI    C1 4401   4.247   6.314  10.947 -0.0565  0.1082  0.0052
  276loPI    C2 4402   4.416   6.218  11.297 -0.0812 -0.1526 -0.0524
  276loPI    C3 4403   4.019   6.188  11.250 -0.0575 -0.3110 -0.1618
  276loPI   PO4 4404   4.433   6.299  10.745  0.1282 -0.3124  0.1427
  276loPI   GL1 4405   4.534   6.400  10.338  0.4190 -0.2561 -0.2134
  276loPI   GL2 4406   4.358   6.062  10.314  0.0461  0.0584 -0.1725
  276loPI   C1A 4407   4.719   6.534  10.054  0.1939  0.0740  0.1689
  276loPI   C2A 4408   4.637   6.532   9.567 -0.2838  0.1848 -0.1577
  276loPI   C3A 4409   4.578   6.535   9.154  0.3738 -0.4588 -0.1717
  276loPI   C4A 4410   4.595   6.654   8.771  0.0682  0.1012 -0.1323
  276loPI   C5A 4411   4.595   6.521   8.339 -0.1090  0.0889 -0.0975
  276loPI   C6A 4412   4.818   6.308   8.023  0.2207  0.0768  0.0488
  276loPI   C1B 4413   4.500   6.140   9.858 -0.2454  0.0811 -0.0684
  276loPI   C2B 4414   4.448   6.129   9.402 -0.2243 -0.1292  0.0708
  276loPI   C3B 4415   4.256   6.201   8.977  0.0300  0.2566 -0.4556
  276loPI   C4B 4416   4.243   6.226   8.471  0.1305  0.0310  0.3186
  277loPI    C1 4417   7.556   1.960  11.308  0.0447 -0.1346 -0.2018
  277loPI    C2 4418   7.351   1.631  11.407 -0.0125 -0.0911 -0.1754
  277loPI    C3 4419   7.457   1.894  11.690  0.2565 -0.2139 -0.1593
  277loPI   PO4 4420   7.387   2.039  11.111  0.0707  0.2728  0.0387
  277loPI   GL1 4421   7.543   2.052  10.750  0.1526  0.0652  0.1529
  277loPI   GL2 4422   7.495   2.436  10.715  0.0289 -0.0923 -0.1038
  277loPI   C1A 4423   7.492   2.000  10.343 -0.1814  0.0510  0.0715
  277loPI   C2A 4424   7.558   1.998   9.886  0.1567 -0.0708 -0.1185
  277loPI   C3A 4425   7.447   1.944   9.466  0.3677  0.2231  0.2168
  277loPI   C4A 4426   7.453   1.963   8.973  0.1545  0.1275 -0.0021
  277loPI   C5A 4427   7.458   1.938   8.420  0.1986  0.1875  0.0641
  277loPI   C6A 4428   7.769   2.063   8.071 -0.0450  0.2687 -0.1534
  277loPI   C1B 4429   7.704   2.422  10.222  0.0194 -0.0260 -0.4328
  277loPI   C2B 4430   7.676   2.427   9.752 -0.1667 -0.1147  0.0756
  277loPI   C3B 4431   7.701   2.469   9.303 -0.0696  0.0282  0.1208
  277loPI   C4B 4432   7.734   2.484   8.732  0.0019  0.2686  0.0824
  278loPI    C1 4433   4.864   5.254  11.055  0.0790 -0.1908  0.2025
  278loPI    C2 4434   5.155   4.986  11.113  0.1645 -0.1259  0.0791
  278loPI    C3 4435   5.162   5.334  11.310  0.2279 -0.0805 -0.0027
  278loPI   PO4 4436   4.869   5.332  10.808 -0.2954 -0.4121 -0.0351
  278loPI   GL1 4437   4.862   5.249  10.384 -0.2460  0.1493 -0.0192
  278loPI   GL2 4438   5.127   5.353  10.316 -0.1263  0.1504 -0.1999
  278loPI   C1A 4439   4.600   5.169  10.063  0.1741 -0.0328  0.0042
  278loPI   C2A 4440   4.516   5.114   9.629  0.0287 -0.0248  0.1339
  278loPI   C3A 4441   4.478   5.168   9.191  0.1071 -0.1710  0.4230
  278loPI   C4A 4442   4.493   5.200   8.777 -0.2315 -0.0652 -0.0738
  278loPI   C5A 4443   4.510   5.384   8.463 -0.0851 -0.1691 -0.0188
  278loPI   C6A 4444   4.513   5.850   8.366 -0.0447 -0.1036 -0.0470
  278loPI   C1B 4445   5.135   5.257   9.919 -0.1151  0.1097 -0.2344
  278loPI   C2B 4446   5.090   5.208   9.549 -0.2573  0.1357  0.1170
  278loPI   C3B 4447   5.027   5.341   9.084  0.0888 -0.0260 -0.1874
  278loPI   C4B 4448   4.977   5.395   8.563 -0.0349 -0.0364  0.0334
  279loPI    C1 4449  16.660   1.696  11.151 -0.0415  0.1210  0.0850
  279loPI    C2 4450  16.613   1.299  11.165  0.1884  0.0834 -0.1406
  279loPI    C3 4451  16.795   1.490  11.466  0.0707  0.0193 -0.0283
  279loPI   PO4 4452  16.743   1.799  11.013  0.3165  0.1400  0.0858
  279loPI   GL1 4453  16.568   1.907  10.512 -0.0249  0.1484  0.2461
  279loPI   GL2 4454  16.868   1.852  10.439  0.1018  0.0472 -0.0408
  279loPI   C1A 4455  16.334   1.873  10.202  0.0181  0.3097  0.0326
  279loPI   C2A 4456  16.302   1.967   9.774 -0.0961  0.2464 -0.0278
  279loPI   C3A 4457  16.282   1.938   9.357 -0.2015  0.1265 -0.0935
  279loPI   C4A 4458  16.190   2.069   8.853  0.1272 -0.1131  0.0661
  279loPI   C5A 4459  16.209   1.742   8.578  0.1019  0.0409 -0.0208
  279loPI   C6A 4460  15.970   1.693   8.301 -0.0431 -0.2782 -0.1322
  279loPI   C1B 4461  16.784   1.962   9.987  0.1180  0.3556  0.1278
  279loPI   C2B 4462  16.813   2.003   9.503 -0.3387  0.0055 -0.2094
  279loPI   C3B 4463  16.911   2.015   9.034 -0.1775  0.0535 -0.0356
  279loPI   C4B 4464  16.673   2.067   8.621 -0.2729 -0.0509 -0.1491
  280loPI    C1 4465  15.059   0.407  11.224  0.0024 -0.1464  0.0902
  280loPI    C2 4466  14.874   0.643  11.488 -0.0284  0.0566 -0.1099
  280loPI    C3 4467  14.788   0.253  11.474 -0.2724  0.1063 -0.0461
  280loPI   PO4 4468  15.124   0.633  11.049  0.0228  0.1312 -0.1979
  280loPI   GL1 4469  15.131   0.566  10.660  0.1115  0.1115  0.2065
  280loPI   GL2 4470  15.374   0.747  10.577  0.2787 -0.0844 -0.0455
  280loPI   C1A 4471  15.201   0.390  10.218 -0.2818 -0.1747 -0.1298
  280loPI   C2A 4472  15.247   0.383   9.753  0.0008  0.0863  0.1759
  280loPI   C3A 4473  15.129   0.443   9.277 -0.0358  0.2155  0.3711
  280loPI   C4A 4474  15.190   0.529   8.877  0.3181 -0.0763 -0.3396
  280loPI   C5A 4475  15.263   0.723   8.500 -0.1702  0.1123  0.0969
  280loPI   C6A 4476  15.335   0.640   8.088 -0.1195 -0.1362  0.1217
  280loPI   C1B 4477  15.414   0.892  10.191  0.1344  0.0527 -0.0460
  280loPI   C2B 4478  15.347   0.908   9.703  0.1180  0.0395 -0.1469
  280loPI   C3B 4479  15.379   0.867   9.340 -0.0809  0.0947 -0.0885
  280loPI   C4B 4480  15.463   0.995   8.955  0.0331  0.2222 -0.0487
  281loPI    C1 4481   9.714  10.617  11.179 -0.1931 -0.1502  0.1170
  281loPI    C2 4482  10.073  10.602  11.356 -0.0740 -0.1247 -0.1187
  281loPI    C3 4483   9.840  10.276  11.347 -0.1512 -0.0827  0.2236
  281loPI   PO4 4484   9.738  10.766  11.037 -0.0997 -0.0670  0.2523
  281loPI   GL1 4485   9.486  10.978  10.688  0.1751 -0.0051  0.0642
  281loPI   GL2 4486   9.495  10.696  10.610  0.1672  0.1712 -0.2099
  281loPI   C1A 4487   9.654  11.141  10.397  0.2103  0.0775  0.0093
  281loPI   C2A 4488   9.633  11.341  10.000 -0.0702 -0.0444  0.2424
  281loPI   C3A 4489   9.609  11.281   9.571  0.0922 -0.1847 -0.1051
  281loPI   C4A 4490   9.592  11.151   9.171 -0.1485 -0.0336 -0.0600
  281loPI   C5A 4491   9.419  11.233   8.747 -0.0358  0.0263 -0.2030
  281loPI   C6A 4492   9.366  10.993   8.442 -0.1507 -0.0535 -0.0650
  281loPI   C1B 4493   9.356  10.750  10.245  0.1607  0.0421 -0.0052
  281loPI   C2B 4494   9.409  10.715   9.837  0.0888  0.0483 -0.0213
  281loPI   C3B 4495   9.440  10.717   9.434  0.0553  0.0028  0.2577
  281loPI   C4B 4496   9.292  10.808   8.933 -0.2862  0.0148  0.1979
  282loPI    C1 4497   0.525  11.381  11.335  0.1111 -0.1114 -0.0141
  282loPI    C2 4498   0.869  11.535  11.467  0.0272  0.1148 -0.0556
  282loPI    C3 4499   0.556  11.504  11.714  0.0496 -0.0070 -0.0424
  282loPI   PO4 4500   0.479  11.574  11.103 -0.0958  0.1598 -0.0930
  282loPI   GL1 4501   0.289  11.560  10.670 -0.0671  0.2203  0.0455
  282loPI   GL2 4502   0.548  11.739  10.634  0.1019  0.0284 -0.1063
  282loPI   C1A 4503  -0.035  11.725  10.330 -0.1638  0.1034  0.0857
  282loPI   C2A 4504  -0.127  11.746   9.946  0.0684 -0.0461  0.0923
  282loPI   C3A 4505  -0.164  11.716   9.558 -0.1623  0.2083 -0.0428
  282loPI   C4A 4506  -0.184  11.746   9.145 -0.1252 -0.1662 -0.0659
  282loPI   C5A 4507  -0.137  11.603   8.733 -0.3062 -0.1078  0.0980
  282loPI   C6A 4508  -0.107  11.241   8.445  0.1755 -0.4576 -0.1106
  282loPI   C1B 4509   0.475  11.769  10.244  0.1808 -0.1824 -0.3420
  282loPI   C2B 4510   0.400  11.707   9.742 -0.1056 -0.0376 -0.2088
  282loPI   C3B 4511   0.308  11.767   9.338 -0.0836  0.5121  0.1381
  282loPI   C4B 4512   0.317  11.796   8.993 -0.2570 -0.4489 -0.2371
  283loPI    C1 4513   2.583  16.755  11.233  0.1465 -0.2302  0.1728
  283loPI    C2 4514   2.891  17.008  11.259  0.0060 -0.0391  0.0061
  283loPI    C3 4515   2.880  16.684  11.492  0.3134 -0.0288  0.0403
  283loPI   PO4 4516   2.563  16.656  10.970 -0.0547  0.2874  0.1024
  283loPI   GL1 4517   2.425  16.923  10.613 -0.0078 -0.1212  0.0659
  283loPI   GL2 4518   2.765  16.853  10.503  0.1479 -0.2489  0.3482
  283loPI   C1A 4519   2.351  16.972  10.173 -0.0453 -0.0731 -0.1064
  283loPI   C2A 4520   2.262  16.885   9.798 -0.4161 -0.1078  0.4361
  283loPI   C3A 4521   2.233  16.902   9.374  0.4078  0.0946  0.1341
  283loPI   C4A 4522   2.305  16.952   8.965  0.0346  0.0485  0.0124
  283loPI   C5A 4523   2.394  16.997   8.479 -0.1113  0.2340 -0.0144
  283loPI   C6A 4524   2.041  17.159   8.102 -0.0912  0.1198 -0.1558
  283loPI   C1B 4525   2.862  16.966  10.099 -0.3399 -0.1563 -0.1212
  283loPI   C2B 4526   2.805  16.958   9.640  0.2403 -0.1946  0.0566
  283loPI   C3B 4527   2.752  16.964   9.230  0.0569 -0.3843  0.2868
  283loPI   C4B 4528   2.850  16.906   8.766 -0.1368 -0.1257  0.0299
  284loPI    C1 4529  11.989   6.222  11.097  0.1092 -0.2035 -0.0325
  284loPI    C2 4530  11.906   6.242  11.488  0.0421  0.0331 -0.0575
  284loPI    C3 4531  12.007   5.892  11.323  0.0253 -0.0769  0.1619
  284loPI   PO4 4532  11.858   6.290  10.925 -0.1413  0.2964  0.1926
  284loPI   GL1 4533  11.674   6.111  10.582  0.0349 -0.2442  0.2101
  284loPI   GL2 4534  11.388   5.910  10.620 -0.0535 -0.4195  0.0176
  284loPI   C1A 4535  11.718   6.037  10.132  0.0267  0.1175  0.0580
  284loPI   C2A 4536  11.626   6.046   9.667  0.2276 -0.3232  0.0465
  284loPI   C3A 4537  11.697   6.067   9.272  0.0937  0.0962 -0.0022
  284loPI   C4A 4538  11.700   6.071   8.813  0.3972  0.5152 -0.2908
  284loPI   C5A 4539  11.877   6.127   8.510 -0.2866  0.1347  0.1180
  284loPI   C6A 4540  12.246   6.228   8.330  0.5212 -0.0922 -0.2399
  284loPI   C1B 4541  11.253   5.925  10.175 -0.1174 -0.1327 -0.0028
  284loPI   C2B 4542  11.158   6.028   9.766 -0.0836 -0.1091  0.1847
  284loPI   C3B 4543  11.211   6.019   9.389 -0.1133  0.0137 -0.1968
  284loPI   C4B 4544  11.178   6.058   9.007  0.3012  0.2818  0.1649
  285loPI    C1 4545  15.665  17.444  11.332  0.1297 -0.0611 -0.0617
  285loPI    C2 4546  15.315  17.408  11.523  0.0647 -0.4517 -0.2429
  285loPI    C3 4547  15.622  17.594  11.701 -0.1342 -0.3950  0.0488
  285loPI   PO4 4548  15.645  17.393  11.160 -0.0803 -0.0639  0.1404
  285loPI   GL1 4549  15.522  17.444  10.818 -0.1096 -0.0214 -0.0795
  285loPI   GL2 4550  15.265  17.378  10.688 -0.0928 -0.0567 -0.0421
  285loPI   C1A 4551  15.812  17.309  10.441  0.0437  0.0427 -0.1320
  285loPI   C2A 4552  15.747  17.300   9.989 -0.1657  0.0910  0.0553
  285loPI   C3A 4553  15.791  17.244   9.608 -0.0940  0.0591 -0.0545
  285loPI   C4A 4554  15.687  17.307   9.154  0.2249  0.1418  0.1147
  285loPI   C5A 4555  15.644  17.392   8.837  0.0486  0.1277 -0.2527
  285loPI   C6A 4556  15.332  17.460   8.485  0.0145 -0.0647  0.0016
  285loPI   C1B 4557  15.291  17.303  10.223 -0.1384 -0.0019  0.0052
  285loPI   C2B 4558  15.311  17.230   9.729  0.2590 -0.0955  0.1081
  285loPI   C3B 4559  15.176  17.263   9.335  0.1959  0.0237 -0.2943
  285loPI   C4B 4560  15.223  17.255   9.013 -0.2002  0.0372  0.2126
  286loPI    C1 4561  16.352  15.711  11.172 -0.0440 -0.1518  0.0624
  286loPI    C2 4562  16.712  15.879  11.126 -0.0601 -0.1731 -0.1536
  286loPI    C3 4563  16.520  15.910  11.476  0.2188 -0.2953  0.0140
  286loPI   PO4 4564  16.247  15.778  10.906 -0.0628  0.0813 -0.1000
  286loPI   GL1 4565  16.340  15.658  10.596  0.1825  0.0076  0.2151
  286loPI   GL2 4566  16.092  15.795  10.403  0.2519 -0.0928  0.0685
  286loPI   C1A 4567  16.463  15.643  10.146 -0.4958  0.0597 -0.3489
  286loPI   C2A 4568  16.492  15.611   9.707 -0.0584  0.0731  0.0940
  286loPI   C3A 4569  16.390  15.588   9.316 -0.1042  0.0291 -0.2673
  286loPI   C4A 4570  16.490  15.679   8.887  0.0398  0.1640  0.0470
  286loPI   C5A 4571  16.723  15.933   8.571 -0.0512  0.1833 -0.2160
  286loPI   C6A 4572  16.979  16.122   8.290  0.0445 -0.1363 -0.0029
  286loPI   C1B 4573  16.209  16.036   9.997 -0.1721 -0.0155 -0.1269
  286loPI   C2B 4574  16.141  16.014   9.517 -0.0095  0.1218  0.0645
  286loPI   C3B 4575  16.124  16.143   9.117 -0.0743  0.3258 -0.0918
  286loPI   C4B 4576  15.980  16.167   8.740  0.1325  0.0061  0.0272
  287loPI    C1 4577   1.155   2.184  11.170  0.1661  0.0922  0.0493
  287loPI    C2 4578   1.143   1.828  11.353 -0.1300  0.0024 -0.1396
  287loPI    C3 4579   1.015   2.155  11.544  0.0001 -0.0155 -0.0202
  287loPI   PO4 4580   1.061   2.031  10.916 -0.1180 -0.0417 -0.1333
  287loPI   GL1 4581   1.092   1.889  10.552 -0.2657  0.1181  0.3377
  287loPI   GL2 4582   0.920   1.661  10.443  0.2714  0.2587 -0.0445
  287loPI   C1A 4583   1.330   1.778  10.149 -0.1173 -0.1541 -0.1946
  287loPI   C2A 4584   1.486   1.748   9.788 -0.2245  0.2152  0.1227
  287loPI   C3A 4585   1.531   1.761   9.351 -0.0470  0.0203  0.2257
  287loPI   C4A 4586   1.529   1.750   8.840 -0.2537 -0.0068  0.0777
  287loPI   C5A 4587   1.364   2.027   8.491 -0.1191  0.1403 -0.0943
  287loPI   C6A 4588   1.129   2.399   8.484 -0.1932 -0.1000  0.0334
  287loPI   C1B 4589   0.865   1.731  10.014  0.0673 -0.1525 -0.0505
  287loPI   C2B 4590   0.941   1.647   9.657 -0.1027  0.1327 -0.2277
  287loPI   C3B 4591   1.011   1.730   9.310 -0.0451  0.4180 -0.1497
  287loPI   C4B 4592   1.064   1.671   8.851 -0.3690  0.0958 -0.2355
  288loPI    C1 4593   4.103  13.107  11.385 -0.0073 -0.2876 -0.0046
  288loPI    C2 4594   3.757  12.908  11.379 -0.1528 -0.0478  0.2004
  288loPI    C3 4595   3.976  12.917  11.713 -0.1282  0.1014  0.1809
  288loPI   PO4 4596   4.187  13.201  11.157  0.2328  0.0029  0.1461
  288loPI   GL1 4597   4.055  13.125  10.715 -0.1008  0.0676 -0.2647
  288loPI   GL2 4598   4.285  13.318  10.612  0.1366  0.0201  0.1841
  288loPI   C1A 4599   4.005  12.861  10.302 -0.2369 -0.0070  0.1222
  288loPI   C2A 4600   3.998  12.899   9.890  0.0737  0.1307  0.0325
  288loPI   C3A 4601   3.973  12.992   9.545  0.0538  0.0606  0.0004
  288loPI   C4A 4602   3.896  12.958   9.042  0.0130 -0.0595 -0.1684
  288loPI   C5A 4603   3.923  12.924   8.764 -0.0804  0.1608 -0.0831
  288loPI   C6A 4604   4.244  12.912   8.490 -0.0709 -0.1215 -0.3803
  288loPI   C1B 4605   4.121  13.401  10.219 -0.0418  0.2253  0.5179
  288loPI   C2B 4606   4.187  13.379   9.765 -0.0402  0.2293 -0.0049
  288loPI   C3B 4607   4.258  13.382   9.279 -0.1474 -0.1782 -0.3176
  288loPI   C4B 4608   4.102  13.418   8.981 -0.4862  0.3759 -0.2887
  289loPI    C1 4609   9.591   9.258  11.294  0.1288  0.0847 -0.1582
  289loPI    C2 4610   9.808   9.136  11.607  0.1425  0.0992 -0.1622
  289loPI    C3 4611   9.656   9.505  11.602  0.1028  0.0830 -0.1514
  289loPI   PO4 4612   9.761   9.180  11.028  0.1999  0.2485 -0.2077
  289loPI   GL1 4613   9.856   9.125  10.608  0.1505 -0.2091  0.2112
  289loPI   GL2 4614   9.847   9.377  10.393  0.2366  0.0638  0.0125
  289loPI   C1A 4615   9.659   8.966  10.208 -0.3385  0.0446  0.1235
  289loPI   C2A 4616   9.633   8.966   9.784 -0.2510  0.2318  0.3172
  289loPI   C3A 4617   9.594   8.993   9.319 -0.2233 -0.1207 -0.0988
  289loPI   C4A 4618   9.380   9.037   8.901  0.0578  0.0106  0.2989
  289loPI   C5A 4619   9.178   9.402   8.788  0.1612  0.1089 -0.1058
  289loPI   C6A 4620   8.792   9.801   8.722  0.1842  0.3841 -0.1624
  289loPI   C1B 4621   9.790   9.411   9.982 -0.1779 -0.0463  0.2396
  289loPI   C2B 4622   9.819   9.417   9.573  0.3955  0.2911 -0.0291
  289loPI   C3B 4623   9.729   9.443   9.077 -0.2141 -0.1961 -0.3063
  289loPI   C4B 4624   9.659   9.466   8.754  0.2912  0.0081  0.0490
  290loPI    C1 4625  11.704  12.280  11.330  0.2153 -0.0461 -0.0763
  290loPI    C2 4626  11.838  12.615  11.503 -0.1248  0.0571 -0.0064
  290loPI    C3 4627  11.909  12.260  11.672  0.1596  0.0993 -0.0336
  290loPI   PO4 4628  11.457  12.347  11.247  0.2154 -0.2837 -0.0183
  290loPI   GL1 4629  11.340  12.355  10.822 -0.2245 -0.1963  0.0711
  290loPI   GL2 4630  11.267  12.640  10.693  0.1025  0.0653  0.0598
  290loPI   C1A 4631  11.579  12.296  10.388 -0.0953 -0.1574 -0.2486
  290loPI   C2A 4632  11.627  12.355   9.978  0.0914 -0.0182  0.1628
  290loPI   C3A 4633  11.627  12.408   9.570  0.0726  0.2785 -0.2325
  290loPI   C4A 4634  11.570  12.270   9.158 -0.2885  0.0898 -0.1828
  290loPI   C5A 4635  11.475  12.275   8.866 -0.1136 -0.0364  0.1853
  290loPI   C6A 4636  11.491  12.676   8.582 -0.1425 -0.1079 -0.2988
  290loPI   C1B 4637  11.248  12.762  10.232 -0.2217 -0.0407  0.0263
  290loPI   C2B 4638  11.243  12.774   9.727  0.1677  0.0541  0.1499
  290loPI   C3B 4639  11.291  12.776   9.440  0.0689 -0.0621 -0.2239
  290loPI   C4B 4640  11.231  12.684   9.007  0.0788 -0.4186 -0.3875
  291loPI    C1 4641   8.186   6.430  11.199  0.0032  0.2150  0.0220
  291loPI    C2 4642   7.802   6.360  11.114  0.0712 -0.2252  0.0533
  291loPI    C3 4643   7.960   6.222  11.454  0.3188 -0.2624 -0.0742
  291loPI   PO4 4644   8.264   6.372  10.886 -0.1186 -0.1661  0.0283
  291loPI   GL1 4645   7.955   6.281  10.642 -0.0761  0.1866  0.1609
  291loPI   GL2 4646   7.667   6.458  10.648 -0.0061 -0.1251  0.1370
  291loPI   C1A 4647   7.880   6.052  10.314 -0.3855  0.1851  0.2791
  291loPI   C2A 4648   7.849   6.013   9.869  0.0171 -0.2370 -0.2657
  291loPI   C3A 4649   7.906   6.077   9.418  0.0506 -0.0708  0.1161
  291loPI   C4A 4650   7.909   5.997   8.959  0.0749 -0.1058  0.1182
  291loPI   C5A 4651   7.943   6.147   8.511 -0.2075  0.2624  0.0765
  291loPI   C6A 4652   8.303   6.348   8.250  0.2311 -0.1537 -0.1419
  291loPI   C1B 4653   7.586   6.423  10.219  0.4865 -0.0591  0.1059
  291loPI   C2B 4654   7.649   6.489   9.789  0.1486 -0.1743 -0.1574
  291loPI   C3B 4655   7.593   6.464   9.352 -0.0323  0.2403  0.1184
  291loPI   C4B 4656   7.591   6.338   8.848  0.2118  0.0523 -0.1186
  292loPI    C1 4657  16.941  11.211  11.136 -0.0800  0.2530  0.0756
  292loPI    C2 4658  17.280  11.031  11.251  0.0506  0.1570 -0.4301
  292loPI    C3 4659  16.928  10.846  11.300  0.0592  0.2676  0.1206
  292loPI   PO4 4660  16.987  11.275  10.901  0.0886 -0.1006  0.1993
  292loPI   GL1 4661  17.196  11.118  10.571  0.1699 -0.4123  0.1877
  292loPI   GL2 4662  17.411  11.299  10.560 -0.0489  0.1912 -0.0164
  292loPI   C1A 4663  16.968  11.169  10.133  0.1560 -0.1810 -0.1358
  292loPI   C2A 4664  16.962  11.057   9.616 -0.1195 -0.3672  0.2258
  292loPI   C3A 4665  16.882  11.198   9.257 -0.2797  0.2046  0.2385
  292loPI   C4A 4666  16.865  11.202   8.791  0.1748  0.2203 -0.2483
  292loPI   C5A 4667  17.140  11.094   8.475  0.1341  0.4211  0.1273
  292loPI   C6A 4668  17.330  11.032   8.100 -0.1424  0.0688 -0.2048
  292loPI   C1B 4669  17.465  11.097  10.150  0.2459  0.0152  0.3105
  292loPI   C2B 4670  17.412  11.045   9.791 -0.1600  0.2790  0.2962
  292loPI   C3B 4671  17.441  11.255   9.458 -0.1455  0.0403 -0.2881
  292loPI   C4B 4672  17.458  11.218   9.035  0.1753  0.0188 -0.1946
  293loPI    C1 4673   4.727  16.133  11.172  0.1273 -0.0354  0.1437
  293loPI    C2 4674   4.974  15.946  11.425  0.0049  0.0171  0.3038
  293loPI    C3 4675   4.598  16.029  11.536 -0.0733 -0.0255  0.0772
  293loPI   PO4 4676   4.758  15.937  10.909 -0.6436  0.0669  0.0611
  293loPI   GL1 4677   4.731  15.629  10.644  0.0638 -0.1996  0.0642
  293loPI   GL2 4678   4.482  15.586  10.702  0.1051 -0.0767  0.0567
  293loPI   C1A 4679   4.750  15.727  10.198 -0.1376 -0.0632 -0.2441
  293loPI   C2A 4680   4.651  15.685   9.800 -0.1348 -0.2001 -0.0888
  293loPI   C3A 4681   4.734  15.722   9.289  0.0038  0.0898 -0.0252
  293loPI   C4A 4682   4.800  15.733   8.856  0.1013 -0.0277  0.1629
  293loPI   C5A 4683   4.907  15.473   8.484  0.4015 -0.2732 -0.0582
  293loPI   C6A 4684   4.870  15.164   8.145 -0.2372  0.0164 -0.0126
  293loPI   C1B 4685   4.306  15.629  10.272 -0.1367  0.0327 -0.0005
  293loPI   C2B 4686   4.173  15.667   9.854 -0.2089  0.1714 -0.0197
  293loPI   C3B 4687   4.247  15.649   9.431  0.2335  0.1185  0.0609
  293loPI   C4B 4688   4.264  15.618   8.981  0.0569 -0.2107  0.2996
  294loPI    C1 4689   4.564   7.961  10.610 -0.3647 -0.2294  0.1780
  294loPI    C2 4690   4.701   8.180  10.915 -0.2100  0.0471 -0.0841
  294loPI    C3 4691   4.758   7.784  10.911  0.2268  0.1037  0.0088
  294loPI   PO4 4692   4.349   8.141  10.528  0.0060 -0.0116  0.0626
  294loPI   GL1 4693   4.238   8.328  10.151  0.2431  0.2739  0.0168
  294loPI   GL2 4694   4.051   8.512  10.133  0.1934  0.3010 -0.0005
  294loPI   C1A 4695   4.503   8.512   9.790 -0.0391 -0.1208  0.0727
  294loPI   C2A 4696   4.485   8.508   9.425  0.0284 -0.1155 -0.1720
  294loPI   C3A 4697   4.403   8.358   9.015  0.0911 -0.2327 -0.0632
  294loPI   C4A 4698   4.453   8.400   8.658 -0.0485 -0.2957  0.0653
  294loPI   C5A 4699   4.460   8.399   8.149  0.0858  0.1427  0.1546
  294loPI   C6A 4700   4.461   8.611   7.789  0.2125  0.0844  0.3317
  294loPI   C1B 4701   4.023   8.482   9.627  0.1603 -0.1165  0.2809
  294loPI   C2B 4702   3.836   8.380   9.142 -0.3126  0.2074  0.2466
  294loPI   C3B 4703   3.987   8.284   8.711 -0.0477  0.1340 -0.1489
  294loPI   C4B 4704   4.095   8.099   8.248 -0.0006 -0.2984  0.0060
  295loPI    C1 4705   9.200  16.060  11.111 -0.1052  0.0411 -0.0541
  295loPI    C2 4706   9.157  16.232  11.469 -0.0354  0.1044 -0.0758
  295loPI    C3 4707   8.847  16.045  11.299 -0.0950  0.1561 -0.0249
  295loPI   PO4 4708   9.321  16.258  10.905 -0.1361  0.0600  0.0317
  295loPI   GL1 4709   9.440  16.338  10.505  0.0185 -0.0313 -0.1296
  295loPI   GL2 4710   9.471  16.043  10.451 -0.1562  0.3809  0.0760
  295loPI   C1A 4711   9.222  16.230  10.090 -0.1926 -0.0608  0.0213
  295loPI   C2A 4712   9.285  16.181   9.630  0.2959 -0.0382  0.0909
  295loPI   C3A 4713   9.321  16.205   9.274  0.0289  0.2259 -0.0202
  295loPI   C4A 4714   9.464  16.063   8.856 -0.0970  0.0369  0.2072
  295loPI   C5A 4715   9.502  15.968   8.475  0.0262  0.0449  0.1927
  295loPI   C6A 4716   9.671  15.661   8.160 -0.0429 -0.0657  0.0851
  295loPI   C1B 4717   9.540  15.858  10.020  0.0463  0.1331 -0.2149
  295loPI   C2B 4718   9.601  15.789   9.581  0.0235 -0.0272  0.0391
  295loPI   C3B 4719   9.727  15.752   9.111 -0.0314 -0.2596 -0.1847
  295loPI   C4B 4720   9.713  15.613   8.710 -0.1841  0.0376  0.0966
  296loPI    C1 4721  11.731  14.315  11.234 -0.1015  0.1224  0.1162
  296loPI    C2 4722  11.825  14.101  11.558  0.1527  0.0263 -0.0182
  296loPI    C3 4723  11.759  14.495  11.590  0.1181  0.0070  0.1588
  296loPI   PO4 4724  11.560  14.179  11.123 -0.1312 -0.1713 -0.0850
  296loPI   GL1 4725  11.467  14.289  10.762  0.0292  0.2250 -0.0909
  296loPI   GL2 4726  11.118  14.151  10.871 -0.1694 -0.0112  0.3488
  296loPI   C1A 4727  11.447  14.185  10.327 -0.2224  0.0117 -0.3559
  296loPI   C2A 4728  11.455  14.251   9.902  0.1511 -0.1438 -0.0207
  296loPI   C3A 4729  11.395  14.115   9.536  0.0228  0.2302 -0.0455
  296loPI   C4A 4730  11.479  14.074   9.078  0.2341  0.1622  0.1442
  296loPI   C5A 4731  11.196  14.078   8.692 -0.2591 -0.3263  0.1493
  296loPI   C6A 4732  11.059  14.216   8.276 -0.0982 -0.0190 -0.0228
  296loPI   C1B 4733  10.955  14.105  10.456 -0.1058 -0.0069 -0.1198
  296loPI   C2B 4734  10.939  14.185  10.035 -0.1288 -0.1720 -0.1197
  296loPI   C3B 4735  10.922  14.151   9.626 -0.4556  0.0623  0.1496
  296loPI   C4B 4736  10.927  14.009   9.122  0.2906 -0.3560  0.1017
  297loPI    C1 4737  11.135   9.395  10.979  0.0342 -0.1277  0.0207
  297loPI    C2 4738  11.465   9.456  11.196  0.1403 -0.0743 -0.1541
  297loPI    C3 4739  11.140   9.300  11.368  0.1422  0.1934  0.1012
  297loPI   PO4 4740  11.195   9.312  10.771 -0.1556 -0.0411  0.1619
  297loPI   GL1 4741  11.245   9.077  10.376 -0.1424 -0.0889 -0.0913
  297loPI   GL2 4742  11.572   8.808  10.430  0.0508  0.0916  0.1091
  297loPI   C1A 4743  11.112   9.063   9.930 -0.3742  0.0609 -0.1813
  297loPI   C2A 4744  11.139   9.094   9.533 -0.0432  0.0585  0.1716
  297loPI   C3A 4745  11.244   9.201   9.073 -0.0185  0.1499  0.0602
  297loPI   C4A 4746  11.116   9.257   8.619  0.0257  0.2119 -0.0646
  297loPI   C5A 4747  11.290   9.258   8.225 -0.0293 -0.3107  0.0344
  297loPI   C6A 4748  11.469   9.042   7.832  0.1692  0.2900 -0.4440
  297loPI   C1B 4749  11.384   8.689  10.052 -0.1470  0.2954  0.2115
  297loPI   C2B 4750  11.390   8.674   9.551  0.0488  0.1309  0.1258
  297loPI   C3B 4751  11.394   8.766   9.182 -0.1435  0.1132  0.0529
  297loPI   C4B 4752  11.422   8.880   8.741 -0.0063  0.0467 -0.0235
  298loPI    C1 4753  13.050  12.839  11.381 -0.1045 -0.0693 -0.0619
  298loPI    C2 4754  12.697  12.977  11.507  0.0759  0.1197  0.2496
  298loPI    C3 4755  13.031  13.184  11.583  0.2307  0.0704 -0.2586
  298loPI   PO4 4756  13.059  12.797  11.121  0.0562 -0.0312  0.3177
  298loPI   GL1 4757  12.976  12.636  10.774 -0.0219 -0.2752 -0.1692
  298loPI   GL2 4758  12.786  12.807  10.592 -0.1200 -0.0231  0.1074
  298loPI   C1A 4759  13.118  12.559  10.392 -0.1125  0.0508 -0.2599
  298loPI   C2A 4760  13.165  12.581  10.011  0.2358 -0.0005  0.2920
  298loPI   C3A 4761  13.115  12.505   9.583  0.0093  0.2017 -0.1376
  298loPI   C4A 4762  13.108  12.473   9.094 -0.0183  0.1969 -0.0107
  298loPI   C5A 4763  12.961  12.454   8.645  0.1996 -0.2413  0.2288
  298loPI   C6A 4764  12.974  12.916   8.364  0.0295 -0.2156 -0.1060
  298loPI   C1B 4765  12.880  12.968  10.191 -0.0590  0.1455  0.1286
  298loPI   C2B 4766  12.762  12.924   9.788 -0.3920  0.1470 -0.1042
  298loPI   C3B 4767  12.813  12.936   9.351 -0.0662 -0.1311 -0.0448
  298loPI   C4B 4768  12.763  12.881   8.821  0.0602 -0.1807  0.0080
  299loPI    C1 4769  16.017  12.574  10.962  0.0177 -0.2190  0.0063
  299loPI    C2 4770  16.308  12.552  11.236 -0.0165 -0.1878  0.0454
  299loPI    C3 4771  15.945  12.405  11.317 -0.0617 -0.0687  0.0628
  299loPI   PO4 4772  16.151  12.574  10.743 -0.1519  0.1737  0.0441
  299loPI   GL1 4773  16.195  12.654  10.380  0.3999  0.0063 -0.3499
  299loPI   GL2 4774  16.389  12.859  10.336  0.1708  0.0240  0.0752
  299loPI   C1A 4775  15.804  12.704  10.024 -0.0591 -0.1214  0.1037
  299loPI   C2A 4776  15.656  12.792   9.691  0.0359  0.0153  0.0350
  299loPI   C3A 4777  15.617  12.830   9.326  0.0607  0.6706 -0.0240
  299loPI   C4A 4778  15.653  12.787   8.905 -0.0244  0.1071  0.2586
  299loPI   C5A 4779  15.587  12.876   8.402  0.2896  0.1684  0.0007
  299loPI   C6A 4780  15.304  12.956   8.154 -0.1174 -0.0371 -0.1867
  299loPI   C1B 4781  16.287  12.855   9.953  0.3043 -0.2804 -0.1275
  299loPI   C2B 4782  16.207  12.831   9.430 -0.0950  0.1352 -0.0767
  299loPI   C3B 4783  16.183  12.832   8.911 -0.2550  0.1849 -0.3071
  299loPI   C4B 4784  16.241  12.863   8.425  0.0177  0.3679 -0.0601
  300loPI    C1 4785   0.143  12.629  10.943  0.0751  0.1136  0.0189
  300loPI    C2 4786  -0.147  12.655  11.218  0.0017 -0.0684 -0.0401
  300loPI    C3 4787  -0.153  12.360  10.948  0.2336 -0.0640 -0.0520
  300loPI   PO4 4788   0.136  12.889  10.755  0.0033  0.1169 -0.2466
  300loPI   GL1 4789   0.081  13.149  10.527  0.2224  0.0557  0.3414
  300loPI   GL2 4790  -0.230  13.270  10.395 -0.0029  0.4486  0.1539
  300loPI   C1A 4791   0.087  12.994  10.103  0.0071 -0.3086  0.0837
  300loPI   C2A 4792  -0.003  13.000   9.633  0.1032 -0.0784 -0.0615
  300loPI   C3A 4793  -0.028  13.031   9.219 -0.2712  0.0880  0.1669
  300loPI   C4A 4794  -0.059  13.127   8.768 -0.0757  0.0351  0.1534
  300loPI   C5A 4795   0.079  13.342   8.460  0.1147 -0.2806 -0.0956
  300loPI   C6A 4796   0.108  13.757   8.366 -0.2130  0.3295 -0.2209
  300loPI   C1B 4797  -0.264  13.485   9.894  0.0043 -0.1174 -0.1691
  300loPI   C2B 4798  -0.317  13.380   9.568  0.0445  0.0460 -0.0449
  300loPI   C3B 4799  -0.357  13.415   9.109  0.2504  0.0745  0.2882
  300loPI   C4B 4800  -0.388  13.572   8.655 -0.0575 -0.3124 -0.3871
  301loPI    C1 4801   0.941   3.454  11.251 -0.2168  0.0968 -0.2146
  301loPI    C2 4802   0.622   3.301  11.437 -0.0910 -0.1265 -0.1780
  301loPI    C3 4803   0.660   3.697  11.397 -0.1025 -0.0716  0.3059
  301loPI   PO4 4804   0.954   3.318  11.042 -0.0061  0.0092  0.0655
  301loPI   GL1 4805   0.739   3.325  10.731  0.1781  0.3422 -0.2753
  301loPI   GL2 4806   0.761   3.428  10.551 -0.1695 -0.1686  0.0957
  301loPI   C1A 4807   1.060   3.125  10.359  0.0106 -0.0215 -0.1065
  301loPI   C2A 4808   1.037   3.114   9.957  0.1340 -0.1095  0.0122
  301loPI   C3A 4809   1.051   3.061   9.626  0.0221 -0.0380 -0.0145
  301loPI   C4A 4810   1.049   3.167   9.183  0.3856  0.0909 -0.0625
  301loPI   C5A 4811   0.998   3.067   8.770  0.2181 -0.0805  0.1838
  301loPI   C6A 4812   0.800   2.832   8.430  0.1729  0.1441  0.1920
  301loPI   C1B 4813   0.751   3.494  10.140 -0.0072  0.0789 -0.1238
  301loPI   C2B 4814   0.703   3.575   9.682 -0.1392 -0.0282 -0.4390
  301loPI   C3B 4815   0.708   3.502   9.294 -0.2240 -0.2073  0.0474
  301loPI   C4B 4816   0.745   3.532   8.871 -0.0048 -0.1386  0.2271
  302loPI    C1 4817  10.091  11.642  11.344 -0.3118 -0.0438 -0.0204
  302loPI    C2 4818  10.136  11.420  11.674 -0.1605 -0.0685 -0.0568
  302loPI    C3 4819   9.783  11.590  11.593 -0.1146  0.1995  0.2831
  302loPI   PO4 4820  10.229  11.490  11.186  0.1117  0.1799  0.0072
  302loPI   GL1 4821  10.362  11.631  10.735 -0.0772  0.2924  0.0999
  302loPI   GL2 4822  10.219  11.372  10.596 -0.0158  0.0967  0.0839
  302loPI   C1A 4823  10.436  11.773  10.351 -0.0729 -0.2113 -0.2239
  302loPI   C2A 4824  10.389  11.770   9.947  0.2817 -0.3185 -0.1648
  302loPI   C3A 4825  10.374  11.658   9.470  0.0989  0.1821  0.3060
  302loPI   C4A 4826  10.221  11.625   9.064 -0.0911  0.2364 -0.2603
  302loPI   C5A 4827  10.200  11.594   8.528 -0.1145 -0.0120 -0.0603
  302loPI   C6A 4828  10.161  11.397   8.202  0.0850 -0.1287 -0.1824
  302loPI   C1B 4829  10.238  11.362  10.178 -0.2210 -0.2437 -0.1631
  302loPI   C2B 4830  10.124  11.289   9.745 -0.2879  0.2980  0.5573
  302loPI   C3B 4831  10.052  11.173   9.329 -0.3515  0.1558 -0.0119
  302loPI   C4B 4832   9.932  11.235   8.839 -0.1909  0.2204 -0.0950
  303loPI    C1 4833   2.108   3.271  11.225 -0.0261  0.0245 -0.0539
  303loPI    C2 4834   1.827   3.142  11.479 -0.0610  0.1253 -0.0404
  303loPI    C3 4835   2.146   2.914  11.400 -0.3103 -0.1378 -0.3136
  303loPI   PO4 4836   2.048   3.301  11.050  0.0450 -0.0333  0.2622
  303loPI   GL1 4837   2.152   3.272  10.658  0.0043 -0.0656  0.2451
  303loPI   GL2 4838   2.294   3.658  10.562 -0.0506 -0.0369  0.0125
  303loPI   C1A 4839   2.038   3.221  10.236 -0.0915  0.1778 -0.0650
  303loPI   C2A 4840   2.077   3.188   9.831 -0.2177 -0.0644 -0.0391
  303loPI   C3A 4841   2.061   3.256   9.403 -0.0420  0.0817  0.0584
  303loPI   C4A 4842   2.050   3.324   8.923 -0.3720  0.0326  0.1552
  303loPI   C5A 4843   2.208   3.338   8.545  0.0978 -0.0765  0.3214
  303loPI   C6A 4844   2.319   3.362   8.197 -0.3001  0.4336  0.1171
  303loPI   C1B 4845   2.297   3.681  10.157 -0.3058 -0.2424  0.0496
  303loPI   C2B 4846   2.255   3.692   9.697  0.0541 -0.2600  0.0205
  303loPI   C3B 4847   2.230   3.748   9.289 -0.0822 -0.2863  0.0384
  303loPI   C4B 4848   2.295   3.767   8.854 -0.0488  0.1135  0.4949
  304loPI    C1 4849   4.076   8.685  10.598 -0.1979 -0.2341  0.0142
  304loPI    C2 4850   3.938   8.679  10.974  0.0497  0.0153  0.1130
  304loPI    C3 4851   4.293   8.515  10.888 -0.1438 -0.3176 -0.0745
  304loPI   PO4 4852   3.982   8.931  10.543 -0.1601  0.1675  0.1479
  304loPI   GL1 4853   3.786   9.052  10.256  0.2919  0.1299  0.1580
  304loPI   GL2 4854   3.971   9.302  10.246  0.3664  0.1009 -0.0107
  304loPI   C1A 4855   3.700   8.803   9.830 -0.0232 -0.3325  0.0408
  304loPI   C2A 4856   3.593   8.791   9.415 -0.0578 -0.0512 -0.0095
  304loPI   C3A 4857   3.571   8.819   8.953 -0.1452 -0.2453 -0.3726
  304loPI   C4A 4858   3.586   8.691   8.573 -0.1282  0.0447 -0.0451
  304loPI   C5A 4859   3.505   8.614   8.178  0.3554 -0.0219 -0.1846
  304loPI   C6A 4860   3.557   8.320   7.844 -0.1956 -0.0087  0.1394
  304loPI   C1B 4861   3.803   9.384   9.877 -0.2582  0.1037  0.3728
  304loPI   C2B 4862   3.752   9.265   9.448 -0.0838 -0.4033  0.0748
  304loPI   C3B 4863   3.731   9.317   8.974  0.2776  0.1817  0.0750
  304loPI   C4B 4864   3.893   9.095   8.542  0.2427 -0.0509 -0.0297
  305loPI    C1 4865  13.164  13.798  11.164  0.0273  0.1679  0.0262
  305loPI    C2 4866  12.926  13.676  11.462  0.1781 -0.1773  0.0095
  305loPI    C3 4867  13.119  14.025  11.490 -0.1588  0.0039  0.1171
  305loPI   PO4 4868  13.022  13.694  10.965 -0.1302  0.1173 -0.1841
  305loPI   GL1 4869  12.807  13.754  10.574 -0.2335 -0.0645 -0.0464
  305loPI   GL2 4870  13.125  13.878  10.467 -0.1263 -0.2253  0.1912
  305loPI   C1A 4871  12.735  13.896  10.210  0.0337 -0.2436 -0.2811
  305loPI   C2A 4872  12.760  13.892   9.827  0.1412  0.3160  0.0315
  305loPI   C3A 4873  12.785  13.837   9.331  0.0247  0.1407 -0.4033
  305loPI   C4A 4874  12.742  13.797   8.873 -0.1741  0.0618  0.4219
  305loPI   C5A 4875  12.789  13.510   8.485  0.0851 -0.0550  0.4240
  305loPI   C6A 4876  12.397  13.437   8.273  0.2247 -0.2190 -0.0340
  305loPI   C1B 4877  13.285  13.859   9.966  0.1604 -0.0594  0.0751
  305loPI   C2B 4878  13.215  13.828   9.556  0.2618 -0.1601  0.2127
  305loPI   C3B 4879  13.238  13.858   9.075 -0.2530 -0.1514  0.3891
  305loPI   C4B 4880  13.258  13.767   8.609  0.0812  0.1240 -0.2020
  306loPI    C1 4881  12.879  15.833  11.122  0.1925 -0.0006 -0.0107
  306loPI    C2 4882  13.226  15.944  11.289  0.2342 -0.2303  0.0598
  306loPI    C3 4883  12.886  15.970  11.498  0.1588  0.2831 -0.1108
  306loPI   PO4 4884  12.900  15.723  10.962  0.2164  0.2400 -0.0594
  306loPI   GL1 4885  12.878  15.774  10.544  0.2186 -0.1402 -0.0468
  306loPI   GL2 4886  13.104  15.633  10.437  0.2366  0.0254 -0.0384
  306loPI   C1A 4887  12.647  15.660  10.175  0.2565  0.1082  0.0457
  306loPI   C2A 4888  12.630  15.663   9.762  0.0269  0.0117 -0.5316
  306loPI   C3A 4889  12.551  15.656   9.349 -0.1373 -0.0562 -0.0707
  306loPI   C4A 4890  12.481  15.603   8.836 -0.1286  0.0319 -0.1956
  306loPI   C5A 4891  12.599  15.650   8.434  0.1012 -0.1257 -0.0688
  306loPI   C6A 4892  12.592  15.804   8.116 -0.1682 -0.0366 -0.1511
  306loPI   C1B 4893  13.119  15.655   9.967 -0.1373 -0.2394  0.0121
  306loPI   C2B 4894  13.039  15.704   9.498  0.1383 -0.5082  0.1276
  306loPI   C3B 4895  13.050  15.710   9.029 -0.1298 -0.1743 -0.1510
  306loPI   C4B 4896  13.127  15.640   8.655 -0.1055 -0.3133  0.0151
  307loPI    C1 4897   6.558  13.056  11.472  0.0799  0.0240 -0.0660
  307loPI    C2 4898   6.173  13.047  11.580  0.0715 -0.1007 -0.1049
  307loPI    C3 4899   6.460  12.998  11.855  0.0590 -0.0460 -0.0820
  307loPI   PO4 4900   6.486  13.099  11.198  0.1428  0.2696  0.0938
  307loPI   GL1 4901   6.435  13.363  10.846  0.0195  0.2195 -0.2053
  307loPI   GL2 4902   6.086  13.274  10.725 -0.0127 -0.1489  0.1211
  307loPI   C1A 4903   6.493  13.279  10.426  0.1737  0.1799 -0.0899
  307loPI   C2A 4904   6.529  13.171   9.993  0.1063 -0.0158 -0.3589
  307loPI   C3A 4905   6.558  13.097   9.501 -0.2438 -0.0331 -0.1481
  307loPI   C4A 4906   6.567  13.109   9.060 -0.0377 -0.1718  0.2251
  307loPI   C5A 4907   6.502  13.122   8.669 -0.3929  0.1131  0.0189
  307loPI   C6A 4908   6.821  13.377   8.365  0.2172 -0.0920 -0.1828
  307loPI   C1B 4909   6.016  13.199  10.200 -0.0730 -0.1885 -0.0322
  307loPI   C2B 4910   6.011  13.154   9.850 -0.1220  0.0136  0.0620
  307loPI   C3B 4911   6.060  13.150   9.414  0.1628  0.2766 -0.0534
  307loPI   C4B 4912   6.045  13.120   9.009 -0.2285 -0.1935 -0.3009
  308loPI    C1 4913   1.052  12.253  11.082 -0.0869 -0.1219  0.2400
  308loPI    C2 4914   0.789  11.952  11.085 -0.0219 -0.1816  0.0830
  308loPI    C3 4915   0.955  12.076  11.427 -0.1238 -0.2577  0.1608
  308loPI   PO4 4916   0.964  12.452  10.956  0.0696 -0.2490 -0.3511
  308loPI   GL1 4917   0.883  12.801  10.665  0.1572  0.4639  0.0905
  308loPI   GL2 4918   0.559  12.683  10.545  0.1933  0.1803 -0.2403
  308loPI   C1A 4919   0.882  12.719  10.182 -0.0693  0.3369  0.0142
  308loPI   C2A 4920   0.918  12.639   9.732  0.0613 -0.0549 -0.3054
  308loPI   C3A 4921   0.737  12.635   9.463  0.4047  0.0903 -0.0350
  308loPI   C4A 4922   0.754  12.663   9.025  0.0537 -0.4397  0.3620
  308loPI   C5A 4923   0.847  12.904   8.759 -0.2368  0.0426 -0.1180
  308loPI   C6A 4924   1.041  13.190   8.506 -0.0879  0.1207 -0.2238
  308loPI   C1B 4925   0.320  12.560  10.175  0.0290 -0.0256 -0.2624
  308loPI   C2B 4926   0.314  12.619   9.721 -0.1939  0.0239  0.1125
  308loPI   C3B 4927   0.252  12.597   9.232 -0.2651  0.1364 -0.0613
  308loPI   C4B 4928   0.292  12.553   8.844  0.4934  0.0700 -0.0357
  309loPI    C1 4929  16.891   5.425  11.281  0.0415 -0.1095 -0.0516
  309loPI    C2 4930  16.650   5.356  11.592  0.0749  0.0737  0.0162
  309loPI    C3 4931  17.027   5.224  11.599  0.0765  0.0805  0.0547
  309loPI   PO4 4932  16.767   5.356  11.065  0.2908  0.0174 -0.1779
  309loPI   GL1 4933  16.896   5.292  10.591  0.0382 -0.0992 -0.2227
  309loPI   GL2 4934  16.785   5.514  10.428 -0.1238  0.0648 -0.0138
  309loPI   C1A 4935  16.766   5.086  10.163 -0.1081  0.1250 -0.0091
  309loPI   C2A 4936  16.729   5.212   9.737 -0.2741  0.0307 -0.0721
  309loPI   C3A 4937  16.685   5.171   9.310 -0.2833  0.0457  0.0475
  309loPI   C4A 4938  16.773   5.133   8.829  0.1287 -0.3255  0.2195
  309loPI   C5A 4939  16.637   5.020   8.325 -0.1067 -0.4220 -0.2957
  309loPI   C6A 4940  16.481   4.913   7.943 -0.0037 -0.2502  0.0712
  309loPI   C1B 4941  16.878   5.626  10.003  0.0915 -0.0142  0.2910
  309loPI   C2B 4942  16.868   5.657   9.549 -0.2118  0.0435  0.1530
  309loPI   C3B 4943  16.925   5.612   9.129 -0.1137 -0.1707 -0.4776
  309loPI   C4B 4944  17.007   5.685   8.752  0.0847 -0.3572  0.4990
  310loPI    C1 4945   6.284   6.967  10.593  0.0553  0.2134  0.1694
  310loPI    C2 4946   5.894   6.930  10.513  0.1856 -0.0325 -0.4049
  310loPI    C3 4947   6.068   7.290  10.499 -0.0711  0.1264  0.1576
  310loPI   PO4 4948   6.354   6.810  10.498  0.0656  0.0629 -0.0056
  310loPI   GL1 4949   6.478   6.818  10.086  0.0309  0.1321  0.2097
  310loPI   GL2 4950   6.783   6.802  10.033  0.1804  0.0449 -0.1181
  310loPI   C1A 4951   6.336   6.912   9.721 -0.1080 -0.1783 -0.1307
  310loPI   C2A 4952   6.337   6.839   9.314 -0.2774  0.1242  0.0714
  310loPI   C3A 4953   6.199   6.792   8.869  0.5523 -0.2011 -0.0859
  310loPI   C4A 4954   6.137   6.565   8.562 -0.2170  0.1890  0.2430
  310loPI   C5A 4955   6.139   6.171   8.257  0.1339 -0.1162 -0.1544
  310loPI   C6A 4956   6.165   5.797   8.021  0.1338 -0.0420  0.1020
  310loPI   C1B 4957   6.828   6.906   9.635 -0.2895  0.1387 -0.0850
  310loPI   C2B 4958   6.778   6.901   9.143  0.1189  0.0625  0.2366
  310loPI   C3B 4959   6.681   6.905   8.760 -0.0473  0.1716 -0.3657
  310loPI   C4B 4960   6.372   6.878   8.287 -0.0024  0.2158 -0.1510
  311loPI    C1 4961   2.486   4.621  11.198  0.1536 -0.2147 -0.0485
  311loPI    C2 4962   2.237   4.645  11.510  0.0578  0.2901 -0.1552
  311loPI    C3 4963   2.629   4.703  11.562  0.0820  0.0681 -0.0815
  311loPI   PO4 4964   2.373   4.792  10.995  0.0261  0.0630  0.0604
  311loPI   GL1 4965   2.236   4.678  10.701  0.0622  0.3256 -0.2304
  311loPI   GL2 4966   2.283   4.301  10.743 -0.0937 -0.1291 -0.1388
  311loPI   C1A 4967   2.142   4.482  10.320 -0.0418  0.0510 -0.2388
  311loPI   C2A 4968   2.203   4.614   9.918  0.0099  0.2464 -0.0243
  311loPI   C3A 4969   2.250   4.604   9.492  0.0094  0.1925  0.1867
  311loPI   C4A 4970   2.249   4.635   9.074  0.0619 -0.4346  0.1340
  311loPI   C5A 4971   1.969   4.431   8.713 -0.1228 -0.0322  0.0535
  311loPI   C6A 4972   1.494   4.600   8.367 -0.0675 -0.1175  0.0036
  311loPI   C1B 4973   2.511   4.129  10.429  0.1024  0.0405  0.1649
  311loPI   C2B 4974   2.498   4.133  10.030 -0.2193  0.1046 -0.0877
  311loPI   C3B 4975   2.489   4.111   9.533 -0.1778 -0.0853  0.1030
  311loPI   C4B 4976   2.465   4.182   9.113 -0.1373  0.2758 -0.0329
  312loPI    C1 4977  10.377  11.057  11.435  0.0641  0.1609  0.2770
  312loPI    C2 4978  10.517  10.725  11.609 -0.0535  0.0283  0.1217
  312loPI    C3 4979  10.235  10.943  11.791 -0.2099 -0.1355  0.0788
  312loPI   PO4 4980  10.275  11.004  11.164  0.0072  0.2185  0.3436
  312loPI   GL1 4981  10.251  10.912  10.795  0.2014  0.1281  0.1475
  312loPI   GL2 4982   9.981  10.846  10.566 -0.4852  0.0336 -0.0468
  312loPI   C1A 4983  10.419  10.878  10.380  0.0589  0.0237  0.0114
  312loPI   C2A 4984  10.452  10.907  10.015  0.1059 -0.1318 -0.0639
  312loPI   C3A 4985  10.421  10.889   9.592  0.3082 -0.0560 -0.2456
  312loPI   C4A 4986  10.352  10.812   9.099  0.1267  0.0080 -0.0006
  312loPI   C5A 4987  10.217  10.815   8.601 -0.2761 -0.4201 -0.2588
  312loPI   C6A 4988   9.859  10.860   8.420 -0.1030 -0.0041 -0.0743
  312loPI   C1B 4989   9.947  10.824  10.173 -0.0655 -0.1448  0.0073
  312loPI   C2B 4990   9.858  10.870   9.751 -0.0429 -0.0646  0.0188
  312loPI   C3B 4991   9.933  10.699   9.364 -0.0094 -0.0809 -0.0220
  312loPI   C4B 4992   9.805  10.764   8.912  0.1277 -0.2634 -0.1230
  313loPI    C1 4993  11.831  10.705  10.968  0.0670 -0.0481 -0.0245
  313loPI    C2 4994  11.486  10.902  10.923  0.0493 -0.0813 -0.0348
  313loPI    C3 4995  11.553  10.688  11.254  0.0714 -0.0522 -0.0203
  313loPI   PO4 4996  11.877  10.628  10.633 -0.2700  0.1488  0.0152
  313loPI   GL1 4997  11.813  10.621  10.197 -0.0764 -0.0047  0.0454
  313loPI   GL2 4998  11.989  10.294  10.192  0.1484  0.4961  0.0594
  313loPI   C1A 4999  11.756  10.617   9.819  0.0612 -0.1309 -0.2497
  313loPI   C2A 5000  11.794  10.565   9.395 -0.2086 -0.0131  0.0170
  313loPI   C3A 5001  11.714  10.538   8.974 -0.0631 -0.0256  0.0724
  313loPI   C4A 5002  11.696  10.591   8.540 -0.0298 -0.0494  0.0686
  313loPI   C5A 5003  11.444  10.647   8.150 -0.5017 -0.1747  0.3056
  313loPI   C6A 5004  11.120  10.920   8.207 -0.1577 -0.0770  0.1535
  313loPI   C1B 5005  12.043  10.148   9.818  0.0715  0.1337  0.1336
  313loPI   C2B 5006  12.033  10.136   9.371  0.0055 -0.1278 -0.1927
  313loPI   C3B 5007  12.056  10.136   8.949 -0.0619  0.2137  0.1063
  313loPI   C4B 5008  12.010  10.089   8.536  0.2183  0.0437 -0.1193
  314loPI    C1 5009   8.713  13.162  11.227  0.1165 -0.1918 -0.1500
  314loPI    C2 5010   8.955  12.991  11.496  0.2257 -0.2178 -0.2636
  314loPI    C3 5011   8.580  12.858  11.450  0.0457  0.0961  0.2116
  314loPI   PO4 5012   8.859  13.223  11.024 -0.0101  0.0598  0.1093
  314loPI   GL1 5013   8.782  13.486  10.745 -0.0480 -0.3264 -0.0220
  314loPI   GL2 5014   8.772  13.809  10.684  0.2160 -0.0209  0.0010
  314loPI   C1A 5015   8.741  13.362  10.279  0.1145  0.0689 -0.1037
  314loPI   C2A 5016   8.657  13.364   9.958  0.1293 -0.3134 -0.4094
  314loPI   C3A 5017   8.610  13.357   9.594 -0.0242 -0.1453 -0.0767
  314loPI   C4A 5018   8.576  13.342   9.123  0.1043 -0.0516 -0.0662
  314loPI   C5A 5019   8.616  13.481   8.661 -0.0932 -0.2315 -0.4176
  314loPI   C6A 5020   8.560  13.777   8.306 -0.3343 -0.0179  0.0464
  314loPI   C1B 5021   8.855  13.885  10.337  0.0977 -0.1279 -0.0288
  314loPI   C2B 5022   8.910  13.871   9.929  0.0193 -0.3505  0.2010
  314loPI   C3B 5023   8.901  13.845   9.460  0.3664 -0.0961  0.1400
  314loPI   C4B 5024   8.849  13.791   8.981  0.0416 -0.3211  0.2881
  315loPI    C1 5025   5.245  12.796  11.123 -0.0440 -0.1686  0.0830
  315loPI    C2 5026   5.603  12.630  11.057 -0.0323 -0.1847  0.1858
  315loPI    C3 5027   5.420  12.578  11.409  0.0414  0.1467  0.2765
  315loPI   PO4 5028   5.166  12.853  10.799  0.3306  0.1078 -0.0347
  315loPI   GL1 5029   5.235  13.109  10.517  0.2837 -0.1898  0.1566
  315loPI   GL2 5030   5.469  13.072  10.367  0.0007  0.2522 -0.1248
  315loPI   C1A 5031   4.967  13.114  10.232 -0.0796 -0.0984 -0.0112
  315loPI   C2A 5032   5.061  13.136   9.856  0.3553 -0.1447  0.1948
  315loPI   C3A 5033   4.959  13.052   9.429  0.3031  0.0713  0.1852
  315loPI   C4A 5034   5.088  13.060   9.039  0.0522  0.2698  0.0782
  315loPI   C5A 5035   5.056  12.877   8.656 -0.0590  0.4066 -0.0463
  315loPI   C6A 5036   4.760  12.567   8.583 -0.2719 -0.0208 -0.0705
  315loPI   C1B 5037   5.559  13.128   9.961  0.1473  0.2472  0.2510
  315loPI   C2B 5038   5.546  13.086   9.575 -0.0980  0.2299 -0.1646
  315loPI   C3B 5039   5.544  13.100   9.182 -0.1725  0.0529  0.0426
  315loPI   C4B 5040   5.541  13.093   8.708  0.1736  0.0417 -0.1479
  316loPI    C1 5041  15.482  13.218  10.987 -0.0859  0.3130 -0.2536
  316loPI    C2 5042  15.291  13.488  11.212  0.0547  0.3589 -0.1880
  316loPI    C3 5043  15.689  13.454  11.236  0.0338  0.1147 -0.1623
  316loPI   PO4 5044  15.377  13.285  10.798  0.0009  0.0164  0.1529
  316loPI   GL1 5045  15.343  13.370  10.323 -0.3334  0.1943  0.1809
  316loPI   GL2 5046  15.569  13.506  10.271  0.1932  0.1685 -0.0355
  316loPI   C1A 5047  15.395  13.115   9.955  0.1631  0.0036 -0.0736
  316loPI   C2A 5048  15.328  13.175   9.513 -0.1258  0.2798  0.2241
  316loPI   C3A 5049  15.312  13.238   9.096  0.0882  0.1129 -0.0881
  316loPI   C4A 5050  15.353  13.260   8.717  0.3366 -0.0269  0.0481
  316loPI   C5A 5051  15.173  13.435   8.254 -0.2194  0.0024 -0.0812
  316loPI   C6A 5052  15.041  13.653   7.878 -0.2938 -0.1759  0.2455
  316loPI   C1B 5053  15.573  13.696   9.821 -0.1690  0.2146 -0.2850
  316loPI   C2B 5054  15.590  13.738   9.422  0.0009  0.0121  0.3173
  316loPI   C3B 5055  15.617  13.682   9.046 -0.5315 -0.0488  0.0734
  316loPI   C4B 5056  15.606  13.689   8.535 -0.4029  0.2849 -0.0843
  317loPI    C1 5057   0.710   1.107  11.228  0.0807 -0.2527  0.1004
  317loPI    C2 5058   0.751   1.468  11.396 -0.0177 -0.2268  0.0695
  317loPI    C3 5059   0.412   1.262  11.446 -0.1433 -0.1158 -0.2930
  317loPI   PO4 5060   0.666   1.137  11.008 -0.0592  0.0730  0.0801
  317loPI   GL1 5061   0.486   0.822  10.712 -0.0628 -0.0418 -0.0081
  317loPI   GL2 5062   0.871   0.740  10.578  0.3576  0.1638 -0.2089
  317loPI   C1A 5063   0.455   0.677  10.292  0.1365 -0.3883 -0.2278
  317loPI   C2A 5064   0.460   0.770   9.842 -0.2530 -0.2573 -0.1718
  317loPI   C3A 5065   0.489   0.754   9.442  0.0594 -0.0481 -0.1772
  317loPI   C4A 5066   0.556   0.817   9.017  0.1395 -0.1055  0.0955
  317loPI   C5A 5067   0.545   0.773   8.577 -0.3239  0.2314 -0.3119
  317loPI   C6A 5068   0.449   0.972   8.202 -0.0955 -0.0450 -0.1490
  317loPI   C1B 5069   1.059   0.835  10.214 -0.2011 -0.1059 -0.2032
  317loPI   C2B 5070   0.963   0.845   9.766  0.1003  0.0258  0.1392
  317loPI   C3B 5071   1.035   0.844   9.269  0.2199 -0.0502 -0.2021
  317loPI   C4B 5072   1.053   0.815   8.799  0.0879  0.1291 -0.0870
  318loPI    C1 5073   6.669  15.847  11.133  0.1243 -0.0488  0.0251
  318loPI    C2 5074   6.867  16.167  11.267  0.0941  0.0114 -0.0731
  318loPI    C3 5075   6.669  15.933  11.524  0.0699  0.1027 -0.0076
  318loPI   PO4 5076   6.728  15.840  10.948  0.1231  0.2719  0.1520
  318loPI   GL1 5077   6.544  16.039  10.694 -0.0243  0.2646 -0.0700
  318loPI   GL2 5078   6.377  15.876  10.485 -0.0424  0.0823  0.0962
  318loPI   C1A 5079   6.453  16.398  10.389 -0.1581 -0.0040  0.2628
  318loPI   C2A 5080   6.416  16.399   9.904  0.1605  0.0766 -0.1542
  318loPI   C3A 5081   6.451  16.408   9.436  0.0222 -0.0875 -0.0851
  318loPI   C4A 5082   6.326  16.403   9.044 -0.0992  0.1648 -0.0155
  318loPI   C5A 5083   6.533  16.216   8.749  0.0298 -0.1993  0.0044
  318loPI   C6A 5084   6.717  15.832   8.526 -0.1992  0.0243  0.0124
  318loPI   C1B 5085   6.231  15.867  10.014 -0.0675  0.2392 -0.1771
  318loPI   C2B 5086   6.228  15.852   9.530  0.2008  0.0990 -0.2125
  318loPI   C3B 5087   6.167  15.906   9.187  0.0694  0.3867 -0.0763
  318loPI   C4B 5088   6.256  15.755   8.770 -0.1011 -0.1512 -0.3318
  319loPI    C1 5089  15.073   1.228  11.450 -0.1750 -0.0591 -0.0076
  319loPI    C2 5090  15.078   1.004  11.781  0.2095  0.1478  0.1329
  319loPI    C3 5091  15.157   1.395  11.803  0.1500  0.1812 -0.1932
  319loPI   PO4 5092  15.198   1.102  11.307  0.1131  0.1893  0.0079
  319loPI   GL1 5093  15.147   1.144  10.841 -0.0148 -0.4414  0.1637
  319loPI   GL2 5094  15.250   1.372  10.827  0.0955 -0.0928  0.0737
  319loPI   C1A 5095  14.973   0.954  10.433  0.0448  0.5909 -0.0372
  319loPI   C2A 5096  14.861   0.807   9.959  0.2681 -0.2795  0.1891
  319loPI   C3A 5097  14.889   0.862   9.520 -0.2224  0.0331 -0.1707
  319loPI   C4A 5098  14.913   0.951   9.096 -0.1824 -0.2776 -0.1054
  319loPI   C5A 5099  14.883   0.930   8.643 -0.0909  0.0380  0.1320
  319loPI   C6A 5100  14.598   0.918   8.433  0.0556 -0.0308  0.1052
  319loPI   C1B 5101  15.470   1.448  10.453  0.1286 -0.0329 -0.5940
  319loPI   C2B 5102  15.606   1.342  10.069  0.0304 -0.0480  0.1325
  319loPI   C3B 5103  15.663   1.510   9.715 -0.0721 -0.2062  0.0508
  319loPI   C4B 5104  15.533   1.403   9.223  0.1665  0.0698 -0.2182
  320loPI    C1 5105   7.845   9.505  11.434 -0.3746 -0.0702 -0.0772
  320loPI    C2 5106   7.866   9.769  11.734 -0.0863 -0.1674 -0.0079
  320loPI    C3 5107   7.748   9.394  11.806  0.2492 -0.2670  0.0391
  320loPI   PO4 5108   7.688   9.606  11.273 -0.1519  0.2419 -0.1659
  320loPI   GL1 5109   7.699   9.761  10.945 -0.2025 -0.0733  0.0411
  320loPI   GL2 5110   7.966   9.755  10.762  0.2036  0.3191 -0.2036
  320loPI   C1A 5111   7.520   9.666  10.572  0.0141 -0.0878 -0.0211
  320loPI   C2A 5112   7.508   9.500  10.211  0.0893 -0.0569 -0.0298
  320loPI   C3A 5113   7.550   9.587   9.743  0.1917  0.0710  0.1670
  320loPI   C4A 5114   7.432   9.619   9.340  0.0020 -0.1580 -0.1152
  320loPI   C5A 5115   7.394   9.622   8.893  0.0702  0.0151 -0.1319
  320loPI   C6A 5116   7.722   9.328   8.702 -0.2857 -0.1749  0.0205
  320loPI   C1B 5117   7.985   9.620  10.315 -0.0171 -0.1679 -0.0757
  320loPI   C2B 5118   8.055   9.638   9.797 -0.0274 -0.0719 -0.0737
  320loPI   C3B 5119   7.946   9.598   9.434 -0.1720 -0.4400  0.2689
  320loPI   C4B 5120   7.871   9.718   8.994 -0.1434 -0.0825  0.0174
  321loPI    C1 5121  14.337   5.672  10.941 -0.0288  0.0140 -0.0111
  321loPI    C2 5122  14.660   5.697  11.176 -0.0301  0.0116 -0.0091
  321loPI    C3 5123  14.331   5.509  11.306  0.0082 -0.0881 -0.0558
  321loPI   PO4 5124  14.402   5.685  10.712  0.0065  0.2188 -0.0051
  321loPI   GL1 5125  14.065   5.863  10.429 -0.2656 -0.0987 -0.0611
  321loPI   GL2 5126  13.913   5.551  10.581  0.0441  0.2481  0.1492
  321loPI   C1A 5127  14.049   5.820  10.012  0.4281  0.2886 -0.1823
  321loPI   C2A 5128  14.017   5.837   9.583  0.2480 -0.0720 -0.3551
  321loPI   C3A 5129  13.979   5.813   9.038 -0.3880  0.0829 -0.0497
  321loPI   C4A 5130  13.946   5.922   8.621 -0.1110 -0.1075  0.2015
  321loPI   C5A 5131  14.175   6.092   8.289 -0.0839 -0.0432  0.0519
  321loPI   C6A 5132  14.288   5.858   7.912  0.0209 -0.0298 -0.1209
  321loPI   C1B 5133  13.886   5.381  10.223  0.1298 -0.0113 -0.0452
  321loPI   C2B 5134  13.920   5.384   9.749 -0.2368  0.1925 -0.4669
  321loPI   C3B 5135  13.907   5.346   9.287  0.1253  0.2234 -0.1548
  321loPI   C4B 5136  13.793   5.306   8.848 -0.0566 -0.1603  0.3169
  322loPI    C1 5137   8.538  14.483  11.125 -0.1353  0.0874  0.0576
  322loPI    C2 5138   8.701  14.279  11.428 -0.0644 -0.0611 -0.0795
  322loPI    C3 5139   8.753  14.675  11.403  0.2298 -0.0979 -0.0896
  322loPI   PO4 5140   8.666  14.344  10.876 -0.1703  0.0400 -0.3726
  322loPI   GL1 5141   8.991  14.514  10.588 -0.1789  0.2482  0.1098
  322loPI   GL2 5142   9.116  14.228  10.566  0.1128 -0.0864  0.0193
  322loPI   C1A 5143   8.832  14.657  10.256  0.3209  0.1484 -0.3060
  322loPI   C2A 5144   8.703  14.706   9.866 -0.1070  0.1321 -0.0416
  322loPI   C3A 5145   8.664  14.720   9.410  0.3565 -0.3469 -0.1078
  322loPI   C4A 5146   8.673  14.749   9.055 -0.3213 -0.3247  0.2087
  322loPI   C5A 5147   8.632  14.657   8.686  0.2485 -0.0406 -0.1860
  322loPI   C6A 5148   8.858  14.321   8.380 -0.0461 -0.0983 -0.0360
  322loPI   C1B 5149   9.106  14.291  10.110 -0.0716  0.1751 -0.0530
  322loPI   C2B 5150   9.001  14.356   9.753 -0.0859 -0.0593  0.0854
  322loPI   C3B 5151   8.986  14.373   9.344  0.0239  0.2473  0.2236
  322loPI   C4B 5152   8.935  14.285   8.934 -0.0232  0.2174  0.0217
  323loPI    C1 5153   9.345   4.986  11.082  0.1899 -0.0065 -0.0522
  323loPI    C2 5154   9.448   4.842  11.441 -0.0563 -0.0023  0.0220
  323loPI    C3 5155   9.403   5.236  11.389 -0.2119 -0.0176  0.0375
  323loPI   PO4 5156   9.169   4.838  11.029 -0.1159 -0.1070  0.3939
  323loPI   GL1 5157   8.981   4.608  10.725 -0.0370  0.0416  0.0988
  323loPI   GL2 5158   8.952   4.292  10.747 -0.0322 -0.0795 -0.1720
  323loPI   C1A 5159   9.115   4.791  10.384 -0.1450 -0.1744  0.0909
  323loPI   C2A 5160   9.136   4.863  10.036 -0.2104  0.0362  0.1749
  323loPI   C3A 5161   9.277   4.813   9.652 -0.0483  0.1632  0.1074
  323loPI   C4A 5162   9.231   4.861   9.098 -0.0332  0.1391 -0.0219
  323loPI   C5A 5163   9.153   4.737   8.666  0.1392 -0.2169 -0.0149
  323loPI   C6A 5164   8.943   4.803   8.222  0.1597  0.1408 -0.0717
  323loPI   C1B 5165   9.067   4.337  10.300 -0.1720  0.2263 -0.1035
  323loPI   C2B 5166   9.001   4.392   9.856 -0.0430  0.1635  0.0557
  323loPI   C3B 5167   9.084   4.414   9.413 -0.0651 -0.0135  0.0468
  323loPI   C4B 5168   8.986   4.421   8.951 -0.1294  0.3244 -0.1317
  324loPI    C1 5169   7.187  11.425  11.333 -0.0113 -0.2080  0.2092
  324loPI    C2 5170   7.542  11.422  11.519  0.0906  0.1893  0.0304
  324loPI    C3 5171   7.222  11.578  11.701  0.0501  0.0096  0.1147
  324loPI   PO4 5172   7.241  11.515  11.147  0.3023 -0.1283 -0.0816
  324loPI   GL1 5173   7.187  11.371  10.736 -0.1693  0.0627 -0.0562
  324loPI   GL2 5174   6.878  11.522  10.734 -0.1593 -0.3515 -0.1046
  324loPI   C1A 5175   7.330  11.497  10.346 -0.0313 -0.0402 -0.1513
  324loPI   C2A 5176   7.396  11.751  10.010 -0.0343  0.3538  0.0208
  324loPI   C3A 5177   7.457  12.004   9.653 -0.2780  0.1656 -0.1598
  324loPI   C4A 5178   7.488  11.920   9.220  0.0327  0.2696 -0.1343
  324loPI   C5A 5179   7.372  11.738   8.774 -0.0943 -0.2191  0.0259
  324loPI   C6A 5180   7.441  11.668   8.298 -0.2187  0.1863 -0.1799
  324loPI   C1B 5181   6.766  11.468  10.364  0.0601 -0.0276 -0.1989
  324loPI   C2B 5182   6.962  11.414   9.976 -0.0825 -0.1950  0.0153
  324loPI   C3B 5183   7.175  11.439   9.659  0.1039 -0.0883 -0.1061
  324loPI   C4B 5184   7.275  11.520   9.223  0.0260  0.0223 -0.0178
  325loPI    C1 5185  11.000  12.060  11.344 -0.1758  0.1472 -0.1965
  325loPI    C2 5186  10.975  12.379  11.584 -0.2993  0.2054 -0.2858
  325loPI    C3 5187  10.736  12.064  11.645 -0.0261  0.0367 -0.0617
  325loPI   PO4 5188  10.993  12.136  11.151 -0.1374 -0.0458 -0.0507
  325loPI   GL1 5189  10.755  12.293  10.773 -0.3145 -0.2239  0.1543
  325loPI   GL2 5190  10.505  12.192  10.717  0.0501  0.2743 -0.0762
  325loPI   C1A 5191  11.042  12.269  10.411  0.3166 -0.2133 -0.1743
  325loPI   C2A 5192  11.093  12.331   9.988  0.3293 -0.1745  0.2365
  325loPI   C3A 5193  11.169  12.307   9.472  0.0126 -0.0848 -0.1498
  325loPI   C4A 5194  11.048  12.209   9.063  0.0739  0.1193 -0.1801
  325loPI   C5A 5195  10.898  12.426   8.643  0.0279  0.0950 -0.0276
  325loPI   C6A 5196  11.072  12.634   8.346 -0.0072  0.2280  0.1772
  325loPI   C1B 5197  10.561  12.268  10.303  0.0778 -0.1029 -0.1335
  325loPI   C2B 5198  10.583  12.217   9.882  0.2372 -0.2215  0.0446
  325loPI   C3B 5199  10.610  12.235   9.416  0.0588 -0.0183 -0.0021
  325loPI   C4B 5200  10.544  12.162   8.891  0.1552  0.1146 -0.0295
  326loPI    C1 5201   6.774   1.701  11.297 -0.0394  0.1071  0.1607
  326loPI    C2 5202   6.922   1.352  11.170 -0.0022  0.1348  0.1279
  326loPI    C3 5203   6.901   1.429  11.562 -0.0200  0.0915  0.1355
  326loPI   PO4 5204   6.917   1.908  11.179  0.0779  0.0970  0.1572
  326loPI   GL1 5205   7.018   1.982  10.756  0.2771 -0.0937 -0.0901
  326loPI   GL2 5206   6.996   1.777  10.460 -0.1276  0.0245 -0.3856
  326loPI   C1A 5207   7.056   2.328  10.390 -0.2578 -0.0949  0.0988
  326loPI   C2A 5208   7.215   2.453  10.008 -0.0823 -0.1776  0.0136
  326loPI   C3A 5209   7.201   2.460   9.516 -0.0557  0.0181 -0.0438
  326loPI   C4A 5210   7.216   2.364   9.111 -0.0103  0.1749 -0.0116
  326loPI   C5A 5211   7.138   2.384   8.698  0.0905 -0.1984 -0.1338
  326loPI   C6A 5212   7.271   2.432   8.339 -0.0136 -0.2046 -0.0537
  326loPI   C1B 5213   7.221   1.606  10.056 -0.2740  0.0694 -0.4667
  326loPI   C2B 5214   7.236   1.550   9.699  0.0213  0.1610 -0.3220
  326loPI   C3B 5215   7.210   1.517   9.253 -0.1999 -0.0014  0.2917
  326loPI   C4B 5216   7.251   1.500   8.777  0.0266 -0.3076  0.1018
  327loPI    C1 5217   7.792   4.413  11.030  0.0201 -0.1271 -0.2239
  327loPI    C2 5218   7.463   4.638  10.997  0.1980  0.1677 -0.0309
  327loPI    C3 5219   7.459   4.309  11.225 -0.0246  0.0476 -0.2053
  327loPI   PO4 5220   7.822   4.385  10.822  0.0401 -0.2196 -0.2829
  327loPI   GL1 5221   7.588   4.401  10.473  0.0896  0.0553 -0.1331
  327loPI   GL2 5222   7.509   4.198  10.326  0.1103  0.1070 -0.1371
  327loPI   C1A 5223   7.716   4.693  10.092 -0.0133  0.2972  0.1306
  327loPI   C2A 5224   7.656   4.759   9.626 -0.0126  0.1992 -0.0940
  327loPI   C3A 5225   7.664   4.676   9.266  0.2376  0.2778 -0.1934
  327loPI   C4A 5226   7.692   4.663   8.819  0.3906  0.0493  0.0293
  327loPI   C5A 5227   7.704   4.778   8.409 -0.3240  0.0845  0.1056
  327loPI   C6A 5228   7.622   4.628   8.010  0.1383 -0.1063 -0.1023
  327loPI   C1B 5229   7.477   4.307   9.913 -0.1931 -0.1569 -0.3157
  327loPI   C2B 5230   7.434   4.267   9.430  0.1438  0.2441 -0.2200
  327loPI   C3B 5231   7.516   4.179   8.944  0.0252 -0.1605  0.0365
  327loPI   C4B 5232   7.472   4.301   8.498  0.1546  0.1738  0.0180
  328loPI    C1 5233  17.245   4.018  11.365  0.1623 -0.0310 -0.0215
  328loPI    C2 5234  17.399   3.745  11.614 -0.0272  0.0710  0.2113
  328loPI    C3 5235  17.022   3.870  11.662 -0.0743  0.0759 -0.1437
  328loPI   PO4 5236  17.228   3.927  11.112  0.3015 -0.1583 -0.2087
  328loPI   GL1 5237  17.296   4.036  10.736 -0.0663  0.1407 -0.1587
  328loPI   GL2 5238  17.583   3.947  10.692  0.1939  0.0265  0.1868
  328loPI   C1A 5239  17.159   4.128  10.304  0.0959 -0.2028 -0.6057
  328loPI   C2A 5240  17.179   3.961   9.913  0.2880 -0.0899 -0.1818
  328loPI   C3A 5241  17.128   3.837   9.489 -0.2948 -0.2986  0.3146
  328loPI   C4A 5242  17.161   3.873   9.030  0.0192 -0.0581  0.0174
  328loPI   C5A 5243  17.088   3.754   8.502 -0.2147 -0.0217 -0.0804
  328loPI   C6A 5244  17.119   3.309   8.261  0.0132 -0.0393 -0.2130
  328loPI   C1B 5245  17.653   4.097  10.419  0.3652  0.0087  0.2494
  328loPI   C2B 5246  17.657   4.066   9.998  0.1366 -0.0447 -0.0066
  328loPI   C3B 5247  17.625   3.874   9.622  0.2988 -0.2960 -0.1843
  328loPI   C4B 5248  17.665   3.890   9.141  0.0533 -0.2499 -0.2580
  329loPI    C1 5249   4.765  11.384  11.240 -0.0002 -0.1578  0.1244
  329loPI    C2 5250   4.673  11.667  11.508 -0.0358 -0.0105 -0.0416
  329loPI    C3 5251   4.402  11.391  11.407 -0.1136  0.0953 -0.1243
  329loPI   PO4 5252   4.893  11.483  11.044 -0.0593 -0.0711  0.0075
  329loPI   GL1 5253   5.181  11.400  10.760  0.0059 -0.0851  0.1720
  329loPI   GL2 5254   5.222  11.117  10.533 -0.2362  0.0524  0.1583
  329loPI   C1A 5255   5.357  11.594  10.381  0.1416  0.1624  0.0574
  329loPI   C2A 5256   5.513  11.685  10.093  0.2741  0.1304  0.0709
  329loPI   C3A 5257   5.572  11.722   9.725 -0.3244 -0.2903  0.0599
  329loPI   C4A 5258   5.477  11.677   9.335  0.2376 -0.1917 -0.1873
  329loPI   C5A 5259   5.374  11.739   8.998 -0.0304 -0.2012 -0.3230
  329loPI   C6A 5260   5.274  11.799   8.533 -0.2409 -0.0216  0.0233
  329loPI   C1B 5261   5.275  11.205  10.029 -0.2600  0.0905 -0.0636
  329loPI   C2B 5262   5.234  11.335   9.680  0.1083  0.0292 -0.2998
  329loPI   C3B 5263   5.183  11.263   9.277  0.1161  0.0793  0.0559
  329loPI   C4B 5264   5.122  11.255   8.859  0.3296  0.1209  0.0851
  330loPI    C1 5265   3.891   4.005  11.212 -0.0339 -0.0131 -0.0297
  330loPI    C2 5266   3.983   4.359  11.373  0.0907 -0.1132  0.1215
  330loPI    C3 5267   3.889   4.050  11.609 -0.0898 -0.1619 -0.0124
  330loPI   PO4 5268   3.865   3.981  10.951  0.2940  0.1276 -0.0689
  330loPI   GL1 5269   3.627   4.093  10.590  0.0918  0.0200  0.0375
  330loPI   GL2 5270   3.850   3.906  10.424  0.1205 -0.2497 -0.2048
  330loPI   C1A 5271   3.518   4.364  10.291  0.1049  0.1376 -0.2064
  330loPI   C2A 5272   3.430   4.236   9.879  0.3013 -0.3108  0.0833
  330loPI   C3A 5273   3.518   4.203   9.454  0.2061  0.3579 -0.3724
  330loPI   C4A 5274   3.636   4.239   8.991  0.2548  0.1303  0.0401
  330loPI   C5A 5275   3.788   4.325   8.517  0.2073  0.0009 -0.0512
  330loPI   C6A 5276   3.942   4.560   8.461 -0.2623 -0.0253 -0.1555
  330loPI   C1B 5277   3.824   3.883  10.020 -0.2135  0.1726  0.0905
  330loPI   C2B 5278   3.817   3.761   9.487  0.0988 -0.0842  0.2576
  330loPI   C3B 5279   3.900   3.784   9.004  0.0721 -0.1822 -0.2247
  330loPI   C4B 5280   3.626   3.849   8.591  0.3246  0.0435  0.0627
  331loPI    C1 5281   6.709   8.356  11.156  0.0579 -0.0622 -0.1082
  331loPI    C2 5282   6.355   8.316  11.338 -0.0274  0.4149 -0.1576
  331loPI    C3 5283   6.660   8.490  11.529  0.2525 -0.1806 -0.0384
  331loPI   PO4 5284   6.672   8.508  10.953  0.3297 -0.0033 -0.0243
  331loPI   GL1 5285   6.931   8.684  10.621 -0.2389 -0.1465  0.0679
  331loPI   GL2 5286   6.729   8.983  10.563  0.3250 -0.1633 -0.2025
  331loPI   C1A 5287   7.038   8.766  10.166 -0.2798  0.3901 -0.0307
  331loPI   C2A 5288   7.074   8.689   9.726 -0.3107  0.1681  0.0592
  331loPI   C3A 5289   6.896   8.766   9.265  0.0000 -0.1788 -0.1788
  331loPI   C4A 5290   6.958   8.792   8.822  0.2985  0.2329 -0.0293
  331loPI   C5A 5291   6.704   8.976   8.408 -0.1253  0.1186 -0.1033
  331loPI   C6A 5292   6.890   9.196   8.056 -0.1751 -0.0264 -0.0910
  331loPI   C1B 5293   6.726   9.129  10.250 -0.3081 -0.1275  0.3927
  331loPI   C2B 5294   6.755   9.124   9.724  0.0417  0.0452 -0.2563
  331loPI   C3B 5295   6.661   9.172   9.309 -0.2480 -0.3463 -0.0889
  331loPI   C4B 5296   6.667   9.195   8.881  0.1171  0.0514  0.2430
  332loPI    C1 5297  11.699   1.295  11.354 -0.1664  0.2247  0.1422
  332loPI    C2 5298  11.879   0.986  11.532 -0.4550  0.0544  0.1437
  332loPI    C3 5299  11.864   1.341  11.715  0.0574  0.1294  0.0539
  332loPI   PO4 5300  11.623   1.187  11.142 -0.1073 -0.0808  0.2232
  332loPI   GL1 5301  11.734   1.034  10.720  0.1114 -0.0154  0.0556
  332loPI   GL2 5302  11.433   1.134  10.673  0.1770  0.0756 -0.0186
  332loPI   C1A 5303  11.994   0.990  10.360 -0.1065 -0.2630  0.0961
  332loPI   C2A 5304  11.941   1.066  10.070 -0.0754 -0.0140  0.0771
  332loPI   C3A 5305  12.004   0.970   9.650  0.1924 -0.1230 -0.0947
  332loPI   C4A 5306  12.028   1.059   9.198 -0.0270 -0.0187 -0.0002
  332loPI   C5A 5307  11.938   0.867   8.685 -0.2997 -0.4111 -0.0368
  332loPI   C6A 5308  12.076   1.089   8.370 -0.1766  0.0110 -0.3579
  332loPI   C1B 5309  11.427   0.983  10.198  0.0241 -0.0103  0.0039
  332loPI   C2B 5310  11.469   0.948   9.706  0.2186 -0.1857  0.1896
  332loPI   C3B 5311  11.474   0.929   9.258 -0.5014 -0.1153 -0.1922
  332loPI   C4B 5312  11.578   1.119   8.893 -0.1137  0.2215 -0.0651
  333loPI    C1 5313  12.862   2.580  11.186  0.3029  0.1461  0.0026
  333loPI    C2 5314  12.835   2.932  11.374 -0.2137  0.2241 -0.1996
  333loPI    C3 5315  12.694   2.601  11.548 -0.3085  0.2259 -0.2722
  333loPI   PO4 5316  12.877   2.569  10.966  0.0887  0.1468  0.0382
  333loPI   GL1 5317  12.737   2.696  10.575 -0.0410 -0.1427 -0.1723
  333loPI   GL2 5318  12.869   2.927  10.400 -0.0573  0.0500 -0.2892
  333loPI   C1A 5319  12.585   2.478  10.203 -0.0864  0.0868  0.3961
  333loPI   C2A 5320  12.655   2.371   9.748  0.1988  0.0389 -0.1043
  333loPI   C3A 5321  12.657   2.437   9.283  0.0365  0.1090 -0.2359
  333loPI   C4A 5322  12.646   2.417   8.866  0.1511 -0.0775 -0.0605
  333loPI   C5A 5323  12.606   2.300   8.546  0.0399 -0.0280  0.0091
  333loPI   C6A 5324  12.861   2.475   8.173 -0.2850 -0.0598 -0.0456
  333loPI   C1B 5325  12.866   2.915   9.930 -0.0262 -0.1174 -0.3980
  333loPI   C2B 5326  12.853   2.854   9.503 -0.0168  0.3107  0.3168
  333loPI   C3B 5327  12.861   2.938   9.024  0.1728 -0.2391  0.1333
  333loPI   C4B 5328  12.877   2.788   8.608  0.2772  0.1590 -0.1094
  334loPI    C1 5329   5.846   5.129  10.969  0.1198  0.1368  0.0689
  334loPI    C2 5330   5.637   5.246  11.288  0.0422 -0.0347  0.0824
  334loPI    C3 5331   5.935   4.983  11.330  0.1072  0.0300  0.0294
  334loPI   PO4 5332   5.637   4.929  10.848  0.1557  0.1038 -0.0307
  334loPI   GL1 5333   5.258   4.879  10.608  0.2479 -0.2223 -0.3800
  334loPI   GL2 5334   4.996   4.807  10.584 -0.1666 -0.1080 -0.4670
  334loPI   C1A 5335   5.440   4.868  10.218 -0.1980  0.0385 -0.1817
  334loPI   C2A 5336   5.487   4.822   9.756 -0.1478  0.0889 -0.1604
  334loPI   C3A 5337   5.401   4.887   9.351 -0.0344  0.1864 -0.3410
  334loPI   C4A 5338   5.331   4.892   8.952 -0.2318  0.0338 -0.2306
  334loPI   C5A 5339   5.170   4.900   8.498 -0.1407  0.3946 -0.0156
  334loPI   C6A 5340   5.262   4.663   8.116  0.1385 -0.1805 -0.3279
  334loPI   C1B 5341   4.850   4.796  10.170 -0.0807  0.0732  0.1290
  334loPI   C2B 5342   4.818   4.756   9.729  0.2533  0.0255  0.0004
  334loPI   C3B 5343   4.871   4.872   9.290 -0.0663 -0.0089  0.0755
  334loPI   C4B 5344   4.774   4.834   8.916  0.0575  0.0314 -0.0826
  335loPI    C1 5345  13.879  17.008  11.212 -0.2402 -0.1262 -0.0087
  335loPI    C2 5346  13.785  16.968  11.598 -0.0624 -0.2547  0.0227
  335loPI    C3 5347  14.107  16.782  11.451 -0.0476 -0.0908 -0.1561
  335loPI   PO4 5348  13.684  17.024  11.099 -0.2218  0.1385  0.1783
  335loPI   GL1 5349  13.439  17.212  10.879  0.0549  0.1268 -0.0765
  335loPI   GL2 5350  13.160  17.127  10.844 -0.1232  0.2027  0.1753
  335loPI   C1A 5351  13.699  17.169  10.482  0.1199  0.0711 -0.2014
  335loPI   C2A 5352  13.718  17.199  10.029 -0.3961  0.0193  0.0844
  335loPI   C3A 5353  13.755  17.061   9.683  0.1222  0.3389 -0.2300
  335loPI   C4A 5354  13.715  17.067   9.258  0.0147  0.2361  0.0559
  335loPI   C5A 5355  13.623  17.111   8.936 -0.0247 -0.2397 -0.1351
  335loPI   C6A 5356  13.611  17.153   8.615 -0.0813  0.2268  0.3067
  335loPI   C1B 5357  13.158  17.110  10.431 -0.0879  0.1245  0.2971
  335loPI   C2B 5358  13.232  17.096   9.934 -0.0899  0.2913  0.0843
  335loPI   C3B 5359  13.160  16.976   9.511  0.2716 -0.1360 -0.2241
  335loPI   C4B 5360  13.198  17.078   9.134 -0.1905 -0.0291  0.1881
  336loPI    C1 5361   8.126   0.808  11.283  0.2079  0.0540 -0.0987
  336loPI    C2 5362   8.257   0.939  11.638  0.0600  0.1903 -0.0933
  336loPI    C3 5363   8.264   0.548  11.554  0.1826  0.1668  0.0235
  336loPI   PO4 5364   8.280   0.891  11.081 -0.1271 -0.2439  0.2831
  336loPI   GL1 5365   8.305   0.733  10.644  0.1492  0.0150 -0.4517
  336loPI   GL2 5366   8.379   0.355  10.483  0.0168  0.1129  0.1363
  336loPI   C1A 5367   8.366   0.781  10.254  0.1132 -0.0230  0.0553
  336loPI   C2A 5368   8.370   0.666   9.850  0.0583  0.0770  0.1646
  336loPI   C3A 5369   8.396   0.619   9.407 -0.1365 -0.0180 -0.1385
  336loPI   C4A 5370   8.319   0.616   9.083  0.3019 -0.2703 -0.0929
  336loPI   C5A 5371   8.313   0.491   8.685 -0.0025  0.2060  0.1953
  336loPI   C6A 5372   8.188   0.541   8.248 -0.2270  0.0143 -0.0968
  336loPI   C1B 5373   8.571   0.223  10.133 -0.1172 -0.0873  0.0071
  336loPI   C2B 5374   8.548   0.234   9.660 -0.4041  0.1547  0.1474
  336loPI   C3B 5375   8.646   0.194   9.166  0.0828 -0.1599  0.0442
  336loPI   C4B 5376   8.555   0.078   8.747  0.1967 -0.2690  0.0729
  337loPI    C1 5377   9.842  13.415  11.408 -0.0134  0.0421  0.0575
  337loPI    C2 5378  10.198  13.278  11.530  0.1012  0.1627 -0.1360
  337loPI    C3 5379  10.007  13.556  11.744 -0.0179 -0.1164  0.1269
  337loPI   PO4 5380   9.785  13.430  11.197  0.4300 -0.1573 -0.1527
  337loPI   GL1 5381   9.768  13.329  10.804 -0.1789 -0.0368  0.0666
  337loPI   GL2 5382   9.636  13.057  10.735 -0.1640 -0.0827 -0.2606
  337loPI   C1A 5383   9.788  13.470  10.445  0.1446 -0.0983 -0.0653
  337loPI   C2A 5384   9.681  13.489  10.054 -0.2361 -0.2536  0.2439
  337loPI   C3A 5385   9.803  13.498   9.769 -0.0208  0.0783 -0.1286
  337loPI   C4A 5386   9.659  13.494   9.389  0.0135 -0.1064  0.0176
  337loPI   C5A 5387   9.603  13.383   8.981  0.1364  0.1699 -0.0899
  337loPI   C6A 5388   9.552  13.465   8.525  0.0949 -0.1710  0.1941
  337loPI   C1B 5389   9.986  13.050  10.408 -0.0591 -0.2048 -0.2218
  337loPI   C2B 5390  10.052  13.059   9.975  0.2062  0.0981  0.0674
  337loPI   C3B 5391  10.035  13.084   9.610  0.0468  0.1783  0.0053
  337loPI   C4B 5392  10.043  13.187   9.129  0.1307  0.0863  0.1876
  338loPI    C1 5393   2.829  13.853  11.266  0.0041  0.1503  0.1645
  338loPI    C2 5394   2.993  13.883  11.630  0.0067  0.0327  0.1734
  338loPI    C3 5395   2.825  13.539  11.514  0.0475  0.0549  0.0456
  338loPI   PO4 5396   2.989  13.860  11.096  0.1447  0.1269 -0.0255
  338loPI   GL1 5397   2.810  13.607  10.758  0.1047  0.1472  0.1173
  338loPI   GL2 5398   2.760  13.815  10.557  0.0761 -0.0754 -0.1322
  338loPI   C1A 5399   3.026  13.368  10.424  0.0064  0.1176  0.1007
  338loPI   C2A 5400   3.203  13.303   9.924  0.1911 -0.0547 -0.0631
  338loPI   C3A 5401   3.196  13.343   9.588 -0.0855  0.1140  0.0293
  338loPI   C4A 5402   3.158  13.380   9.110  0.1072  0.0143 -0.3884
  338loPI   C5A 5403   3.105  13.336   8.601  0.2508  0.0577 -0.2803
  338loPI   C6A 5404   2.950  13.362   8.172  0.3658 -0.1189  0.1497
  338loPI   C1B 5405   2.781  13.749  10.076 -0.2009  0.2948  0.4582
  338loPI   C2B 5406   2.805  13.650   9.628  0.1247 -0.1684 -0.0745
  338loPI   C3B 5407   2.895  13.786   9.184  0.2906  0.1311  0.0314
  338loPI   C4B 5408   2.840  13.752   8.700 -0.1657  0.2028 -0.0431
  339loPI    C1 5409   0.121   3.204  11.360  0.2439 -0.0143 -0.1083
  339loPI    C2 5410   0.131   3.598  11.432 -0.1206 -0.0371  0.0896
  339loPI    C3 5411   0.223   3.340  11.723 -0.1389 -0.1030  0.0372
  339loPI   PO4 5412   0.085   3.106  11.098  0.0248 -0.2777 -0.0677
  339loPI   GL1 5413   0.272   3.083  10.704 -0.1195 -0.1041 -0.0196
  339loPI   GL2 5414   0.013   3.336  10.601 -0.0357 -0.0549 -0.0879
  339loPI   C1A 5415   0.429   3.069  10.356  0.2554 -0.1674 -0.0941
  339loPI   C2A 5416   0.542   3.039   9.866 -0.2540  0.0790  0.0532
  339loPI   C3A 5417   0.550   3.036   9.561  0.1325 -0.0140  0.2355
  339loPI   C4A 5418   0.522   3.054   9.201  0.0280 -0.0313 -0.0989
  339loPI   C5A 5419   0.469   3.084   8.761 -0.0167 -0.0636  0.0659
  339loPI   C6A 5420   0.235   3.389   8.523  0.1881  0.0690 -0.1074
  339loPI   C1B 5421  -0.053   3.057  10.279  0.1333  0.1021 -0.1148
  339loPI   C2B 5422   0.034   3.020   9.920 -0.2042 -0.0842  0.2063
  339loPI   C3B 5423   0.027   2.973   9.438 -0.0472 -0.1069  0.1716
  339loPI   C4B 5424   0.006   2.974   8.986 -0.0624 -0.1816  0.2003
  340loPI    C1 5425   4.800  13.883  11.342 -0.0064 -0.0313  0.0606
  340loPI    C2 5426   4.901  13.677  11.670 -0.1016 -0.0899  0.0536
  340loPI    C3 5427   4.831  14.070  11.694 -0.2844 -0.1263  0.1388
  340loPI   PO4 5428   4.947  13.771  11.152  0.2817 -0.1779  0.0728
  340loPI   GL1 5429   4.876  13.795  10.705 -0.0928  0.0456  0.0149
  340loPI   GL2 5430   5.101  13.679  10.628  0.1433 -0.2240  0.1182
  340loPI   C1A 5431   4.893  13.963  10.289 -0.1891 -0.1937  0.0709
  340loPI   C2A 5432   4.860  14.032   9.896 -0.0498  0.3572 -0.0338
  340loPI   C3A 5433   4.846  13.993   9.477 -0.0738 -0.1455  0.1553
  340loPI   C4A 5434   4.862  13.925   9.060  0.1703  0.1176 -0.2642
  340loPI   C5A 5435   5.160  14.124   8.766 -0.1638 -0.0558  0.4388
  340loPI   C6A 5436   5.136  14.288   8.304  0.2244  0.0327 -0.0709
  340loPI   C1B 5437   5.142  13.525  10.273  0.4112 -0.1930 -0.0470
  340loPI   C2B 5438   5.127  13.657   9.801 -0.2217  0.2496  0.3107
  340loPI   C3B 5439   5.132  13.565   9.348 -0.0617  0.2112 -0.0141
  340loPI   C4B 5440   5.184  13.503   8.939 -0.3984  0.0146  0.0872
  341loPI    C1 5441   3.218   9.220  11.158  0.1157 -0.0405 -0.0112
  341loPI    C2 5442   3.014   9.149  11.495  0.1193 -0.0470 -0.0102
  341loPI    C3 5443   3.414   9.142  11.498  0.1183 -0.1275 -0.0325
  341loPI   PO4 5444   3.080   9.165  10.904 -0.1312 -0.1730  0.1526
  341loPI   GL1 5445   3.021   9.036  10.427  0.1398 -0.0526 -0.1068
  341loPI   GL2 5446   2.837   9.314  10.261  0.2046  0.4443 -0.3552
  341loPI   C1A 5447   3.315   9.246  10.128  0.0872  0.1550 -0.1233
  341loPI   C2A 5448   3.327   9.269   9.716 -0.0597 -0.1012 -0.1909
  341loPI   C3A 5449   3.275   9.245   9.282 -0.0748 -0.0917 -0.2182
  341loPI   C4A 5450   3.251   9.218   8.860 -0.1056 -0.0476  0.0784
  341loPI   C5A 5451   3.278   9.056   8.377 -0.0233  0.1790 -0.1022
  341loPI   C6A 5452   3.096   8.867   8.047  0.0934 -0.0358 -0.0417
  341loPI   C1B 5453   2.805   9.236   9.813 -0.1874  0.0465  0.0332
  341loPI   C2B 5454   2.782   9.173   9.422 -0.2692 -0.0585  0.0201
  341loPI   C3B 5455   2.718   9.190   8.965 -0.1926  0.0682 -0.1816
  341loPI   C4B 5456   2.764   9.242   8.470 -0.1139 -0.0544  0.0375
  342loPI    C1 5457   3.940   1.342  11.175 -0.1090  0.0759 -0.1075
  342loPI    C2 5458   4.072   1.076  11.444 -0.0565  0.1706 -0.0389
  342loPI    C3 5459   3.739   1.286  11.517 -0.0768  0.1515 -0.0761
  342loPI   PO4 5460   4.161   1.424  11.076  0.0902  0.1049 -0.1938
  342loPI   GL1 5461   4.452   1.228  10.756 -0.0834 -0.0566  0.0736
  342loPI   GL2 5462   4.116   1.241  10.619 -0.2349  0.1713  0.2038
  342loPI   C1A 5463   4.559   1.222  10.321  0.0454  0.2962 -0.0664
  342loPI   C2A 5464   4.598   1.237   9.954  0.2100  0.0830  0.3288
  342loPI   C3A 5465   4.624   1.205   9.554 -0.3584  0.2119 -0.2175
  342loPI   C4A 5466   4.676   1.190   9.046 -0.1002  0.1079  0.2743
  342loPI   C5A 5467   4.752   1.144   8.572  0.1127  0.0185  0.1133
  342loPI   C6A 5468   5.060   1.233   8.370 -0.0838  0.3022 -0.2395
  342loPI   C1B 5469   4.087   1.175  10.134  0.0181 -0.0037 -0.0658
  342loPI   C2B 5470   4.117   1.202   9.718  0.0877  0.1322 -0.0971
  342loPI   C3B 5471   4.105   1.184   9.307 -0.1083 -0.1180 -0.2688
  342loPI   C4B 5472   4.194   1.136   8.931 -0.0467 -0.3023 -0.0857
  343loPI    C1 5473   5.985   9.597  11.355  0.0238  0.2443  0.2908
  343loPI    C2 5474   5.777   9.553  11.694  0.0171 -0.2915  0.2268
  343loPI    C3 5475   6.043   9.275  11.586  0.3182  0.0777 -0.0065
  343loPI   PO4 5476   5.899   9.620  11.137 -0.1564  0.3580 -0.2394
  343loPI   GL1 5477   6.066   9.870  10.774 -0.1349 -0.1069  0.1421
  343loPI   GL2 5478   6.102   9.613  10.638 -0.1093 -0.0346 -0.1443
  343loPI   C1A 5479   6.237  10.040  10.439 -0.2257  0.0300 -0.0592
  343loPI   C2A 5480   6.261  10.069   9.923 -0.2733  0.2668 -0.0372
  343loPI   C3A 5481   6.209   9.966   9.631 -0.5075  0.0446 -0.0315
  343loPI   C4A 5482   6.109  10.024   9.193 -0.1314 -0.0476 -0.0385
  343loPI   C5A 5483   6.073   9.977   8.745  0.1233  0.0052 -0.1092
  343loPI   C6A 5484   5.717  10.215   8.511  0.3707  0.0552  0.1663
  343loPI   C1B 5485   5.961   9.553  10.266  0.0217 -0.0782  0.0894
  343loPI   C2B 5486   5.980   9.533   9.828  0.0236  0.0359  0.1871
  343loPI   C3B 5487   6.025   9.519   9.421 -0.1218  0.0685  0.2453
  343loPI   C4B 5488   5.954   9.580   9.067  0.0105 -0.1289  0.0695
  344loPI    C1 5489   8.677  16.796  10.990  0.0905  0.0833  0.1761
  344loPI    C2 5490   8.620  16.555  11.304  0.1224 -0.3335 -0.1286
  344loPI    C3 5491   8.948  16.515  11.079  0.1380  0.0133 -0.1729
  344loPI   PO4 5492   8.466  16.770  10.813 -0.3856  0.1300 -0.0257
  344loPI   GL1 5493   8.348  16.446  10.557 -0.0089  0.1971 -0.2900
  344loPI   GL2 5494   8.038  16.412  10.559  0.1863  0.2487  0.2992
  344loPI   C1A 5495   8.474  16.458  10.035 -0.1820  0.2230  0.0251
  344loPI   C2A 5496   8.571  16.582   9.692 -0.0471  0.2846 -0.1687
  344loPI   C3A 5497   8.482  16.577   9.211 -0.0096  0.2355  0.2005
  344loPI   C4A 5498   8.573  16.453   8.782 -0.0364  0.1516  0.2854
  344loPI   C5A 5499   8.527  16.255   8.554  0.1630  0.2078 -0.3762
  344loPI   C6A 5500   8.601  15.949   8.262 -0.0817  0.2130 -0.0731
  344loPI   C1B 5501   7.986  16.521  10.159 -0.0072  0.1706 -0.0371
  344loPI   C2B 5502   8.061  16.577   9.673 -0.4205  0.0246  0.0209
  344loPI   C3B 5503   8.000  16.588   9.328  0.2586  0.2058 -0.1177
  344loPI   C4B 5504   8.026  16.458   8.939  0.0065  0.1147  0.0527
  345loPI    C1 5505   6.921   7.591  11.133 -0.1577 -0.0872  0.0932
  345loPI    C2 5506   7.232   7.563  11.383 -0.0867 -0.0432  0.0107
  345loPI    C3 5507   6.886   7.383  11.472 -0.0338 -0.1029  0.0969
  345loPI   PO4 5508   6.928   7.508  10.920 -0.0334 -0.1784  0.2632
  345loPI   GL1 5509   6.875   7.677  10.529 -0.1751  0.1815 -0.0522
  345loPI   GL2 5510   7.197   7.812  10.450 -0.1180 -0.0769  0.0630
  345loPI   C1A 5511   6.680   7.743  10.086  0.0224 -0.2814 -0.1990
  345loPI   C2A 5512   6.686   7.761   9.645 -0.0688 -0.0932 -0.0106
  345loPI   C3A 5513   6.575   7.805   9.195 -0.1930 -0.3673 -0.1607
  345loPI   C4A 5514   6.549   7.881   8.739 -0.0569  0.2476  0.1866
  345loPI   C5A 5515   6.508   7.736   8.346  0.1059  0.1699 -0.2237
  345loPI   C6A 5516   6.325   7.421   8.127 -0.0213  0.2715  0.1325
  345loPI   C1B 5517   7.175   7.774   9.937  0.1652  0.3520 -0.2041
  345loPI   C2B 5518   7.169   7.895   9.441 -0.0002  0.1986 -0.0679
  345loPI   C3B 5519   7.084   7.890   9.047 -0.0741  0.1387  0.0333
  345loPI   C4B 5520   7.079   7.900   8.608  0.1407  0.1248  0.2065
  346loPI    C1 5521  10.210   7.818  11.133 -0.2469 -0.1424  0.0694
  346loPI    C2 5522  10.192   8.160  11.340  0.4043 -0.0060 -0.0756
  346loPI    C3 5523  10.178   7.809  11.532 -0.0889  0.0950  0.0893
  346loPI   PO4 5524   9.967   7.926  10.970  0.0594 -0.0019 -0.1004
  346loPI   GL1 5525   9.853   7.783  10.615  0.1043  0.0881 -0.0830
  346loPI   GL2 5526  10.024   7.513  10.436  0.0390  0.0135 -0.1037
  346loPI   C1A 5527   9.745   8.041  10.270  0.1453  0.1612 -0.0161
  346loPI   C2A 5528   9.711   8.052   9.782 -0.3141 -0.0430  0.2139
  346loPI   C3A 5529   9.724   8.002   9.346 -0.0154 -0.0375  0.2098
  346loPI   C4A 5530   9.717   8.048   8.966  0.3399  0.3213  0.0385
  346loPI   C5A 5531   9.633   8.074   8.550 -0.2073  0.0651  0.0228
  346loPI   C6A 5532   9.919   7.930   8.228  0.1135  0.2741  0.0322
  346loPI   C1B 5533  10.039   7.591  10.050  0.1701  0.1411  0.0315
  346loPI   C2B 5534   9.968   7.641   9.599 -0.0096  0.1308  0.4225
  346loPI   C3B 5535  10.022   7.652   9.148  0.1393  0.2198  0.1630
  346loPI   C4B 5536  10.018   7.738   8.690  0.2963 -0.2546  0.1066
  347loPI    C1 5537  12.627   3.526  11.387 -0.0336  0.0540  0.0049
  347loPI    C2 5538  12.861   3.383  11.678  0.0652  0.0349 -0.0833
  347loPI    C3 5539  12.484   3.491  11.759  0.0648 -0.0516  0.0333
  347loPI   PO4 5540  12.716   3.392  11.172 -0.1396 -0.3944 -0.0514
  347loPI   GL1 5541  12.847   3.542  10.738  0.5017 -0.1017  0.2545
  347loPI   GL2 5542  12.551   3.400  10.502 -0.1704 -0.3285  0.0584
  347loPI   C1A 5543  13.021   3.390  10.261  0.0058  0.0490 -0.0406
  347loPI   C2A 5544  13.163   3.380   9.896 -0.0879  0.2293  0.2479
  347loPI   C3A 5545  13.093   3.394   9.507 -0.0958  0.1524 -0.0740
  347loPI   C4A 5546  13.006   3.406   9.029 -0.1719  0.2275  0.4492
  347loPI   C5A 5547  12.910   3.280   8.587  0.2273 -0.2999 -0.0479
  347loPI   C6A 5548  12.803   3.012   8.161 -0.0024  0.0156 -0.1928
  347loPI   C1B 5549  12.573   3.317  10.166  0.0416 -0.3360 -0.0104
  347loPI   C2B 5550  12.695   3.337   9.806 -0.0088  0.0341  0.1220
  347loPI   C3B 5551  12.630   3.259   9.343  0.1029 -0.1139 -0.0481
  347loPI   C4B 5552  12.559   3.456   8.916  0.0493 -0.0163 -0.2120
  348loPI    C1 5553   1.312   5.682  11.183 -0.1009 -0.1947 -0.1386
  348loPI    C2 5554   0.975   5.791  11.369 -0.0320  0.0806 -0.1719
  348loPI    C3 5555   1.262   5.600  11.571 -0.1920 -0.1236 -0.1348
  348loPI   PO4 5556   1.255   5.553  10.918  0.1060 -0.1796 -0.1860
  348loPI   GL1 5557   1.102   5.411  10.529  0.0374  0.1784 -0.2133
  348loPI   GL2 5558   0.905   5.191  10.453 -0.4695  0.2454 -0.1358
  348loPI   C1A 5559   1.111   5.418  10.052 -0.0088 -0.1389  0.3019
  348loPI   C2A 5560   1.100   5.352   9.647 -0.0071 -0.1200  0.0749
  348loPI   C3A 5561   1.088   5.299   9.127  0.1829 -0.0211 -0.0995
  348loPI   C4A 5562   0.955   5.361   8.638 -0.0950  0.2313 -0.0381
  348loPI   C5A 5563   0.666   5.564   8.363 -0.0029 -0.2856  0.3796
  348loPI   C6A 5564   0.450   5.653   7.944  0.1288  0.2609 -0.0316
  348loPI   C1B 5565   0.867   4.943  10.050 -0.2309 -0.0207  0.3238
  348loPI   C2B 5566   0.940   4.861   9.649 -0.1165 -0.0265 -0.0361
  348loPI   C3B 5567   0.860   4.911   9.333 -0.0247  0.0166  0.0114
  348loPI   C4B 5568   0.742   4.926   8.909 -0.1644 -0.0988  0.3224
  349loPI    C1 5569   6.879  10.152  11.212  0.0246 -0.0283 -0.0936
  349loPI    C2 5570   6.881   9.806  11.412 -0.0164 -0.0369 -0.1078
  349loPI    C3 5571   6.684  10.121  11.560  0.2125  0.0487  0.0196
  349loPI   PO4 5572   7.003  10.070  10.980 -0.0261  0.0609  0.2647
  349loPI   GL1 5573   7.127   9.875  10.678 -0.0233 -0.1294  0.0112
  349loPI   GL2 5574   7.036   9.601  10.524  0.0799 -0.1109  0.4847
  349loPI   C1A 5575   7.253  10.044  10.272 -0.1242 -0.2579  0.0448
  349loPI   C2A 5576   7.228  10.039   9.729 -0.0835 -0.1502  0.2451
  349loPI   C3A 5577   7.112  10.072   9.331  0.0288  0.2838  0.1998
  349loPI   C4A 5578   7.135  10.072   8.880  0.0915  0.0346  0.2532
  349loPI   C5A 5579   6.948  10.122   8.586 -0.0405  0.0080 -0.1784
  349loPI   C6A 5580   6.689  10.495   8.373 -0.0163  0.1681 -0.0018
  349loPI   C1B 5581   6.952   9.633  10.088 -0.5897  0.1793  0.0955
  349loPI   C2B 5582   7.045   9.579   9.605 -0.0794 -0.3751 -0.2530
  349loPI   C3B 5583   6.944   9.584   9.200 -0.2047 -0.2453  0.2924
  349loPI   C4B 5584   6.882   9.634   8.839  0.0662 -0.5966 -0.2131
  350loPI    C1 5585  17.071  15.356  11.175  0.1177 -0.0524  0.0574
  350loPI    C2 5586  16.769  15.431  11.426  0.0561 -0.1656  0.0180
  350loPI    C3 5587  17.029  15.138  11.508  0.1806 -0.0413  0.0730
  350loPI   PO4 5588  17.092  15.614  11.095  0.1977 -0.0612  0.0588
  350loPI   GL1 5589  17.095  15.683  10.696 -0.0124  0.0202 -0.1492
  350loPI   GL2 5590  16.871  15.561  10.525 -0.5929  0.3743 -0.0303
  350loPI   C1A 5591  17.126  16.043  10.427 -0.3173 -0.2403 -0.2043
  350loPI   C2A 5592  17.199  16.090  10.042  0.0418 -0.2817  0.2025
  350loPI   C3A 5593  17.187  16.115   9.610 -0.0834 -0.0023 -0.1657
  350loPI   C4A 5594  17.272  16.201   9.251 -0.0856 -0.0986  0.0784
  350loPI   C5A 5595  17.295  16.170   8.788 -0.3677 -0.1784  0.2793
  350loPI   C6A 5596  17.495  16.406   8.402  0.0469  0.2383 -0.2163
  350loPI   C1B 5597  16.997  15.617  10.081 -0.1723  0.1027  0.1072
  350loPI   C2B 5598  17.031  15.622   9.718  0.0374  0.0628  0.2481
  350loPI   C3B 5599  16.894  15.688   9.240 -0.0210 -0.0492 -0.0023
  350loPI   C4B 5600  17.079  15.709   8.911 -0.2656 -0.1242 -0.0242
  351loPI    C1 5601  14.016   0.786  11.472  0.1473  0.1035  0.0076
  351loPI    C2 5602  14.257   0.546  11.683  0.0103 -0.0368  0.0066
  351loPI    C3 5603  14.402   0.880  11.517  0.2289 -0.1768 -0.0880
  351loPI   PO4 5604  13.874   0.524  11.347 -0.3728 -0.1721  0.2890
  351loPI   GL1 5605  13.963   0.317  11.059 -0.2438  0.0491  0.0296
  351loPI   GL2 5606  13.744   0.393  10.779  0.1816  0.0105  0.3038
  351loPI   C1A 5607  13.977  -0.053  10.714  0.0189  0.1919  0.1209
  351loPI   C2A 5608  13.896  -0.136  10.244 -0.1288 -0.2782  0.3107
  351loPI   C3A 5609  13.923  -0.176   9.745 -0.2364 -0.1801 -0.5084
  351loPI   C4A 5610  13.867  -0.200   9.370 -0.0762  0.0417  0.0367
  351loPI   C5A 5611  13.873  -0.079   8.974 -0.3228 -0.0090 -0.1159
  351loPI   C6A 5612  13.826   0.254   8.704 -0.3324  0.3659 -0.3811
  351loPI   C1B 5613  13.633   0.255  10.407  0.3098  0.0195  0.1867
  351loPI   C2B 5614  13.586   0.233  10.032 -0.0091 -0.0031  0.2821
  351loPI   C3B 5615  13.559   0.257   9.577  0.0917 -0.0094 -0.1103
  351loPI   C4B 5616  13.522   0.334   9.233 -0.2754  0.0991 -0.1257
  352loPI    C1 5617  15.931  15.206  10.984 -0.0442 -0.0988 -0.0559
  352loPI    C2 5618  15.868  15.532  11.208  0.0725  0.0285 -0.2071
  352loPI    C3 5619  15.558  15.333  11.053 -0.0046 -0.0077 -0.0081
  352loPI   PO4 5620  16.172  15.283  10.846 -0.0743  0.2093 -0.0185
  352loPI   GL1 5621  16.260  14.940  10.527  0.1609  0.0821 -0.0992
  352loPI   GL2 5622  16.555  15.037  10.578 -0.0332  0.1015 -0.1576
  352loPI   C1A 5623  16.149  14.713  10.165 -0.0326  0.1267 -0.4772
  352loPI   C2A 5624  16.027  14.702   9.814  0.4438  0.0462 -0.0661
  352loPI   C3A 5625  16.070  14.718   9.413  0.0723  0.1607 -0.2710
  352loPI   C4A 5626  15.976  14.755   8.990  0.2962  0.1366  0.1740
  352loPI   C5A 5627  16.106  14.712   8.559 -0.2334 -0.0169 -0.2706
  352loPI   C6A 5628  16.077  14.497   8.115  0.0164 -0.1870  0.2802
  352loPI   C1B 5629  16.752  15.170  10.155 -0.1365 -0.2095 -0.1132
  352loPI   C2B 5630  16.788  15.206   9.849  0.0591  0.1359 -0.2815
  352loPI   C3B 5631  16.774  15.244   9.436  0.1239 -0.0931 -0.0414
  352loPI   C4B 5632  16.726  15.244   8.893 -0.1487  0.2576 -0.1571
  353loPI    C1 5633   5.156   5.917  11.066 -0.0540 -0.0716 -0.0559
  353loPI    C2 5634   4.869   6.195  11.075  0.1621  0.1535 -0.0075
  353loPI    C3 5635   5.092   6.128  11.400  0.1806 -0.0039 -0.0520
  353loPI   PO4 5636   5.123   5.784  10.939  0.0990  0.1231  0.0662
  353loPI   GL1 5637   5.191   5.809  10.512 -0.0144 -0.4338  0.2317
  353loPI   GL2 5638   5.087   6.175  10.502 -0.0860  0.0832 -0.3301
  353loPI   C1A 5639   5.356   5.711   9.998 -0.0710  0.1217 -0.0273
  353loPI   C2A 5640   5.246   5.659   9.610  0.2691 -0.2908 -0.2731
  353loPI   C3A 5641   5.231   5.821   9.234 -0.4435 -0.1701  0.1444
  353loPI   C4A 5642   5.146   5.799   8.880  0.0118 -0.0885  0.1392
  353loPI   C5A 5643   5.061   5.859   8.458 -0.0065 -0.1027  0.1138
  353loPI   C6A 5644   4.952   5.795   8.066  0.3136  0.4806  0.1189
  353loPI   C1B 5645   5.049   6.152  10.130  0.1488  0.2225  0.0283
  353loPI   C2B 5646   4.980   6.122   9.636  0.0750  0.1147 -0.0193
  353loPI   C3B 5647   4.908   6.180   9.217  0.0732 -0.0414 -0.0054
  353loPI   C4B 5648   4.841   6.205   8.795  0.0483  0.0798  0.1486
  354loPI    C1 5649  13.328   7.051  11.332 -0.2267 -0.1404 -0.2010
  354loPI    C2 5650  13.015   6.836  11.456 -0.1971 -0.1418 -0.1275
  354loPI    C3 5651  12.990   7.235  11.441 -0.0471 -0.1102  0.3326
  354loPI   PO4 5652  13.410   6.996  11.018 -0.2092 -0.2588  0.1609
  354loPI   GL1 5653  13.476   6.654  10.722 -0.2952 -0.1521  0.0324
  354loPI   GL2 5654  13.478   6.758  10.452 -0.1171 -0.0524 -0.0628
  354loPI   C1A 5655  13.356   6.207  10.432  0.0565  0.2266 -0.0939
  354loPI   C2A 5656  13.291   6.194  10.027  0.2422 -0.0936  0.0862
  354loPI   C3A 5657  13.274   6.162   9.612 -0.0422  0.1059  0.1837
  354loPI   C4A 5658  13.289   6.185   9.250  0.1817  0.0282 -0.1651
  354loPI   C5A 5659  13.216   6.252   8.792  0.0770 -0.1635  0.0222
  354loPI   C6A 5660  13.068   6.404   8.382 -0.3179 -0.0537 -0.0782
  354loPI   C1B 5661  13.549   6.630  10.008  0.3255  0.3210 -0.0826
  354loPI   C2B 5662  13.506   6.642   9.579 -0.1484 -0.0183  0.1709
  354loPI   C3B 5663  13.510   6.614   9.206  0.1630 -0.3299  0.0963
  354loPI   C4B 5664  13.421   6.708   8.709 -0.0168  0.3430 -0.0669
  355loPI    C1 5665   5.427  10.801  11.384  0.2631  0.0917  0.1955
  355loPI    C2 5666   5.784  10.981  11.370  0.2995  0.0121  0.0842
  355loPI    C3 5667   5.633  10.863  11.721  0.3333  0.1428  0.1436
  355loPI   PO4 5668   5.479  10.581  11.159 -0.0082  0.0018 -0.2100
  355loPI   GL1 5669   5.342  10.385  10.800 -0.1883  0.0794  0.2834
  355loPI   GL2 5670   5.088  10.631  10.610  0.1927 -0.1505 -0.3495
  355loPI   C1A 5671   5.440  10.318  10.313 -0.1145  0.2694 -0.0141
  355loPI   C2A 5672   5.414  10.371   9.841  0.1669  0.1048 -0.1277
  355loPI   C3A 5673   5.323  10.400   9.462 -0.2862 -0.2503  0.1017
  355loPI   C4A 5674   5.199  10.222   8.977  0.0806 -0.2546 -0.1139
  355loPI   C5A 5675   5.182  10.151   8.535  0.3713 -0.0887  0.2914
  355loPI   C6A 5676   5.015  10.010   8.043  0.0430 -0.0303  0.0227
  355loPI   C1B 5677   5.095  10.762  10.173  0.0367 -0.1015 -0.0226
  355loPI   C2B 5678   5.014  10.777   9.725  0.0216  0.0316  0.2596
  355loPI   C3B 5679   4.964  10.724   9.407 -0.3218  0.1470 -0.3197
  355loPI   C4B 5680   4.881  10.638   8.940 -0.1912  0.1661 -0.1601
  356loPI    C1 5681  10.388   0.490  11.200  0.0281  0.1461  0.0309
  356loPI    C2 5682  10.311   0.149  11.395  0.0288 -0.0251 -0.2629
  356loPI    C3 5683  10.076   0.467  11.450 -0.1520 -0.1652 -0.2147
  356loPI   PO4 5684  10.502   0.360  10.963 -0.5354 -0.2117 -0.2291
  356loPI   GL1 5685  10.595   0.450  10.633  0.0581  0.0930  0.0594
  356loPI   GL2 5686  10.479   0.097  10.518 -0.0832 -0.3018  0.0199
  356loPI   C1A 5687  10.761   0.504  10.157 -0.0231 -0.0097 -0.0338
  356loPI   C2A 5688  10.742   0.468   9.784  0.2042 -0.1115 -0.1795
  356loPI   C3A 5689  10.832   0.407   9.334 -0.0064  0.1435  0.0959
  356loPI   C4A 5690  10.783   0.503   8.819  0.1387 -0.0509  0.0324
  356loPI   C5A 5691  10.692   0.373   8.432  0.3119  0.1494  0.0419
  356loPI   C6A 5692  10.362   0.351   8.132 -0.0575  0.0160  0.0262
  356loPI   C1B 5693  10.517   0.030  10.088 -0.2155  0.0722 -0.1293
  356loPI   C2B 5694  10.639  -0.001   9.620  0.1716 -0.4192 -0.0613
  356loPI   C3B 5695  10.543  -0.024   9.234 -0.0166 -0.3160 -0.1777
  356loPI   C4B 5696  10.453   0.036   8.836  0.0882 -0.4569 -0.1804
  357loPI    C1 5697   6.423   5.054  11.194  0.2732 -0.0417 -0.1398
  357loPI    C2 5698   6.543   4.733  11.401 -0.1976 -0.2149 -0.1228
  357loPI    C3 5699   6.349   5.029  11.586  0.0419 -0.0184 -0.1806
  357loPI   PO4 5700   6.435   4.981  10.974 -0.0375  0.0377  0.1429
  357loPI   GL1 5701   6.156   5.001  10.592 -0.2286  0.4571  0.1778
  357loPI   GL2 5702   6.435   5.104  10.518 -0.3516 -0.1723  0.0621
  357loPI   C1A 5703   5.928   4.935  10.186  0.1319  0.0779  0.0630
  357loPI   C2A 5704   5.947   4.972   9.818  0.0816 -0.2220  0.1220
  357loPI   C3A 5705   5.876   4.965   9.323  0.1065  0.0544  0.3196
  357loPI   C4A 5706   5.866   4.977   8.902  0.0908 -0.3040  0.2434
  357loPI   C5A 5707   5.657   4.871   8.553 -0.1053 -0.1943 -0.3042
  357loPI   C6A 5708   5.695   4.497   8.234 -0.0737  0.2436 -0.0277
  357loPI   C1B 5709   6.425   4.995  10.062  0.0602  0.1025 -0.0816
  357loPI   C2B 5710   6.386   5.013   9.592  0.1610 -0.0250  0.1785
  357loPI   C3B 5711   6.375   5.066   9.165 -0.1571 -0.0402  0.0529
  357loPI   C4B 5712   6.327   5.022   8.709  0.2820 -0.3768  0.1275
  358loPI    C1 5713   5.892   3.084  11.349 -0.2213 -0.0663 -0.3339
  358loPI    C2 5714   5.646   2.993  11.652 -0.0743 -0.1298 -0.2322
  358loPI    C3 5715   5.612   3.345  11.465 -0.0129  0.0097  0.0147
  358loPI   PO4 5716   5.908   2.901  11.087 -0.0662  0.1052 -0.3212
  358loPI   GL1 5717   5.885   2.887  10.665 -0.2437  0.1450 -0.0257
  358loPI   GL2 5718   6.056   3.179  10.421  0.0899  0.1745  0.0957
  358loPI   C1A 5719   5.741   2.686  10.363 -0.2191  0.0436  0.0667
  358loPI   C2A 5720   5.778   2.746   9.951 -0.0331 -0.0924  0.1312
  358loPI   C3A 5721   5.791   2.586   9.499 -0.0883  0.1008  0.2409
  358loPI   C4A 5722   5.833   2.651   9.089 -0.0715  0.1896  0.0383
  358loPI   C5A 5723   6.056   2.738   8.699  0.0388 -0.1184 -0.0498
  358loPI   C6A 5724   6.474   2.750   8.536 -0.0016  0.1116 -0.0165
  358loPI   C1B 5725   6.011   3.219   9.952  0.1336 -0.3039  0.0657
  358loPI   C2B 5726   5.968   3.076   9.588  0.1254 -0.0262 -0.1081
  358loPI   C3B 5727   5.998   3.155   9.178  0.0990 -0.0400 -0.2715
  358loPI   C4B 5728   6.167   3.193   8.727 -0.2769 -0.2364 -0.3169
  359loPI    C1 5729  13.901  10.014  10.651 -0.0464  0.2286 -0.0876
  359loPI    C2 5730  14.037  10.285  10.913 -0.0551  0.1707 -0.0228
  359loPI    C3 5731  13.787   9.997  11.034  0.0715  0.0441 -0.0599
  359loPI   PO4 5732  13.955  10.211  10.401 -0.1991  0.0997  0.1378
  359loPI   GL1 5733  14.274  10.146  10.162 -0.1959  0.1886  0.0268
  359loPI   GL2 5734  14.449   9.898   9.941  0.0550  0.3687  0.2655
  359loPI   C1A 5735  14.153  10.458   9.749  0.1248 -0.2613 -0.1569
  359loPI   C2A 5736  14.096  10.559   9.288 -0.0102 -0.0936 -0.0007
  359loPI   C3A 5737  14.054  10.386   8.889  0.0297  0.1254  0.1173
  359loPI   C4A 5738  14.162  10.389   8.497 -0.0569  0.0940  0.2064
  359loPI   C5A 5739  14.013  10.213   8.160 -0.1584 -0.0500  0.0839
  359loPI   C6A 5740  13.628   9.999   8.086 -0.2896  0.1036 -0.4624
  359loPI   C1B 5741  14.404  10.087   9.550  0.0589  0.1837  0.1328
  359loPI   C2B 5742  14.374  10.120   9.213  0.2002  0.0010 -0.2003
  359loPI   C3B 5743  14.368  10.007   8.761 -0.2236 -0.2129  0.1504
  359loPI   C4B 5744  14.362   9.943   8.356 -0.1613 -0.0178 -0.0132
  360loPI    C1 5745  15.426  11.159  10.834  0.0719  0.1638  0.0266
  360loPI    C2 5746  15.726  10.951  10.670 -0.0797  0.0579 -0.1196
  360loPI    C3 5747  15.606  10.869  11.043  0.0637  0.0919 -0.0655
  360loPI   PO4 5748  15.203  11.116  10.654  0.2093 -0.4259  0.0382
  360loPI   GL1 5749  15.171  10.901  10.261 -0.0408 -0.0604 -0.3090
  360loPI   GL2 5750  14.850  10.909  10.106  0.1055 -0.0592  0.1957
  360loPI   C1A 5751  15.392  10.987   9.788 -0.3025 -0.1819 -0.2109
  360loPI   C2A 5752  15.337  11.012   9.370  0.4016 -0.4498  0.0157
  360loPI   C3A 5753  15.360  10.942   8.981 -0.2993 -0.0625  0.0251
  360loPI   C4A 5754  15.338  10.888   8.628 -0.1231  0.0233 -0.2307
  360loPI   C5A 5755  15.292  10.612   8.284 -0.0230  0.1336  0.2625
  360loPI   C6A 5756  15.192  10.683   7.879 -0.2267  0.1111  0.2056
  360loPI   C1B 5757  14.928  11.028   9.659  0.0809  0.2095  0.0678
  360loPI   C2B 5758  14.888  10.948   9.181  0.0864 -0.0918 -0.0490
  360loPI   C3B 5759  14.801  10.863   8.706 -0.1517 -0.1854  0.2120
  360loPI   C4B 5760  14.883  10.813   8.305 -0.0174 -0.3521  0.0845
  361loPI    C1 5761  10.376   8.667  11.328  0.0162  0.0118 -0.0940
  361loPI    C2 5762   9.979   8.616  11.328  0.0543 -0.3056  0.0573
  361loPI    C3 5763  10.175   8.662  11.674  0.1194  0.1243 -0.0316
  361loPI   PO4 5764  10.472   8.570  11.149 -0.0024 -0.1120 -0.0743
  361loPI   GL1 5765  10.365   8.589  10.704 -0.0916 -0.1737  0.0853
  361loPI   GL2 5766  10.709   8.628  10.706  0.1522 -0.0956  0.1495
  361loPI   C1A 5767  10.415   8.527  10.147  0.0425 -0.3507  0.0380
  361loPI   C2A 5768  10.446   8.571   9.754  0.0522  0.1786  0.1102
  361loPI   C3A 5769  10.338   8.528   9.335  0.1018  0.0964  0.2291
  361loPI   C4A 5770  10.377   8.669   8.859 -0.3848 -0.1376  0.0163
  361loPI   C5A 5771  10.685   8.550   8.509 -0.0453 -0.0797  0.0711
  361loPI   C6A 5772  10.808   8.362   8.122  0.1222  0.0615  0.1599
  361loPI   C1B 5773  10.923   8.609  10.257  0.3176 -0.3012  0.0433
  361loPI   C2B 5774  10.892   8.653   9.750 -0.1540  0.0480 -0.0950
  361loPI   C3B 5775  10.901   8.669   9.291 -0.0528  0.0018 -0.0706
  361loPI   C4B 5776  10.938   8.862   8.890 -0.2436  0.1137 -0.0413
  362loPI    C1 5777   6.016  13.913  11.579  0.2007 -0.2311 -0.1136
  362loPI    C2 5778   5.971  13.562  11.766 -0.2243 -0.0668  0.1034
  362loPI    C3 5779   5.970  13.903  11.976 -0.1113  0.0847 -0.1375
  362loPI   PO4 5780   5.826  13.919  11.315 -0.2882  0.2819 -0.0106
  362loPI   GL1 5781   5.932  13.764  10.890  0.0186  0.2246  0.3571
  362loPI   GL2 5782   5.804  14.073  10.734 -0.1303 -0.0110 -0.0170
  362loPI   C1A 5783   6.134  13.734  10.512 -0.1416 -0.1150  0.3630
  362loPI   C2A 5784   6.265  13.649  10.030  0.1648 -0.0587 -0.1749
  362loPI   C3A 5785   6.278  13.594   9.565  0.2882 -0.1255  0.0414
  362loPI   C4A 5786   6.277  13.560   9.166 -0.2924 -0.0829  0.0041
  362loPI   C5A 5787   6.245  13.593   8.756  0.2003 -0.1035  0.1068
  362loPI   C6A 5788   6.361  13.709   8.312 -0.0915  0.2602 -0.1245
  362loPI   C1B 5789   5.889  14.059  10.238 -0.0113  0.0387  0.4301
  362loPI   C2B 5790   5.959  14.075   9.841 -0.0900  0.2595 -0.0879
  362loPI   C3B 5791   5.941  13.990   9.464 -0.1046  0.2485 -0.0055
  362loPI   C4B 5792   6.046  14.009   9.074 -0.0856  0.3883  0.2440
  363loPI    C1 5793  13.459   2.101  11.139  0.1702  0.0445 -0.1004
  363loPI    C2 5794  13.390   2.492  11.086  0.1980  0.0905  0.1867
  363loPI    C3 5795  13.199   2.292  11.376  0.1776 -0.1120  0.0357
  363loPI   PO4 5796  13.524   2.050  10.882  0.0465 -0.0950 -0.1249
  363loPI   GL1 5797  13.385   2.206  10.572 -0.0499  0.1088 -0.1535
  363loPI   GL2 5798  13.193   2.427  10.593  0.0696  0.0084 -0.0264
  363loPI   C1A 5799  13.496   2.153  10.165 -0.0236 -0.3950 -0.3474
  363loPI   C2A 5800  13.527   2.120   9.770  0.3617 -0.1400 -0.2043
  363loPI   C3A 5801  13.477   1.994   9.399  0.1384  0.1023 -0.2549
  363loPI   C4A 5802  13.480   2.105   8.871  0.2524 -0.0497  0.0284
  363loPI   C5A 5803  13.111   2.182   8.540  0.1031  0.1097 -0.0874
  363loPI   C6A 5804  12.812   1.955   8.232  0.0816 -0.1030  0.3710
  363loPI   C1B 5805  13.073   2.470  10.241  0.0850 -0.2603  0.0840
  363loPI   C2B 5806  13.204   2.506   9.895 -0.1837 -0.2642 -0.1848
  363loPI   C3B 5807  13.182   2.346   9.527  0.2143  0.1405 -0.1544
  363loPI   C4B 5808  13.155   2.530   9.178 -0.0246 -0.0334 -0.1396
  364loPI    C1 5809  12.168   4.634  11.305 -0.1185  0.2076 -0.2432
  364loPI    C2 5810  11.861   4.677  11.557 -0.0425 -0.0042 -0.1121
  364loPI    C3 5811  12.199   4.505  11.682 -0.0632 -0.2640 -0.4028
  364loPI   PO4 5812  12.162   4.833  11.089 -0.0323 -0.1490  0.2624
  364loPI   GL1 5813  12.559   4.907  10.794 -0.0503 -0.2995  0.1713
  364loPI   GL2 5814  12.827   4.708  10.694  0.3024 -0.1789 -0.0685
  364loPI   C1A 5815  12.241   4.849  10.431 -0.2305  0.1939 -0.1659
  364loPI   C2A 5816  12.155   4.678  10.067 -0.1336 -0.2529 -0.1251
  364loPI   C3A 5817  12.100   4.661   9.691  0.0873  0.1450 -0.0895
  364loPI   C4A 5818  12.046   4.542   9.330 -0.1185 -0.4390 -0.0554
  364loPI   C5A 5819  12.055   4.734   8.945  0.1682  0.2684 -0.1228
  364loPI   C6A 5820  12.351   4.807   8.572 -0.0058 -0.1757  0.1161
  364loPI   C1B 5821  12.747   4.822  10.328  0.0490  0.0847 -0.1020
  364loPI   C2B 5822  12.632   4.768   9.967  0.1709 -0.3487  0.2061
  364loPI   C3B 5823  12.683   4.713   9.546  0.0074 -0.0452 -0.2408
  364loPI   C4B 5824  12.526   4.747   9.172  0.3077  0.0505 -0.0681
  365loPI    C1 5825  13.709  10.816  10.802  0.0187 -0.0158  0.1452
  365loPI    C2 5826  13.674  10.552  11.101  0.0944  0.0435  0.2070
  365loPI    C3 5827  13.714  10.942  11.182 -0.1395  0.0891  0.1134
  365loPI   PO4 5828  13.879  10.689  10.595  0.0995 -0.1328 -0.0409
  365loPI   GL1 5829  13.839  10.607  10.125  0.0075  0.0282 -0.1648
  365loPI   GL2 5830  13.682  10.390  10.010  0.0363 -0.1442  0.0995
  365loPI   C1A 5831  13.887  10.862   9.747 -0.0970  0.0313 -0.3462
  365loPI   C2A 5832  13.795  10.953   9.351 -0.0747 -0.0905 -0.0522
  365loPI   C3A 5833  13.850  10.827   8.918 -0.1469 -0.2455  0.3792
  365loPI   C4A 5834  13.762  10.799   8.503  0.2019 -0.0991  0.0794
  365loPI   C5A 5835  13.573  11.054   8.294  0.3487  0.2441  0.0624
  365loPI   C6A 5836  13.621  11.310   8.015 -0.2818 -0.1079  0.1049
  365loPI   C1B 5837  13.661  10.463   9.579  0.2364  0.2797 -0.2094
  365loPI   C2B 5838  13.588  10.407   9.166 -0.1128 -0.0601 -0.1510
  365loPI   C3B 5839  13.543  10.359   8.772  0.2204  0.1183  0.0509
  365loPI   C4B 5840  13.487  10.429   8.340  0.1206  0.1042 -0.0232
  366loPI    C1 5841  10.168  16.311  11.241 -0.0455 -0.0670  0.1732
  366loPI    C2 5842  10.065  16.603  11.494  0.0766  0.0552  0.0832
  366loPI    C3 5843  10.106  16.228  11.627 -0.1343  0.0682  0.1885
  366loPI   PO4 5844  10.138  16.465  11.010 -0.0205 -0.0905  0.0095
  366loPI   GL1 5845  10.352  16.831  10.750 -0.3602 -0.0774  0.2433
  366loPI   GL2 5846  10.018  16.892  10.570  0.2609  0.1667  0.2081
  366loPI   C1A 5847  10.563  16.905  10.281  0.1693 -0.1405  0.0232
  366loPI   C2A 5848  10.597  16.876   9.951  0.0538  0.0105 -0.0290
  366loPI   C3A 5849  10.645  16.790   9.550 -0.4774 -0.2136  0.0521
  366loPI   C4A 5850  10.730  16.849   9.116 -0.2294 -0.2750  0.1534
  366loPI   C5A 5851  10.629  16.755   8.689  0.1647 -0.0786  0.0136
  366loPI   C6A 5852  10.476  16.919   8.317  0.2190 -0.3035 -0.2988
  366loPI   C1B 5853  10.068  16.779  10.133 -0.0569  0.0746 -0.2217
  366loPI   C2B 5854  10.099  16.794   9.717 -0.2395  0.0928  0.0569
  366loPI   C3B 5855  10.107  16.788   9.359 -0.0710  0.2399  0.0866
  366loPI   C4B 5856  10.166  16.704   8.959 -0.0301  0.0997  0.1185
  367loPI    C1 5857   7.328   9.311  11.547  0.0077 -0.0816  0.0472
  367loPI    C2 5858   6.971   9.384  11.713 -0.0315 -0.1640 -0.0005
  367loPI    C3 5859   7.269   9.236  11.935  0.0679  0.1945  0.1120
  367loPI   PO4 5860   7.237   9.144  11.349  0.0057 -0.0313  0.0914
  367loPI   GL1 5861   7.284   9.133  10.953  0.1786  0.2379 -0.0949
  367loPI   GL2 5862   7.505   9.289  10.884  0.0159 -0.2095 -0.2128
  367loPI   C1A 5863   7.238   9.118  10.437 -0.0204 -0.2032  0.0697
  367loPI   C2A 5864   7.340   9.099   9.968 -0.0995  0.0189 -0.1791
  367loPI   C3A 5865   7.234   9.139   9.541 -0.2506 -0.1270  0.0168
  367loPI   C4A 5866   7.214   9.172   9.061 -0.1625  0.0480  0.2370
  367loPI   C5A 5867   7.205   9.182   8.701  0.0306 -0.2644  0.0986
  367loPI   C6A 5868   7.231   9.437   8.273  0.1585 -0.0480 -0.2000
  367loPI   C1B 5869   7.804   9.186  10.510  0.1437  0.3506  0.5061
  367loPI   C2B 5870   7.846   9.199  10.001 -0.0226  0.2987 -0.2730
  367loPI   C3B 5871   7.736   9.206   9.568 -0.4103  0.2257  0.1059
  367loPI   C4B 5872   7.689   9.226   9.146  0.0041  0.0325 -0.1412
  368loPI    C1 5873   5.228  16.287  11.066 -0.1303  0.1383 -0.1108
  368loPI    C2 5874   4.976  16.571  11.193 -0.1602  0.0593  0.0076
  368loPI    C3 5875   5.311  16.495  11.397 -0.2595 -0.1394  0.0998
  368loPI   PO4 5876   5.228  16.349  10.815 -0.0173 -0.1671 -0.1388
  368loPI   GL1 5877   5.108  16.003  10.518  0.2545  0.0448  0.0586
  368loPI   GL2 5878   4.915  16.202  10.337 -0.0764 -0.0501  0.0513
  368loPI   C1A 5879   5.206  15.772  10.099  0.1009  0.3557 -0.4622
  368loPI   C2A 5880   5.290  15.658   9.677  0.3717 -0.1696 -0.1169
  368loPI   C3A 5881   5.255  15.734   9.205  0.0834 -0.0281 -0.0039
  368loPI   C4A 5882   5.247  15.829   8.753  0.1619  0.0425  0.0566
  368loPI   C5A 5883   4.974  15.987   8.392  0.0949  0.0731  0.1334
  368loPI   C6A 5884   5.081  16.352   8.127  0.1029 -0.0723 -0.0800
  368loPI   C1B 5885   4.913  16.131   9.915  0.2196  0.0926 -0.1617
  368loPI   C2B 5886   4.910  16.045   9.546 -0.0218  0.1864  0.4029
  368loPI   C3B 5887   4.869  16.230   9.177  0.0781 -0.1175 -0.0193
  368loPI   C4B 5888   4.959  16.313   8.735  0.3181 -0.2716 -0.0384
  369loPI    C1 5889  12.447  13.912  11.392  0.1955 -0.1534 -0.1105
  369loPI    C2 5890  12.622  14.005  11.739  0.1592  0.0535 -0.1466
  369loPI    C3 5891  12.261  13.834  11.737  0.0288  0.3238 -0.0867
  369loPI   PO4 5892  12.655  14.005  11.241  0.1485  0.2786  0.1735
  369loPI   GL1 5893  12.671  14.079  10.890 -0.1412  0.0672 -0.0722
  369loPI   GL2 5894  12.766  14.262  10.554 -0.3005  0.3237  0.2439
  369loPI   C1A 5895  12.310  13.905  10.596  0.1468  0.1067  0.0527
  369loPI   C2A 5896  12.179  13.824  10.144  0.2607 -0.1048 -0.1351
  369loPI   C3A 5897  12.275  13.694   9.735 -0.3153  0.0604 -0.1530
  369loPI   C4A 5898  12.308  13.741   9.340  0.0669 -0.2304 -0.3134
  369loPI   C5A 5899  12.117  13.790   8.891  0.0257  0.0743  0.2685
  369loPI   C6A 5900  11.739  13.772   8.757 -0.0715 -0.1022 -0.2090
  369loPI   C1B 5901  12.854  14.355  10.055 -0.1251 -0.0880  0.0146
  369loPI   C2B 5902  12.865  14.295   9.560 -0.0948 -0.0512  0.1068
  369loPI   C3B 5903  12.918  14.283   9.102 -0.2084 -0.0324 -0.2865
  369loPI   C4B 5904  12.891  14.265   8.680  0.4599  0.0055  0.1562
  370loPI    C1 5905  12.743  10.425  11.135 -0.0925  0.0483  0.1894
  370loPI    C2 5906  12.822  10.803  11.239 -0.0265  0.0826  0.0160
  370loPI    C3 5907  12.613  10.568  11.486  0.1609  0.1509  0.2433
  370loPI   PO4 5908  12.689  10.449  10.920 -0.2055 -0.0309  0.0047
  370loPI   GL1 5909  12.851  10.505  10.447 -0.0358  0.1530  0.1433
  370loPI   GL2 5910  13.075  10.404  10.429 -0.0840  0.2725 -0.0369
  370loPI   C1A 5911  12.826  10.806  10.116 -0.2870  0.1147 -0.3397
  370loPI   C2A 5912  12.803  10.805   9.609  0.0821 -0.2349  0.0001
  370loPI   C3A 5913  12.746  10.671   9.252  0.3280  0.1464 -0.0634
  370loPI   C4A 5914  12.732  10.698   8.791  0.4493  0.0765 -0.2295
  370loPI   C5A 5915  12.798  10.593   8.396  0.3030  0.0153 -0.4768
  370loPI   C6A 5916  13.005  10.270   8.211 -0.2663 -0.1405  0.0707
  370loPI   C1B 5917  13.149  10.275  10.099  0.4209 -0.0650  0.1266
  370loPI   C2B 5918  13.130  10.304   9.658  0.3619  0.1063 -0.1317
  370loPI   C3B 5919  13.089  10.306   9.211 -0.0117 -0.4783 -0.0588
  370loPI   C4B 5920  13.055  10.294   8.758 -0.1302 -0.3177  0.0463
  371loPI    C1 5921  11.484   0.047  11.561  0.2581  0.0479 -0.0566
  371loPI    C2 5922  11.747  -0.107  11.819  0.2054  0.1104  0.0352
  371loPI    C3 5923  11.364  -0.221  11.832  0.1474  0.3138  0.1623
  371loPI   PO4 5924  11.681   0.046  11.283 -0.0651 -0.0885  0.1327
  371loPI   GL1 5925  11.533   0.256  10.937  0.0299 -0.2560 -0.1390
  371loPI   GL2 5926  11.800   0.185  10.771  0.4061 -0.1259  0.0433
  371loPI   C1A 5927  11.529   0.568  10.597  0.1727 -0.3016 -0.1718
  371loPI   C2A 5928  11.786   0.532  10.210  0.2688  0.4255  0.1551
  371loPI   C3A 5929  11.842   0.576   9.861  0.1425  0.1509 -0.2090
  371loPI   C4A 5930  11.783   0.489   9.342  0.0049 -0.1622  0.0888
  371loPI   C5A 5931  11.752   0.530   8.962  0.0158  0.3619  0.1158
  371loPI   C6A 5932  11.708   0.346   8.588  0.1788  0.1590  0.2054
  371loPI   C1B 5933  12.134   0.221  10.417  0.0800 -0.0352  0.2507
  371loPI   C2B 5934  12.146   0.185   9.919 -0.1010  0.1757 -0.0090
  371loPI   C3B 5935  12.067   0.058   9.584 -0.1234  0.1573 -0.4475
  371loPI   C4B 5936  12.037   0.016   9.201  0.2291 -0.0267  0.0549
  372loPI    C1 5937   8.174  12.912  11.260  0.0834 -0.0785  0.0807
  372loPI    C2 5938   7.947  13.237  11.312  0.1534 -0.0314  0.0917
  372loPI    C3 5939   7.791  12.874  11.370  0.0795  0.0007  0.0948
  372loPI   PO4 5940   8.280  12.904  10.982 -0.0800 -0.1814  0.3110
  372loPI   GL1 5941   8.294  13.097  10.580  0.1161 -0.3403  0.0951
  372loPI   GL2 5942   8.444  12.835  10.289  0.3882 -0.0792  0.2372
  372loPI   C1A 5943   8.137  13.268  10.156 -0.2083  0.1865 -0.0699
  372loPI   C2A 5944   8.079  13.318   9.662  0.0753 -0.1751  0.3866
  372loPI   C3A 5945   8.035  13.317   9.109 -0.1579  0.0243  0.3238
  372loPI   C4A 5946   7.968  13.460   8.620 -0.2115 -0.1202 -0.0376
  372loPI   C5A 5947   8.024  13.413   8.205 -0.2332  0.2064 -0.4024
  372loPI   C6A 5948   8.417  13.228   8.050  0.1200  0.2305  0.0081
  372loPI   C1B 5949   8.478  12.908   9.876  0.0586  0.1035 -0.0745
  372loPI   C2B 5950   8.426  12.863   9.351  0.0680  0.0375  0.0198
  372loPI   C3B 5951   8.291  12.875   8.955 -0.1954  0.0528 -0.1234
  372loPI   C4B 5952   8.341  13.009   8.543 -0.0870 -0.0800  0.0847
  373loPI    C1 5953   5.891  14.769  11.300  0.2947  0.1660  0.1302
  373loPI    C2 5954   5.512  14.783  11.428  0.2028 -0.1769 -0.0918
  373loPI    C3 5955   5.808  14.914  11.663 -0.0402 -0.0209  0.1322
  373loPI   PO4 5956   5.808  14.832  10.977 -0.2403 -0.3112 -0.0851
  373loPI   GL1 5957   5.850  14.606  10.676  0.2184  0.2640  0.0991
  373loPI   GL2 5958   5.594  14.517  10.679 -0.2495 -0.1290 -0.0949
  373loPI   C1A 5959   5.840  14.920  10.360  0.1999 -0.0968 -0.3334
  373loPI   C2A 5960   5.874  14.899   9.907  0.0210 -0.2397 -0.0553
  373loPI   C3A 5961   5.880  14.894   9.493  0.0556 -0.2021  0.0921
  373loPI   C4A 5962   5.800  14.897   9.108  0.0950  0.1407 -0.0846
  373loPI   C5A 5963   5.713  14.884   8.706  0.2172  0.1758 -0.2959
  373loPI   C6A 5964   5.656  15.054   8.366 -0.0395  0.1037  0.3631
  373loPI   C1B 5965   5.642  14.453  10.276 -0.1197  0.0118  0.1469
  373loPI   C2B 5966   5.669  14.425   9.707 -0.0770 -0.1169  0.1886
  373loPI   C3B 5967   5.674  14.433   9.286  0.1375 -0.1074  0.1166
  373loPI   C4B 5968   5.611  14.352   8.902  0.1396  0.2158 -0.1578
  374loPI    C1 5969  11.665  15.259  11.178  0.0591 -0.1561 -0.0031
  374loPI    C2 5970  11.394  15.150  11.451  0.1412  0.0032  0.1437
  374loPI    C3 5971  11.762  14.993  11.460  0.0441 -0.2453 -0.0813
  374loPI   PO4 5972  11.555  15.232  10.985  0.1873 -0.0224 -0.0202
  374loPI   GL1 5973  11.294  15.022  10.664  0.1305  0.2628  0.0957
  374loPI   GL2 5974  11.504  14.931  10.563  0.1411  0.1586 -0.0167
  374loPI   C1A 5975  11.312  15.058  10.132  0.1153 -0.2668 -0.2756
  374loPI   C2A 5976  11.325  15.091   9.641  0.0315  0.0769  0.3398
  374loPI   C3A 5977  11.298  14.963   9.216 -0.0627 -0.0493  0.1294
  374loPI   C4A 5978  11.379  15.070   8.749 -0.2934 -0.1699  0.0736
  374loPI   C5A 5979  11.397  15.239   8.301  0.0141  0.0898  0.1712
  374loPI   C6A 5980  11.642  15.339   7.901  0.1865  0.1626 -0.1020
  374loPI   C1B 5981  11.633  14.651  10.219  0.2233 -0.1080 -0.0656
  374loPI   C2B 5982  11.616  14.676   9.677 -0.0918 -0.1123  0.0392
  374loPI   C3B 5983  11.679  14.590   9.307  0.1232  0.0869  0.2173
  374loPI   C4B 5984  11.569  14.583   8.892 -0.0577 -0.0003  0.2371
  375loPI    C1 5985   9.199   4.409  11.237 -0.1130  0.0471 -0.2136
  375loPI    C2 5986   9.185   4.106  11.498 -0.1346 -0.0221 -0.2948
  375loPI    C3 5987   9.164   4.483  11.629 -0.2339 -0.0589 -0.2035
  375loPI   PO4 5988   9.384   4.323  11.055 -0.0543  0.1338  0.0497
  375loPI   GL1 5989   9.475   4.224  10.712 -0.0765 -0.2228 -0.1916
  375loPI   GL2 5990   9.328   3.988  10.566  0.2626 -0.0989  0.3163
  375loPI   C1A 5991   9.641   4.365  10.245  0.0098 -0.1863 -0.2747
  375loPI   C2A 5992   9.522   4.415   9.815 -0.1832  0.0141  0.3394
  375loPI   C3A 5993   9.633   4.437   9.392  0.1485  0.2823 -0.1520
  375loPI   C4A 5994   9.649   4.539   8.994  0.1039 -0.0580 -0.0739
  375loPI   C5A 5995   9.604   4.898   8.762  0.0786  0.2286  0.0051
  375loPI   C6A 5996   9.348   5.292   8.698  0.1782 -0.0018  0.0097
  375loPI   C1B 5997   9.315   3.971  10.113 -0.1700  0.0520  0.1172
  375loPI   C2B 5998   9.343   3.916   9.707  0.1677 -0.1778  0.1861
  375loPI   C3B 5999   9.390   4.004   9.312  0.2608 -0.0700 -0.2492
  375loPI   C4B 6000   9.331   4.058   8.821 -0.0285  0.1620 -0.1952
  376loPI    C1 6001   6.768   6.080  11.046  0.0259  0.2667  0.0322
  376loPI    C2 6002   6.408   5.950  11.163  0.0258  0.0142 -0.2376
  376loPI    C3 6003   6.665   6.097  11.432 -0.3370  0.3493 -0.0645
  376loPI   PO4 6004   6.755   5.896  10.844 -0.1128  0.1002  0.0868
  376loPI   GL1 6005   6.731   5.903  10.454 -0.1020  0.1386 -0.1158
  376loPI   GL2 6006   6.527   5.785  10.415 -0.1804  0.0795  0.0672
  376loPI   C1A 6007   6.849   5.971   9.994  0.3334 -0.0717  0.0141
  376loPI   C2A 6008   6.810   5.946   9.466 -0.2208 -0.3349 -0.0467
  376loPI   C3A 6009   6.788   6.044   9.030 -0.1481  0.0354  0.1795
  376loPI   C4A 6010   6.861   5.885   8.624 -0.0413 -0.0004 -0.3720
  376loPI   C5A 6011   6.704   5.952   8.315 -0.3324  0.1890 -0.0768
  376loPI   C6A 6012   6.646   5.706   7.937 -0.0847 -0.0694  0.3464
  376loPI   C1B 6013   6.553   5.555  10.052 -0.0943  0.0972 -0.1674
  376loPI   C2B 6014   6.598   5.481   9.644 -0.1057  0.1869  0.0213
  376loPI   C3B 6015   6.633   5.473   9.271  0.1419  0.0473  0.2100
  376loPI   C4B 6016   6.617   5.515   8.914 -0.2370  0.1765  0.0390
  377loPI    C1 6017   9.609  14.767  11.270  0.2121 -0.2585  0.0803
  377loPI    C2 6018   9.900  14.880  11.520 -0.0820  0.0101  0.3105
  377loPI    C3 6019   9.599  14.652  11.653 -0.1527  0.0134  0.1585
  377loPI   PO4 6020   9.718  14.803  10.993 -0.1246 -0.0405  0.3671
  377loPI   GL1 6021   9.900  14.915  10.591  0.0026 -0.2918 -0.2262
  377loPI   GL2 6022   9.683  15.105  10.559  0.2352 -0.1029  0.1629
  377loPI   C1A 6023  10.259  14.816  10.376  0.1276  0.1266  0.1007
  377loPI   C2A 6024  10.242  14.961   9.912  0.3499  0.0990 -0.0308
  377loPI   C3A 6025  10.268  14.961   9.544  0.2252 -0.0974 -0.1288
  377loPI   C4A 6026  10.242  14.897   9.165 -0.0881  0.0142 -0.0198
  377loPI   C5A 6027  10.321  14.676   8.754  0.2060  0.1388  0.0699
  377loPI   C6A 6028  10.518  14.800   8.388 -0.1570 -0.0304 -0.1774
  377loPI   C1B 6029   9.696  14.848  10.106  0.0272 -0.1539 -0.4761
  377loPI   C2B 6030   9.707  14.896   9.655  0.1129 -0.1327  0.0903
  377loPI   C3B 6031   9.749  14.796   9.301  0.1847 -0.0171  0.0012
  377loPI   C4B 6032   9.745  14.740   8.865  0.2628  0.0186  0.2068
  378loPI    C1 6033   2.455  11.641  11.285 -0.2984  0.0494  0.1155
  378loPI    C2 6034   2.205  11.655  11.597 -0.0300 -0.0020  0.3372
  378loPI    C3 6035   2.567  11.490  11.639  0.0249  0.0293  0.0076
  378loPI   PO4 6036   2.235  11.746  10.980 -0.0237  0.0222 -0.0604
  378loPI   GL1 6037   1.929  11.629  10.693 -0.2881 -0.0064 -0.1004
  378loPI   GL2 6038   1.689  11.463  10.687  0.3487  0.1022 -0.0031
  378loPI   C1A 6039   1.942  11.935  10.415  0.1926  0.1901  0.1499
  378loPI   C2A 6040   1.889  11.903  10.051 -0.0217 -0.2741  0.1887
  378loPI   C3A 6041   1.947  11.794   9.644 -0.0405 -0.3209 -0.1720
  378loPI   C4A 6042   1.924  11.974   9.186  0.0549  0.0690  0.0254
  378loPI   C5A 6043   1.952  11.986   8.780 -0.0098 -0.5104  0.1289
  378loPI   C6A 6044   2.039  12.258   8.460 -0.0503  0.0886 -0.0266
  378loPI   C1B 6045   1.713  11.491  10.254  0.2020  0.0016 -0.1316
  378loPI   C2B 6046   1.742  11.383   9.876 -0.3664 -0.1344 -0.1987
  378loPI   C3B 6047   1.747  11.307   9.515  0.3257 -0.0804 -0.0197
  378loPI   C4B 6048   1.769  11.522   9.083 -0.3807  0.1834  0.1135
  379loPI    C1 6049  13.808  15.970  11.298  0.0786 -0.0633 -0.0830
  379loPI    C2 6050  14.139  16.119  11.465  0.1410 -0.2433 -0.0441
  379loPI    C3 6051  13.781  16.264  11.568  0.2223  0.1542 -0.3009
  379loPI   PO4 6052  13.835  15.936  11.002  0.0697  0.3887  0.1850
  379loPI   GL1 6053  13.781  16.024  10.617 -0.1367 -0.0416 -0.2167
  379loPI   GL2 6054  13.669  16.228  10.535  0.2641 -0.2656 -0.1727
  379loPI   C1A 6055  13.591  15.753  10.261  0.1548  0.0743 -0.1295
  379loPI   C2A 6056  13.624  15.658   9.880  0.1168 -0.1504  0.2918
  379loPI   C3A 6057  13.549  15.606   9.406  0.2972 -0.1774 -0.0376
  379loPI   C4A 6058  13.560  15.760   9.152  0.0216  0.2047  0.2371
  379loPI   C5A 6059  13.556  15.737   8.737 -0.2623  0.0254  0.6353
  379loPI   C6A 6060  13.527  16.022   8.482 -0.2599 -0.0250  0.2151
  379loPI   C1B 6061  13.838  16.181  10.119 -0.1323  0.1580  0.0692
  379loPI   C2B 6062  13.866  16.168   9.701 -0.0722 -0.0838  0.0061
  379loPI   C3B 6063  13.721  16.198   9.304  0.0098 -0.1172 -0.2234
  379loPI   C4B 6064  13.729  16.250   8.888  0.0451  0.2173  0.2685
  380loPI    C1 6065   2.981   7.942  10.896 -0.0981  0.1104  0.1245
  380loPI    C2 6066   3.243   8.233  10.977 -0.0717  0.0585  0.2266
  380loPI    C3 6067   3.124   7.984  11.267 -0.0700 -0.0522  0.1330
  380loPI   PO4 6068   2.815   8.057  10.671 -0.0103 -0.1010 -0.1137
  380loPI   GL1 6069   2.915   7.888  10.188  0.0298 -0.0021  0.1259
  380loPI   GL2 6070   2.746   7.670  10.352  0.0714  0.1019  0.1506
  380loPI   C1A 6071   2.776   7.857   9.711 -0.1887 -0.3292  0.0119
  380loPI   C2A 6072   2.739   7.771   9.292  0.0936  0.1420  0.0585
  380loPI   C3A 6073   2.638   7.792   8.886  0.0827 -0.3036  0.0717
  380loPI   C4A 6074   2.631   7.651   8.439 -0.0180  0.1797 -0.1788
  380loPI   C5A 6075   2.737   7.242   8.184 -0.2703  0.0990 -0.1423
  380loPI   C6A 6076   3.029   6.930   8.057  0.0583 -0.0123 -0.4124
  380loPI   C1B 6077   2.605   7.432   9.950 -0.2707 -0.0102  0.1228
  380loPI   C2B 6078   2.547   7.376   9.530  0.0234  0.1733 -0.2050
  380loPI   C3B 6079   2.517   7.354   9.094  0.3473 -0.3963 -0.2376
  380loPI   C4B 6080   2.308   7.343   8.688 -0.0191  0.1822  0.0534
  381loPI    C1 6081   4.898  12.004  11.135 -0.1136 -0.0885  0.0569
  381loPI    C2 6082   5.257  11.830  11.103 -0.0683 -0.0024  0.0954
  381loPI    C3 6083   5.197  12.118  11.375 -0.0506  0.2729 -0.1854
  381loPI   PO4 6084   4.816  12.033  10.803 -0.1294 -0.0772 -0.0807
  381loPI   GL1 6085   4.766  11.967  10.384 -0.0185 -0.1378 -0.1661
  381loPI   GL2 6086   4.818  11.627  10.522  0.0124  0.0662  0.3130
  381loPI   C1A 6087   4.663  12.046   9.939 -0.3262  0.1222 -0.1827
  381loPI   C2A 6088   4.639  12.034   9.401 -0.0606  0.2931 -0.0773
  381loPI   C3A 6089   4.603  12.127   8.957  0.0252  0.0171  0.3642
  381loPI   C4A 6090   4.661  12.092   8.481  0.3730 -0.2517 -0.0705
  381loPI   C5A 6091   4.733  11.824   8.150 -0.1229  0.1475  0.2326
  381loPI   C6A 6092   5.018  11.898   7.836 -0.2682  0.1917 -0.0075
  381loPI   C1B 6093   4.968  11.657  10.031  0.0165  0.1553  0.0557
  381loPI   C2B 6094   4.845  11.647   9.610 -0.1483 -0.1139  0.0142
  381loPI   C3B 6095   4.849  11.691   9.120  0.1957  0.0415  0.0682
  381loPI   C4B 6096   4.796  11.674   8.681  0.2354 -0.1610  0.2295
  382loPI    C1 6097   0.062  11.275  11.313 -0.1301  0.0639 -0.1087
  382loPI    C2 6098   0.078  11.645  11.464 -0.0967  0.0597 -0.1022
  382loPI    C3 6099  -0.243  11.415  11.532  0.0051 -0.0163  0.1348
  382loPI   PO4 6100   0.092  11.234  11.047 -0.1952 -0.3466 -0.0344
  382loPI   GL1 6101   0.329  11.035  10.697  0.0576  0.1867 -0.1516
  382loPI   GL2 6102   0.618  11.107  10.742  0.1037  0.1923  0.1077
  382loPI   C1A 6103   0.156  11.206  10.309 -0.2103 -0.0697 -0.0530
  382loPI   C2A 6104   0.112  11.257   9.847  0.0390  0.0210  0.2642
  382loPI   C3A 6105   0.178  11.277   9.419 -0.2751  0.0662  0.2120
  382loPI   C4A 6106   0.215  11.308   8.918  0.1971 -0.3087  0.2225
  382loPI   C5A 6107   0.333  11.585   8.536 -0.0398  0.0446 -0.3982
  382loPI   C6A 6108   0.573  11.919   8.263 -0.0993  0.1465  0.0619
  382loPI   C1B 6109   0.707  11.328  10.333  0.0613 -0.0510 -0.0391
  382loPI   C2B 6110   0.678  11.336   9.914  0.1632  0.1042  0.1735
  382loPI   C3B 6111   0.681  11.275   9.488  0.2304  0.6779  0.0779
  382loPI   C4B 6112   0.664  11.421   9.181  0.0593  0.1724 -0.1497
  383loPI    C1 6113   9.282   9.168  11.634  0.2284  0.1242  0.0845
  383loPI    C2 6114   9.247   8.770  11.647 -0.0207  0.1385 -0.0698
  383loPI    C3 6115   9.218   8.985  11.983 -0.0501  0.0392 -0.0085
  383loPI   PO4 6116   9.129   9.226  11.366 -0.0208  0.0864 -0.4169
  383loPI   GL1 6117   9.113   9.376  10.974  0.3646 -0.2391  0.1480
  383loPI   GL2 6118   9.245   9.066  10.871 -0.3278  0.2094  0.0198
  383loPI   C1A 6119   8.877   9.334  10.652 -0.0280  0.0148  0.0110
  383loPI   C2A 6120   8.855   9.268  10.220 -0.2875 -0.3390 -0.2043
  383loPI   C3A 6121   8.890   9.268   9.861  0.0589  0.1429 -0.1306
  383loPI   C4A 6122   8.809   9.332   9.459  0.0685 -0.2202 -0.1315
  383loPI   C5A 6123   8.741   9.290   9.054  0.1438  0.0184 -0.1121
  383loPI   C6A 6124   8.678   9.251   8.622 -0.1811 -0.1986  0.3269
  383loPI   C1B 6125   9.099   8.858  10.531  0.1186 -0.1367  0.5466
  383loPI   C2B 6126   9.080   8.820  10.063 -0.0701  0.1898  0.0591
  383loPI   C3B 6127   9.125   8.865   9.706 -0.1657 -0.4195  0.0181
  383loPI   C4B 6128   9.072   8.976   9.331 -0.0573  0.0564  0.1518
  384loPI    C1 6129   9.699   6.033  11.521  0.1253 -0.0072 -0.1661
  384loPI    C2 6130   9.801   5.672  11.385  0.0820 -0.0262 -0.1484
  384loPI    C3 6131   9.761   5.733  11.778  0.0330 -0.0169 -0.1549
  384loPI   PO4 6132   9.596   6.181  11.131 -0.1819  0.1307  0.1887
  384loPI   GL1 6133   9.634   5.987  10.851  0.1099  0.2215  0.1284
  384loPI   GL2 6134   9.786   5.882  10.648 -0.0703 -0.2018 -0.0087
  384loPI   C1A 6135   9.383   6.088  10.405  0.1219 -0.0054  0.2096
  384loPI   C2A 6136   9.401   6.103  10.005 -0.0274 -0.3463 -0.1957
  384loPI   C3A 6137   9.432   6.191   9.574  0.1324  0.0466  0.1093
  384loPI   C4A 6138   9.448   6.135   9.153 -0.1570 -0.0828 -0.0107
  384loPI   C5A 6139   9.507   6.232   8.679  0.2074  0.4541  0.1027
  384loPI   C6A 6140   9.701   6.082   8.364 -0.1592 -0.0664  0.2346
  384loPI   C1B 6141   9.680   5.726  10.225  0.0450  0.1950  0.1307
  384loPI   C2B 6142   9.726   5.793   9.768  0.0967  0.0951  0.0015
  384loPI   C3B 6143   9.762   5.816   9.325  0.2478 -0.2179  0.1788
  384loPI   C4B 6144   9.683   5.753   8.850  0.1068  0.2664 -0.0600
  385loPI    C1 6145   3.923  15.378  11.366 -0.2324  0.0600  0.0356
  385loPI    C2 6146   3.976  14.998  11.478 -0.0418  0.0939  0.0649
  385loPI    C3 6147   3.749  15.242  11.700 -0.3092 -0.0472 -0.0477
  385loPI   PO4 6148   4.084  15.350  11.090 -0.2015 -0.2579  0.2259
  385loPI   GL1 6149   4.072  15.294  10.600  0.4106 -0.0741  0.3006
  385loPI   GL2 6150   3.846  15.018  10.476 -0.1340 -0.0682 -0.1920
  385loPI   C1A 6151   3.949  15.270  10.108  0.0647 -0.0213  0.2635
  385loPI   C2A 6152   4.020  15.143   9.646 -0.2015 -0.1630 -0.2432
  385loPI   C3A 6153   4.045  15.199   9.291  0.0183 -0.1012  0.0527
  385loPI   C4A 6154   4.119  15.152   8.789 -0.0410  0.2102 -0.0881
  385loPI   C5A 6155   4.189  15.354   8.488 -0.0262  0.0693 -0.1092
  385loPI   C6A 6156   4.160  15.171   8.032 -0.2670 -0.1109 -0.1151
  385loPI   C1B 6157   3.795  14.809  10.082  0.0918 -0.3571 -0.0814
  385loPI   C2B 6158   3.730  14.726   9.602 -0.1400 -0.0418 -0.0800
  385loPI   C3B 6159   3.804  14.692   9.230 -0.1701  0.2790  0.0510
  385loPI   C4B 6160   3.825  14.745   8.834 -0.0477  0.0942 -0.4587
  386loPI    C1 6161  14.310  17.204  11.250  0.0788  0.0398  0.1167
  386loPI    C2 6162  14.060  17.511  11.190 -0.0156 -0.0263  0.1713
  386loPI    C3 6163  14.099  17.353  11.555  0.0749 -0.0431  0.1546
  386loPI   PO4 6164  14.472  17.231  11.093 -0.1585 -0.1930 -0.0463
  386loPI   GL1 6165  14.770  17.013  10.810 -0.3649 -0.2952  0.1790
  386loPI   GL2 6166  14.694  16.792  10.526  0.0820 -0.2843  0.0089
  386loPI   C1A 6167  14.872  17.221  10.412 -0.1225 -0.2916 -0.0910
  386loPI   C2A 6168  14.770  17.287  10.029 -0.2607  0.0864 -0.0064
  386loPI   C3A 6169  14.684  17.176   9.530  0.0074  0.1862  0.2240
  386loPI   C4A 6170  14.744  17.262   9.107  0.0735 -0.2398 -0.3367
  386loPI   C5A 6171  14.696  17.327   8.672  0.0091  0.4402  0.0155
  386loPI   C6A 6172  14.535  17.611   8.385  0.1502 -0.0400  0.1669
  386loPI   C1B 6173  14.596  16.803  10.078 -0.1490 -0.0450 -0.1600
  386loPI   C2B 6174  14.521  16.717   9.673 -0.2513  0.1214  0.0012
  386loPI   C3B 6175  14.450  16.777   9.244 -0.0945 -0.1683 -0.1822
  386loPI   C4B 6176  14.512  16.844   8.770  0.1136 -0.1388 -0.2053
  387loPI    C1 6177   1.235   1.316  11.307 -0.0322  0.1206 -0.0949
  387loPI    C2 6178   1.386   1.512  11.621 -0.1365 -0.1850  0.1523
  387loPI    C3 6179   1.101   1.237  11.676 -0.2278 -0.1711 -0.2242
  387loPI   PO4 6180   1.367   1.407  11.127 -0.5541  0.2596  0.2572
  387loPI   GL1 6181   1.389   1.449  10.606 -0.1230 -0.0535 -0.1457
  387loPI   GL2 6182   1.068   1.203  10.632  0.0615  0.3430 -0.1988
  387loPI   C1A 6183   1.683   1.282  10.226 -0.3521 -0.3178  0.2564
  387loPI   C2A 6184   1.809   1.312   9.770 -0.1464 -0.0597 -0.2885
  387loPI   C3A 6185   1.769   1.301   9.435 -0.1149  0.0982  0.1471
  387loPI   C4A 6186   1.847   1.401   9.099  0.2093 -0.0409 -0.0229
  387loPI   C5A 6187   1.837   1.393   8.664 -0.4737 -0.0343  0.0933
  387loPI   C6A 6188   1.570   1.582   8.312  0.0600  0.1258  0.2434
  387loPI   C1B 6189   1.121   1.288  10.033 -0.0562  0.0959 -0.2953
  387loPI   C2B 6190   1.299   1.286   9.633 -0.0672  0.0021  0.0653
  387loPI   C3B 6191   1.339   1.334   9.161  0.2308 -0.3247 -0.2238
  387loPI   C4B 6192   1.318   1.220   8.777  0.0223  0.2428 -0.2534
  388loPI    C1 6193  16.698  14.151  11.118 -0.0324 -0.0415 -0.1427
  388loPI    C2 6194  16.649  14.187  11.514  0.1595 -0.2003 -0.1030
  388loPI    C3 6195  16.642  14.512  11.281  0.1672 -0.0930  0.0450
  388loPI   PO4 6196  16.875  14.048  11.002  0.3182  0.1758  0.2208
  388loPI   GL1 6197  16.972  13.898  10.618  0.1795 -0.2468 -0.2601
  388loPI   GL2 6198  17.155  13.661  10.697  0.2015 -0.0522  0.0130
  388loPI   C1A 6199  16.953  14.327  10.423 -0.2699  0.1590 -0.0828
  388loPI   C2A 6200  16.818  14.314  10.029 -0.2677  0.2629  0.2223
  388loPI   C3A 6201  16.815  14.366   9.621 -0.2673  0.0071  0.1226
  388loPI   C4A 6202  16.765  14.427   9.155 -0.2608  0.4589  0.2314
  388loPI   C5A 6203  16.793  14.398   8.784 -0.0254  0.0863  0.0256
  388loPI   C6A 6204  16.889  14.281   8.365  0.0616  0.3963  0.0706
  388loPI   C1B 6205  17.351  13.820  10.281 -0.0267  0.2455  0.2268
  388loPI   C2B 6206  17.161  13.814   9.852  0.0880 -0.0355 -0.1635
  388loPI   C3B 6207  17.126  14.033   9.371 -0.2096  0.1288  0.4528
  388loPI   C4B 6208  17.117  14.041   8.964 -0.0024 -0.0902 -0.2187
  389loPI    C1 6209   8.516   5.956  11.308  0.1607  0.1327  0.1989
  389loPI    C2 6210   8.864   5.983  11.502  0.1724  0.0877  0.1841
  389loPI    C3 6211   8.551   5.806  11.677  0.1561  0.1306  0.1984
  389loPI   PO4 6212   8.656   5.957  11.041  0.1446  0.0830 -0.0214
  389loPI   GL1 6213   8.827   5.873  10.761 -0.0394 -0.1428 -0.4020
  389loPI   GL2 6214   9.106   5.721  10.634 -0.0226  0.2086  0.2115
  389loPI   C1A 6215   8.784   6.098  10.394  0.0880 -0.0766  0.2479
  389loPI   C2A 6216   8.909   6.152   9.979 -0.1463  0.1924 -0.0545
  389loPI   C3A 6217   8.933   6.206   9.505 -0.0175  0.0241 -0.2740
  389loPI   C4A 6218   8.874   6.112   9.174  0.3307 -0.2120  0.1127
  389loPI   C5A 6219   8.898   6.097   8.749 -0.0574 -0.1586 -0.1461
  389loPI   C6A 6220   8.711   6.195   8.433  0.4322  0.0130  0.2025
  389loPI   C1B 6221   9.114   5.691  10.211  0.3269  0.1498 -0.1264
  389loPI   C2B 6222   9.129   5.769   9.713 -0.2210 -0.0453  0.0385
  389loPI   C3B 6223   9.187   5.746   9.307  0.1307 -0.3301  0.0194
  389loPI   C4B 6224   9.194   5.762   8.934 -0.2783 -0.0779 -0.1785
  390loPI    C1 6225   7.138   3.896  11.180 -0.1619  0.0182 -0.1050
  390loPI    C2 6226   7.121   3.561  11.398  0.0135 -0.0724 -0.2279
  390loPI    C3 6227   7.396   3.839  11.480 -0.0779  0.0041 -0.1793
  390loPI   PO4 6228   7.014   3.755  10.893 -0.0509  0.1013  0.2604
  390loPI   GL1 6229   7.258   3.637  10.524 -0.1879 -0.1069 -0.1356
  390loPI   GL2 6230   7.454   3.389  10.549 -0.0238  0.0401  0.0735
  390loPI   C1A 6231   7.286   3.764  10.104  0.0272  0.2036  0.1099
  390loPI   C2A 6232   7.343   3.814   9.719  0.0022  0.0120  0.4455
  390loPI   C3A 6233   7.368   3.725   9.245 -0.3504  0.2186  0.3407
  390loPI   C4A 6234   7.383   3.634   8.754 -0.2726 -0.0764  0.0797
  390loPI   C5A 6235   7.278   3.799   8.503  0.0049 -0.0883  0.1407
  390loPI   C6A 6236   7.295   3.821   8.108  0.0851  0.2149  0.2092
  390loPI   C1B 6237   7.500   3.288  10.175 -0.0517 -0.0195  0.1821
  390loPI   C2B 6238   7.632   3.378   9.735  0.6183 -0.1885 -0.1803
  390loPI   C3B 6239   7.624   3.320   9.238  0.2099  0.1966 -0.2055
  390loPI   C4B 6240   7.671   3.224   8.767  0.0280 -0.3632  0.0687
  391loPI    C1 6241  10.780  10.142  11.240 -0.0395  0.3914 -0.0475
  391loPI    C2 6242  10.918  10.205  11.610  0.0652 -0.0214 -0.0121
  391loPI    C3 6243  10.528  10.248  11.532  0.0708  0.2501  0.1003
  391loPI   PO4 6244  10.836  10.215  11.009  0.0366  0.1111  0.0267
  391loPI   GL1 6245  10.780  10.069  10.598  0.3361  0.0415 -0.0304
  391loPI   GL2 6246  10.907  10.315  10.433  0.1584  0.0716  0.2448
  391loPI   C1A 6247  10.536  10.014  10.215 -0.1620  0.0829 -0.0942
  391loPI   C2A 6248  10.612   9.861   9.789  0.2570 -0.0791 -0.2875
  391loPI   C3A 6249  10.543   9.901   9.399 -0.1532 -0.0461 -0.0245
  391loPI   C4A 6250  10.536  10.015   8.987 -0.0939  0.1944 -0.0875
  391loPI   C5A 6251  10.396   9.947   8.629  0.0876 -0.0227 -0.0293
  391loPI   C6A 6252  10.393   9.568   8.415 -0.1207  0.0036  0.1160
  391loPI   C1B 6253  10.726  10.425  10.068 -0.1662  0.0539 -0.2266
  391loPI   C2B 6254  10.653  10.403   9.678 -0.1666 -0.0375 -0.0710
  391loPI   C3B 6255  10.732  10.403   9.204  0.3387 -0.2894  0.0037
  391loPI   C4B 6256  10.638  10.489   8.815 -0.4094  0.0093 -0.1320
  392loPI    C1 6257  16.391   4.121  11.129 -0.0084  0.0135 -0.1290
  392loPI    C2 6258  16.696   3.992  11.354  0.0599 -0.1226 -0.2974
  392loPI    C3 6259  16.344   4.079  11.524  0.1184 -0.1999 -0.1354
  392loPI   PO4 6260  16.420   3.923  10.864  0.3150 -0.3254  0.2458
  392loPI   GL1 6261  16.114   4.030  10.426  0.1334  0.2473 -0.0140
  392loPI   GL2 6262  16.194   3.619  10.449 -0.2727 -0.0091 -0.1329
  392loPI   C1A 6263  15.852   4.171  10.089 -0.1723 -0.1481  0.0855
  392loPI   C2A 6264  15.879   4.183   9.693 -0.2218  0.3488 -0.1775
  392loPI   C3A 6265  15.820   4.222   9.257 -0.0956 -0.2212  0.1079
  392loPI   C4A 6266  15.705   4.081   8.927 -0.2918 -0.0007  0.0233
  392loPI   C5A 6267  15.678   4.018   8.405  0.3709 -0.1900 -0.1762
  392loPI   C6A 6268  15.690   4.048   7.997 -0.0598 -0.0935  0.0409
  392loPI   C1B 6269  16.168   3.727   9.962 -0.0815  0.3460  0.3002
  392loPI   C2B 6270  16.129   3.784   9.482 -0.0677  0.3526  0.2139
  392loPI   C3B 6271  16.077   3.757   9.098 -0.2359  0.1322 -0.1419
  392loPI   C4B 6272  15.966   3.694   8.697  0.4938  0.1124 -0.1157
  393loPI    C1 6273   0.042   0.584  11.185  0.1385 -0.1329  0.1284
  393loPI    C2 6274   0.372   0.753  11.336  0.1584 -0.1656  0.1215
  393loPI    C3 6275   0.012   0.859  11.474  0.1807 -0.2541  0.2492
  393loPI   PO4 6276   0.097   0.568  10.892  0.0267  0.0620 -0.0405
  393loPI   GL1 6277  -0.071   0.796  10.587  0.1921 -0.1383 -0.2964
  393loPI   GL2 6278  -0.350   1.035  10.610  0.0339  0.0670  0.0247
  393loPI   C1A 6279  -0.054   0.626  10.196  0.0101  0.0998 -0.0013
  393loPI   C2A 6280  -0.061   0.729   9.685 -0.2013  0.3382  0.0510
  393loPI   C3A 6281   0.053   0.809   9.190 -0.0728 -0.5861 -0.0740
  393loPI   C4A 6282   0.010   0.714   8.722 -0.0983  0.0214  0.4406
  393loPI   C5A 6283  -0.235   0.909   8.347  0.3144  0.0997  0.0403
  393loPI   C6A 6284  -0.470   0.688   8.078 -0.1860 -0.2113 -0.1552
  393loPI   C1B 6285  -0.280   1.097  10.201  0.0581  0.0926 -0.2348
  393loPI   C2B 6286  -0.363   1.120   9.770 -0.0902  0.1358  0.0058
  393loPI   C3B 6287  -0.285   1.146   9.305  0.0873  0.2509  0.1209
  393loPI   C4B 6288  -0.316   1.190   8.828 -0.1483  0.0048  0.4081
  394loPI    C1 6289  15.313   6.422  11.208  0.1502 -0.1832 -0.0480
  394loPI    C2 6290  15.528   6.119  11.354  0.0619 -0.1706  0.1095
  394loPI    C3 6291  15.290   6.331  11.596  0.0446 -0.0411 -0.0199
  394loPI   PO4 6292  15.254   6.285  10.935  0.0193  0.1311  0.1598
  394loPI   GL1 6293  14.987   6.346  10.567  0.1732  0.3728 -0.0373
  394loPI   GL2 6294  15.238   6.392  10.472  0.1790 -0.2737  0.0578
  394loPI   C1A 6295  14.809   6.280  10.178 -0.3137 -0.2445  0.0016
  394loPI   C2A 6296  14.852   6.318   9.730 -0.1398  0.0672 -0.1884
  394loPI   C3A 6297  14.807   6.479   9.295  0.1056  0.1790  0.4525
  394loPI   C4A 6298  14.827   6.418   8.885  0.3163  0.3799 -0.1400
  394loPI   C5A 6299  14.770   6.288   8.480  0.1551  0.1032  0.2183
  394loPI   C6A 6300  14.518   6.364   8.087 -0.0408 -0.0319 -0.0517
  394loPI   C1B 6301  15.246   6.373  10.030  0.0444  0.0117 -0.4010
  394loPI   C2B 6302  15.337   6.413   9.585  0.1789 -0.1428 -0.0115
  394loPI   C3B 6303  15.324   6.485   9.181  0.0214  0.2953  0.0441
  394loPI   C4B 6304  15.305   6.450   8.787  0.0740  0.1543  0.1277
  395loPI    C1 6305  16.187   8.682  11.324  0.1679  0.0918 -0.2570
  395loPI    C2 6306  16.169   9.048  11.484  0.4046  0.0997 -0.2460
  395loPI    C3 6307  16.412   8.772  11.642 -0.0814 -0.1967  0.0088
  395loPI   PO4 6308  16.273   8.631  11.015 -0.4630 -0.0434  0.4532
  395loPI   GL1 6309  16.092   8.649  10.645 -0.0346  0.2031 -0.0625
  395loPI   GL2 6310  16.163   8.890  10.583 -0.1908 -0.4776 -0.1489
  395loPI   C1A 6311  16.091   8.337  10.307 -0.0560  0.0797  0.0650
  395loPI   C2A 6312  16.090   8.336   9.814 -0.0374  0.0994  0.1953
  395loPI   C3A 6313  16.138   8.348   9.349 -0.0168  0.0462  0.0714
  395loPI   C4A 6314  16.070   8.358   8.930  0.0124 -0.0598  0.1344
  395loPI   C5A 6315  16.481   8.415   8.638 -0.0727  0.0954  0.3130
  395loPI   C6A 6316  16.766   8.264   8.382  0.0992  0.0018  0.0574
  395loPI   C1B 6317  16.405   8.846  10.218 -0.0517  0.0490 -0.1018
  395loPI   C2B 6318  16.334   8.792   9.788 -0.0227 -0.0861  0.0576
  395loPI   C3B 6319  16.385   8.870   9.398  0.0470  0.0093  0.2935
  395loPI   C4B 6320  16.388   8.800   8.967 -0.1687  0.1159 -0.3138
  396loPI    C1 6321   9.882  15.314  11.190  0.2508  0.0026  0.2078
  396loPI    C2 6322   9.767  15.565  11.479 -0.0703 -0.0923  0.1667
  396loPI    C3 6323   9.534  15.256  11.379  0.1302 -0.1727 -0.0610
  396loPI   PO4 6324   9.956  15.469  10.941  0.1940  0.2569  0.0638
  396loPI   GL1 6325   9.814  15.586  10.596 -0.0513  0.1046  0.0720
  396loPI   GL2 6326   9.969  15.816  10.500  0.1643  0.0915  0.0996
  396loPI   C1A 6327   9.520  15.471  10.334 -0.3498  0.3056 -0.0667
  396loPI   C2A 6328   9.409  15.266   9.955  0.0537  0.0039 -0.0021
  396loPI   C3A 6329   9.385  15.336   9.533  0.0844 -0.0612 -0.2359
  396loPI   C4A 6330   9.527  15.269   9.133 -0.0967  0.0881 -0.0315
  396loPI   C5A 6331   9.498  15.154   8.808 -0.0745 -0.0730  0.0369
  396loPI   C6A 6332   9.339  15.207   8.406  0.0321 -0.1219 -0.0985
  396loPI   C1B 6333   9.993  15.803  10.134 -0.2242  0.2249  0.1306
  396loPI   C2B 6334  10.188  15.760   9.773 -0.1545  0.1559  0.2798
  396loPI   C3B 6335  10.227  15.820   9.310 -0.1037 -0.0118  0.0062
  396loPI   C4B 6336  10.207  15.738   8.863 -0.0568  0.1298  0.1700
  397loPI    C1 6337   0.914   8.874  11.369 -0.0676 -0.0754  0.0084
  397loPI    C2 6338   1.008   8.677  11.704 -0.0989 -0.0359  0.0406
  397loPI    C3 6339   0.857   8.478  11.391  0.0826 -0.0985 -0.0084
  397loPI   PO4 6340   1.109   9.038  11.241  0.2155  0.1530  0.2215
  397loPI   GL1 6341   1.285   9.283  10.796 -0.0186 -0.0206  0.2841
  397loPI   GL2 6342   1.193   8.962  10.732  0.0450 -0.1454 -0.0670
  397loPI   C1A 6343   1.424   9.554  10.442  0.4702 -0.1807 -0.0220
  397loPI   C2A 6344   1.561   9.658  10.182 -0.0054  0.0454 -0.2224
  397loPI   C3A 6345   1.533   9.538   9.803  0.0608 -0.0385 -0.0896
  397loPI   C4A 6346   1.499   9.628   9.409 -0.0261  0.0635  0.0428
  397loPI   C5A 6347   1.491   9.820   8.965 -0.1054  0.0218 -0.1051
  397loPI   C6A 6348   1.483  10.027   8.520 -0.0185  0.2694  0.1384
  397loPI   C1B 6349   1.248   9.084  10.328 -0.1998 -0.1663  0.2016
  397loPI   C2B 6350   1.272   9.055   9.815  0.0420 -0.1986  0.2570
  397loPI   C3B 6351   1.287   9.174   9.367 -0.4003  0.1331  0.4365
  397loPI   C4B 6352   1.339   9.078   8.948 -0.1036  0.2707 -0.2904
  398loPI    C1 6353  15.661   7.643  11.132  0.1355  0.0834  0.0122
  398loPI    C2 6354  15.778   7.946  11.365 -0.1704  0.2179 -0.0039
  398loPI    C3 6355  15.411   7.792  11.407 -0.0806 -0.0320 -0.1187
  398loPI   PO4 6356  15.763   7.771  10.858 -0.3698  0.1502  0.0850
  398loPI   GL1 6357  15.772   7.937  10.437  0.0589  0.1569 -0.1631
  398loPI   GL2 6358  15.503   8.035  10.491  0.0002  0.0634  0.0615
  398loPI   C1A 6359  16.009   7.892  10.077 -0.2777 -0.0237  0.1444
  398loPI   C2A 6360  15.987   7.901   9.631  0.1010  0.1005  0.6575
  398loPI   C3A 6361  15.924   7.900   9.159 -0.3268 -0.0867 -0.0136
  398loPI   C4A 6362  15.846   7.906   8.755  0.1137  0.2462 -0.1726
  398loPI   C5A 6363  15.923   7.771   8.307 -0.0902 -0.2887 -0.2588
  398loPI   C6A 6364  16.118   7.387   8.096  0.0789  0.2421  0.1978
  398loPI   C1B 6365  15.456   7.800  10.020 -0.3157 -0.0079 -0.1359
  398loPI   C2B 6366  15.405   7.858   9.606  0.1771  0.0896 -0.3657
  398loPI   C3B 6367  15.369   7.809   9.107  0.1329  0.0142 -0.2988
  398loPI   C4B 6368  15.329   7.710   8.598  0.0459  0.0363 -0.0823
  399loPI    C1 6369   0.596   9.340  11.011 -0.5774  0.0277  0.1166
  399loPI    C2 6370   0.555   9.685  10.813  0.1126  0.0923  0.0615
  399loPI    C3 6371   0.576   9.684  11.213  0.1364  0.1179  0.0603
  399loPI   PO4 6372   0.816   9.255  10.873 -0.1309 -0.0497  0.0554
  399loPI   GL1 6373   0.928   9.434  10.456  0.1233 -0.0836 -0.0735
  399loPI   GL2 6374   0.782   9.738  10.285 -0.1488 -0.2427 -0.1824
  399loPI   C1A 6375   1.039   9.450  10.033 -0.1843  0.0113  0.0447
  399loPI   C2A 6376   1.001   9.544   9.618  0.0014  0.2134 -0.2177
  399loPI   C3A 6377   0.984   9.526   9.164 -0.1197 -0.2907 -0.0694
  399loPI   C4A 6378   1.110   9.458   8.817  0.1941 -0.2911 -0.1079
  399loPI   C5A 6379   1.373   9.530   8.446 -0.2826 -0.0248  0.1201
  399loPI   C6A 6380   1.562   9.502   7.975 -0.0045 -0.1996  0.0507
  399loPI   C1B 6381   0.671   9.913   9.872 -0.0145  0.1677 -0.0099
  399loPI   C2B 6382   0.683   9.915   9.464 -0.0169 -0.1886  0.2932
  399loPI   C3B 6383   0.597   9.987   9.113 -0.0981  0.0430 -0.0949
  399loPI   C4B 6384   0.596  10.006   8.711 -0.0660 -0.1774  0.0017
  400loPI    C1 6385  15.430   9.591  10.635 -0.0504  0.0005 -0.1677
  400loPI    C2 6386  15.200   9.514  10.316  0.1396  0.0227 -0.3116
  400loPI    C3 6387  15.100   9.367  10.674 -0.1353  0.0896 -0.3586
  400loPI   PO4 6388  15.660   9.552  10.519  0.1886 -0.1408  0.3431
  400loPI   GL1 6389  15.795   9.716  10.056 -0.3719  0.2243 -0.3921
  400loPI   GL2 6390  15.920  10.087  10.001  0.1265  0.1679  0.4262
  400loPI   C1A 6391  15.773   9.601   9.633  0.0013  0.3078  0.2277
  400loPI   C2A 6392  15.703   9.554   9.207  0.2678 -0.0352 -0.0312
  400loPI   C3A 6393  15.837   9.659   8.796  0.0353  0.1249  0.0994
  400loPI   C4A 6394  15.953   9.793   8.384  0.3320 -0.0840  0.0225
  400loPI   C5A 6395  16.262   9.993   8.150 -0.1158 -0.2045 -0.1686
  400loPI   C6A 6396  16.599  10.270   7.871 -0.1869 -0.1890  0.0151
  400loPI   C1B 6397  16.002  10.108   9.637  0.2718 -0.0805 -0.0813
  400loPI   C2B 6398  15.949  10.008   9.231 -0.0765  0.2087  0.2701
  400loPI   C3B 6399  16.047  10.223   8.977  0.1337  0.0179  0.1042
  400loPI   C4B 6400  16.092  10.204   8.572  0.0247  0.4421 -0.1380
  401loPI    C1 6401   3.182   5.917  11.017  0.0623  0.0545 -0.0720
  401loPI    C2 6402   2.973   5.615  11.177 -0.1053  0.3388  0.2581
  401loPI    C3 6403   2.782   5.920  11.002  0.0660  0.2168 -0.1538
  401loPI   PO4 6404   3.411   5.768  10.838 -0.6551  0.1208  0.0918
  401loPI   GL1 6405   3.557   5.678  10.483  0.1759  0.0920 -0.0561
  401loPI   GL2 6406   3.812   5.640  10.400 -0.0511  0.1943  0.0982
  401loPI   C1A 6407   3.210   5.585  10.094 -0.0711 -0.1114 -0.1498
  401loPI   C2A 6408   3.158   5.502   9.619  0.0887 -0.1220 -0.2276
  401loPI   C3A 6409   3.156   5.582   9.183 -0.1247  0.1709 -0.0307
  401loPI   C4A 6410   3.056   5.569   8.756  0.2680 -0.1674 -0.1063
  401loPI   C5A 6411   2.813   5.871   8.520  0.0501 -0.3921  0.1239
  401loPI   C6A 6412   2.662   5.848   8.178 -0.0795 -0.1109  0.2052
  401loPI   C1B 6413   3.723   5.641   9.975  0.1302 -0.3167 -0.1833
  401loPI   C2B 6414   3.651   5.613   9.549 -0.2342 -0.2637  0.0072
  401loPI   C3B 6415   3.637   5.538   9.198  0.2115 -0.0649  0.1105
  401loPI   C4B 6416   3.577   5.534   8.722 -0.1413  0.0677 -0.2691
  402loPI    C1 6417  14.810  16.442  11.128  0.0138  0.0218 -0.2211
  402loPI    C2 6418  14.714  16.772  11.333 -0.0495  0.0864 -0.3530
  402loPI    C3 6419  14.485  16.445  11.361  0.1057 -0.0038 -0.0912
  402loPI   PO4 6420  15.016  16.619  10.925 -0.4039  0.0665  0.1410
  402loPI   GL1 6421  15.249  16.441  10.567 -0.0720  0.0027 -0.1895
  402loPI   GL2 6422  15.606  16.484  10.586  0.0274 -0.1245 -0.1022
  402loPI   C1A 6423  15.353  16.429  10.027  0.2707  0.3428 -0.2780
  402loPI   C2A 6424  15.310  16.417   9.661 -0.1728 -0.1331  0.0154
  402loPI   C3A 6425  15.266  16.413   9.282  0.0346 -0.2094 -0.0219
  402loPI   C4A 6426  15.194  16.432   8.889  0.0261  0.0004 -0.2020
  402loPI   C5A 6427  15.518  16.344   8.474 -0.0654  0.0694 -0.3929
  402loPI   C6A 6428  15.812  16.088   8.240  0.1018 -0.0285 -0.2013
  402loPI   C1B 6429  15.797  16.396  10.336  0.2468  0.1657 -0.0380
  402loPI   C2B 6430  15.852  16.433   9.898 -0.0353  0.1138  0.0509
  402loPI   C3B 6431  15.859  16.473   9.488 -0.1292 -0.1846 -0.0844
  402loPI   C4B 6432  15.657  16.414   9.017 -0.0519  0.1465  0.1466
  403loPI    C1 6433   5.003  17.179  10.875  0.2871  0.0348 -0.0111
  403loPI    C2 6434   4.769  17.283  11.182  0.0902 -0.2096 -0.0750
  403loPI    C3 6435   4.915  17.564  10.938  0.0457 -0.0361  0.0956
  403loPI   PO4 6436   4.951  16.943  10.787 -0.3375  0.2421 -0.0576
  403loPI   GL1 6437   4.678  16.861  10.454 -0.1475 -0.0163 -0.0486
  403loPI   GL2 6438   4.534  16.560  10.279  0.0792  0.0380 -0.2038
  403loPI   C1A 6439   4.878  17.081  10.193 -0.2594 -0.2169 -0.1292
  403loPI   C2A 6440   4.826  17.096   9.780  0.0337  0.0990  0.1351
  403loPI   C3A 6441   4.866  17.103   9.288 -0.0132 -0.0089 -0.2250
  403loPI   C4A 6442   4.832  17.074   8.940 -0.1023  0.0814  0.0422
  403loPI   C5A 6443   4.897  17.190   8.551  0.0098 -0.2306  0.2145
  403loPI   C6A 6444   4.888  17.446   8.231 -0.1595  0.0018 -0.1727
  403loPI   C1B 6445   4.446  16.732   9.834 -0.0913 -0.1145 -0.3403
  403loPI   C2B 6446   4.507  16.620   9.413  0.1048 -0.1558  0.3657
  403loPI   C3B 6447   4.591  16.584   8.970  0.0187 -0.1452  0.0476
  403loPI   C4B 6448   4.772  16.744   8.521 -0.0445 -0.2244  0.1120
  404loPI    C1 6449   7.746  10.505  11.217  0.1554 -0.1905  0.1549
  404loPI    C2 6450   7.872  10.695  11.545 -0.0934 -0.0587  0.1773
  404loPI    C3 6451   7.507  10.533  11.536 -0.0460 -0.1590  0.0038
  404loPI   PO4 6452   7.798  10.688  11.059 -0.1060 -0.0570  0.0131
  404loPI   GL1 6453   7.965  10.791  10.763  0.3641 -0.0783  0.0963
  404loPI   GL2 6454   8.028  11.124  10.627 -0.0811  0.1970  0.2094
  404loPI   C1A 6455   8.024  10.622  10.377 -0.2611 -0.0573  0.0013
  404loPI   C2A 6456   7.933  10.459   9.946 -0.3545 -0.1059  0.2019
  404loPI   C3A 6457   7.901  10.625   9.594  0.0814 -0.1305 -0.0060
  404loPI   C4A 6458   7.793  10.634   9.126  0.0385 -0.1746  0.0576
  404loPI   C5A 6459   7.704  10.703   8.716  0.0186 -0.1939  0.5055
  404loPI   C6A 6460   7.789  10.492   8.320 -0.0551 -0.1523  0.4661
  404loPI   C1B 6461   8.181  11.085  10.234 -0.2695  0.1840 -0.1871
  404loPI   C2B 6462   8.153  11.098   9.721  0.0676  0.0868  0.0635
  404loPI   C3B 6463   8.078  11.093   9.309  0.1566  0.3199 -0.0643
  404loPI   C4B 6464   8.017  10.998   8.907 -0.2575 -0.0704  0.1065
  405loPI    C1 6465   3.300  14.803  11.039 -0.1970 -0.0068  0.1240
  405loPI    C2 6466   3.471  14.952  11.369  0.3834 -0.1278 -0.1091
  405loPI    C3 6467   3.203  14.657  11.399 -0.1185  0.3469  0.2937
  405loPI   PO4 6468   3.346  15.054  10.838  0.0390  0.1180 -0.2589
  405loPI   GL1 6469   2.972  15.083  10.560 -0.0517  0.0094  0.0612
  405loPI   GL2 6470   2.575  14.997  10.603  0.2011  0.0210 -0.1369
  405loPI   C1A 6471   2.911  15.223  10.186 -0.0204  0.1066  0.2393
  405loPI   C2A 6472   2.892  15.224   9.745  0.0433 -0.2546 -0.0287
  405loPI   C3A 6473   2.971  15.162   9.274  0.0473 -0.2729  0.0359
  405loPI   C4A 6474   3.091  15.237   8.838 -0.0045  0.3256  0.0191
  405loPI   C5A 6475   3.157  15.235   8.424 -0.1025 -0.0024  0.0719
  405loPI   C6A 6476   3.002  15.267   8.050 -0.2015  0.2653 -0.0463
  405loPI   C1B 6477   2.401  15.117  10.145 -0.3724 -0.2662  0.0378
  405loPI   C2B 6478   2.371  15.152   9.669 -0.0160 -0.2612  0.3814
  405loPI   C3B 6479   2.516  15.085   9.284  0.1024  0.2000  0.1814
  405loPI   C4B 6480   2.585  15.108   8.828  0.0146 -0.2998 -0.0783
  406loPI    C1 6481  17.260   2.149  11.189 -0.0817 -0.2259  0.0453
  406loPI    C2 6482  17.042   2.427  11.378 -0.0981 -0.2296  0.0320
  406loPI    C3 6483  16.993   2.040  11.467  0.1072 -0.2106  0.2347
  406loPI   PO4 6484  17.401   2.352  11.017  0.0134  0.0356  0.1793
  406loPI   GL1 6485  17.541   2.171  10.529 -0.1089  0.3099  0.0718
  406loPI   GL2 6486  17.820   2.136  10.400  0.2286 -0.0363  0.4585
  406loPI   C1A 6487  17.293   1.942  10.188 -0.0572  0.2410 -0.0002
  406loPI   C2A 6488  17.291   1.967   9.801  0.5208 -0.0612  0.0390
  406loPI   C3A 6489  17.372   2.073   9.421 -0.0130 -0.0626  0.0414
  406loPI   C4A 6490  17.410   2.079   8.987 -0.0955 -0.2949  0.0589
  406loPI   C5A 6491  17.408   2.009   8.543  0.1184 -0.0255 -0.0923
  406loPI   C6A 6492  17.463   2.363   8.279 -0.0561 -0.2556  0.0851
  406loPI   C1B 6493  17.774   2.058   9.938  0.0946  0.0635 -0.0706
  406loPI   C2B 6494  17.888   2.133   9.492  0.0058 -0.0100 -0.0444
  406loPI   C3B 6495  17.954   2.104   9.036  0.0017 -0.1377  0.2377
  406loPI   C4B 6496  17.892   2.117   8.565 -0.1240 -0.1867 -0.0674
  407loPI    C1 6497   2.229   8.840  11.204 -0.0172  0.1227 -0.1131
  407loPI    C2 6498   2.495   8.631  11.419 -0.1406  0.0957  0.0147
  407loPI    C3 6499   2.498   9.031  11.430  0.1292  0.1049 -0.2707
  407loPI   PO4 6500   2.230   8.727  10.997 -0.1014  0.1378  0.4923
  407loPI   GL1 6501   2.185   8.806  10.620  0.1128 -0.4695 -0.2749
  407loPI   GL2 6502   2.572   8.803  10.540  0.1423  0.0642 -0.2968
  407loPI   C1A 6503   2.073   8.797  10.240 -0.0170  0.0598  0.0395
  407loPI   C2A 6504   2.144   8.761   9.896 -0.2039 -0.0099  0.1134
  407loPI   C3A 6505   2.037   8.634   9.444  0.1612 -0.1630 -0.1654
  407loPI   C4A 6506   2.040   8.703   9.061 -0.2296  0.1409 -0.1232
  407loPI   C5A 6507   1.731   8.807   8.748  0.0630 -0.0412  0.1045
  407loPI   C6A 6508   1.757   8.635   8.421 -0.2428  0.2385 -0.3825
  407loPI   C1B 6509   2.631   8.850  10.125 -0.1388 -0.1174  0.0297
  407loPI   C2B 6510   2.666   8.678   9.761 -0.2344 -0.1258 -0.1564
  407loPI   C3B 6511   2.538   8.756   9.336  0.2265  0.3016 -0.1050
  407loPI   C4B 6512   2.509   8.660   8.962 -0.1035  0.1346 -0.2682
  408loPI    C1 6513  11.229  14.532  11.260  0.0329  0.1358  0.1035
  408loPI    C2 6514  10.948  14.449  11.532 -0.0236  0.0200  0.0106
  408loPI    C3 6515  11.311  14.285  11.564  0.0841  0.2892  0.2162
  408loPI   PO4 6516  11.084  14.777  11.145  0.0336  0.1483 -0.0601
  408loPI   GL1 6517  10.948  14.687  10.725  0.3257  0.2164 -0.1732
  408loPI   GL2 6518  10.753  15.018  10.703  0.0613  0.0459 -0.4284
  408loPI   C1A 6519  11.110  14.563  10.333 -0.0584 -0.2946  0.0715
  408loPI   C2A 6520  11.110  14.692   9.909 -0.3032  0.1948 -0.2556
  408loPI   C3A 6521  11.108  14.547   9.490 -0.1277  0.0327 -0.1972
  408loPI   C4A 6522  11.132  14.433   9.112 -0.0745 -0.1229 -0.0464
  408loPI   C5A 6523  11.012  14.561   8.770 -0.0649  0.2994 -0.0737
  408loPI   C6A 6524  11.091  14.838   8.444  0.0673  0.1559  0.0536
  408loPI   C1B 6525  10.873  14.995  10.270  0.0596  0.0535  0.3223
  408loPI   C2B 6526  10.724  14.985   9.809 -0.0512 -0.2019 -0.1715
  408loPI   C3B 6527  10.778  14.986   9.380  0.0191  0.0719 -0.2578
  408loPI   C4B 6528  10.722  14.962   8.867  0.1089  0.0445  0.0446
  409loPI    C1 6529  12.872   5.522  11.329  0.0182  0.2470 -0.2176
  409loPI    C2 6530  13.161   5.791  11.398  0.2412 -0.0561  0.0598
  409loPI    C3 6531  12.867   5.739  11.665  0.2353 -0.1335  0.0386
  409loPI   PO4 6532  12.802   5.570  11.035 -0.0320 -0.2282  0.0623
  409loPI   GL1 6533  12.851   5.388  10.712  0.2514 -0.3730 -0.2631
  409loPI   GL2 6534  13.009   5.201  10.638  0.0644 -0.3045 -0.1011
  409loPI   C1A 6535  12.534   5.312  10.490 -0.2217 -0.1208  0.0739
  409loPI   C2A 6536  12.370   5.147  10.100 -0.3509  0.0163 -0.0607
  409loPI   C3A 6537  12.326   5.069   9.638 -0.0120  0.0789 -0.0564
  409loPI   C4A 6538  12.223   5.181   9.166  0.0225  0.1122 -0.1979
  409loPI   C5A 6539  12.291   5.296   8.729  0.3166  0.1854  0.0417
  409loPI   C6A 6540  12.175   5.218   8.341 -0.0425 -0.1168  0.2803
  409loPI   C1B 6541  12.968   5.272  10.213  0.1056  0.0901  0.1044
  409loPI   C2B 6542  12.824   5.201   9.846  0.0329  0.2874  0.0707
  409loPI   C3B 6543  12.850   5.193   9.390  0.1455 -0.0467  0.0487
  409loPI   C4B 6544  12.817   5.174   8.952  0.0418  0.1460  0.2641
  410loPI    C1 6545  16.113   3.019  11.440  0.0599  0.0472 -0.0908
  410loPI    C2 6546  15.936   3.378  11.433  0.1554  0.0967  0.0024
  410loPI    C3 6547  16.218   3.299  11.705  0.0535 -0.0884  0.0564
  410loPI   PO4 6548  16.159   2.995  11.137  0.0630 -0.0255 -0.3058
  410loPI   GL1 6549  16.172   2.885  10.725  0.1289 -0.1154  0.0298
  410loPI   GL2 6550  16.379   3.164  10.686 -0.0902 -0.3279 -0.0181
  410loPI   C1A 6551  16.263   2.770  10.333 -0.0566 -0.1855 -0.0893
  410loPI   C2A 6552  16.195   2.943   9.919  0.1750  0.1884 -0.0186
  410loPI   C3A 6553  16.301   2.832   9.419  0.1478  0.3016  0.0658
  410loPI   C4A 6554  16.301   2.853   9.008  0.2210  0.1544  0.1402
  410loPI   C5A 6555  16.125   2.966   8.555 -0.4118  0.3130 -0.0091
  410loPI   C6A 6556  16.188   3.314   8.325 -0.0031  0.1224 -0.0515
  410loPI   C1B 6557  16.407   3.312  10.196  0.0213  0.0424  0.0133
  410loPI   C2B 6558  16.450   3.352   9.722 -0.1521  0.0159  0.0353
  410loPI   C3B 6559  16.458   3.288   9.288  0.0337  0.0364  0.3026
  410loPI   C4B 6560  16.434   3.337   8.833  0.4345  0.2974 -0.0181
  411loPI    C1 6561   1.510   9.422  11.468 -0.1650 -0.0930 -0.0227
  411loPI    C2 6562   1.852   9.216  11.459 -0.1289 -0.0506  0.2835
  411loPI    C3 6563   1.512   9.035  11.568 -0.1890 -0.0696  0.0686
  411loPI   PO4 6564   1.464   9.470  11.265 -0.2016 -0.0831 -0.1185
  411loPI   GL1 6565   1.677   9.513  10.897  0.0536  0.0856  0.2376
  411loPI   GL2 6566   1.534   9.762  10.862 -0.0705  0.0244  0.1117
  411loPI   C1A 6567   1.907   9.733  10.573 -0.0671 -0.1907  0.3613
  411loPI   C2A 6568   2.029   9.693  10.202 -0.1016  0.1255  0.1613
  411loPI   C3A 6569   2.026   9.541   9.680  0.2653 -0.1259  0.3109
  411loPI   C4A 6570   2.002   9.574   9.243  0.2032 -0.1243  0.3650
  411loPI   C5A 6571   2.001   9.772   8.828 -0.0349 -0.1064  0.6160
  411loPI   C6A 6572   1.953  10.121   8.471 -0.0301 -0.1574 -0.0782
  411loPI   C1B 6573   1.607  10.096  10.475 -0.0501  0.0541 -0.0990
  411loPI   C2B 6574   1.642  10.147  10.039  0.0154 -0.1408  0.1707
  411loPI   C3B 6575   1.705  10.052   9.655  0.1085 -0.0390  0.1010
  411loPI   C4B 6576   1.692  10.148   9.213  0.1470  0.1248  0.1765
  412loPI    C1 6577   1.464   3.511  11.180  0.1274 -0.0685 -0.2578
  412loPI    C2 6578   1.467   3.114  11.124 -0.0246 -0.1077 -0.0042
  412loPI    C3 6579   1.364   3.266  11.480  0.1759  0.1565 -0.0552
  412loPI   PO4 6580   1.337   3.627  10.971  0.2740  0.1434  0.0645
  412loPI   GL1 6581   1.316   3.424  10.645 -0.2280  0.3675 -0.2356
  412loPI   GL2 6582   1.635   3.184  10.673 -0.2260 -0.0005 -0.0311
  412loPI   C1A 6583   1.258   3.583  10.277 -0.1514  0.1980 -0.0402
  412loPI   C2A 6584   1.269   3.513   9.798  0.0556  0.0348  0.3510
  412loPI   C3A 6585   1.204   3.593   9.289 -0.3658 -0.0701 -0.0900
  412loPI   C4A 6586   1.285   3.649   8.862 -0.1663  0.1397  0.0297
  412loPI   C5A 6587   1.183   3.535   8.427 -0.0348 -0.1562 -0.1478
  412loPI   C6A 6588   0.772   3.349   8.295 -0.0797 -0.0153  0.2676
  412loPI   C1B 6589   1.532   3.160  10.196  0.2716  0.1616  0.1461
  412loPI   C2B 6590   1.607   3.085   9.807 -0.0726  0.1925  0.4319
  412loPI   C3B 6591   1.542   3.113   9.391 -0.0698  0.1360 -0.0920
  412loPI   C4B 6592   1.530   3.189   8.965  0.1042 -0.0386 -0.0962
  413loPI    C1 6593  12.916   9.311  11.194  0.0122 -0.0410 -0.0254
  413loPI    C2 6594  13.289   9.258  11.330 -0.0819  0.1850  0.3326
  413loPI    C3 6595  12.988   9.045  11.485 -0.0912 -0.0744 -0.0302
  413loPI   PO4 6596  12.872   9.498  10.940  0.2656 -0.1561 -0.0459
  413loPI   GL1 6597  12.937   9.587  10.475 -0.0695 -0.1681  0.2582
  413loPI   GL2 6598  12.707   9.423  10.408  0.1347 -0.2183  0.0283
  413loPI   C1A 6599  12.878   9.783  10.088 -0.3412  0.0465  0.0985
  413loPI   C2A 6600  13.013   9.760   9.714  0.2271 -0.2525  0.0033
  413loPI   C3A 6601  12.898   9.931   9.421  0.0999  0.1694 -0.1086
  413loPI   C4A 6602  12.867   9.865   9.032 -0.2043 -0.1773  0.2940
  413loPI   C5A 6603  12.872   9.788   8.622 -0.1350 -0.0237  0.1357
  413loPI   C6A 6604  12.640  10.070   8.456  0.1173 -0.0334 -0.1907
  413loPI   C1B 6605  12.740   9.371   9.962 -0.2595  0.0728  0.1308
  413loPI   C2B 6606  12.709   9.316   9.595  0.1124 -0.0385 -0.1474
  413loPI   C3B 6607  12.667   9.291   9.203 -0.0721  0.1211  0.1054
  413loPI   C4B 6608  12.619   9.403   8.768 -0.0669 -0.0978 -0.0034
  414loPI    C1 6609   7.240  15.351  11.165 -0.0721  0.2293 -0.1158
  414loPI    C2 6610   7.136  15.606  11.455  0.0309  0.1120  0.0262
  414loPI    C3 6611   7.190  15.219  11.540 -0.0021  0.0651 -0.1633
  414loPI   PO4 6612   7.022  15.419  10.981 -0.1075  0.0134  0.2163
  414loPI   GL1 6613   7.008  15.556  10.583  0.1138  0.0566 -0.0929
  414loPI   GL2 6614   6.659  15.503  10.566  0.1695 -0.1298 -0.1917
  414loPI   C1A 6615   7.116  15.530  10.150  0.0278  0.2244  0.0901
  414loPI   C2A 6616   7.090  15.481   9.657  0.0678 -0.2339  0.1387
  414loPI   C3A 6617   7.042  15.481   9.179 -0.0779 -0.0801 -0.1386
  414loPI   C4A 6618   6.928  15.341   8.772 -0.0240 -0.4599 -0.0485
  414loPI   C5A 6619   6.534  15.383   8.585  0.0010  0.1657  0.0183
  414loPI   C6A 6620   6.331  15.640   8.235 -0.4699  0.1284  0.1568
  414loPI   C1B 6621   6.564  15.475  10.179  0.1512  0.1154  0.1378
  414loPI   C2B 6622   6.628  15.352   9.843  0.0861  0.0096 -0.0231
  414loPI   C3B 6623   6.598  15.397   9.446  0.0639 -0.2233 -0.0360
  414loPI   C4B 6624   6.539  15.463   9.079  0.1291 -0.0087 -0.2288
  415loPI    C1 6625   3.640  13.940  11.208 -0.0081  0.1531 -0.0074
  415loPI    C2 6626   3.323  14.103  11.389 -0.2715 -0.2541 -0.0889
  415loPI    C3 6627   3.526  13.808  11.568  0.0898  0.0288 -0.0209
  415loPI   PO4 6628   3.544  13.817  11.000  0.0323 -0.1518  0.0317
  415loPI   GL1 6629   3.410  13.602  10.678 -0.1309  0.1090 -0.0723
  415loPI   GL2 6630   3.244  13.835  10.631  0.1452 -0.2353  0.0941
  415loPI   C1A 6631   3.575  13.486  10.226 -0.4504 -0.1935 -0.0554
  415loPI   C2A 6632   3.653  13.379   9.820 -0.0099  0.1118  0.2290
  415loPI   C3A 6633   3.657  13.296   9.274  0.1475 -0.1343 -0.1513
  415loPI   C4A 6634   3.617  13.398   8.815  0.0160  0.1552  0.1825
  415loPI   C5A 6635   3.995  13.400   8.493  0.0239  0.4058 -0.0198
  415loPI   C6A 6636   4.304  13.726   8.457  0.0653  0.3203 -0.1282
  415loPI   C1B 6637   3.252  13.849  10.235  0.2096 -0.3061  0.0992
  415loPI   C2B 6638   3.426  13.817   9.742 -0.1735  0.0520 -0.0344
  415loPI   C3B 6639   3.380  13.769   9.340  0.0294  0.0499 -0.2562
  415loPI   C4B 6640   3.348  13.797   8.898 -0.0784 -0.1672  0.0250
  416loPI    C1 6641   3.540   6.223  11.123  0.1567 -0.0445 -0.0201
  416loPI    C2 6642   3.577   6.509  11.400  0.0328 -0.0063 -0.0423
  416loPI    C3 6643   3.637   6.126  11.498  0.0172  0.0099  0.0306
  416loPI   PO4 6644   3.368   6.365  10.978  0.4375  0.2668  0.1357
  416loPI   GL1 6645   3.154   6.210  10.584  0.1281  0.0691 -0.3947
  416loPI   GL2 6646   3.154   6.560  10.538 -0.2125  0.3430 -0.0285
  416loPI   C1A 6647   3.378   6.084  10.193  0.1030 -0.1708 -0.4099
  416loPI   C2A 6648   3.374   6.016   9.813  0.1131 -0.3786  0.0827
  416loPI   C3A 6649   3.361   5.979   9.340 -0.0653 -0.2148  0.3132
  416loPI   C4A 6650   3.344   5.992   8.842  0.1954 -0.2120 -0.0879
  416loPI   C5A 6651   3.410   5.898   8.401  0.2677 -0.0655 -0.2325
  416loPI   C6A 6652   3.095   5.585   8.207  0.0175 -0.2049  0.0376
  416loPI   C1B 6653   3.152   6.619  10.194  0.0964 -0.1307  0.2440
  416loPI   C2B 6654   3.106   6.561   9.848 -0.0560  0.0449 -0.0034
  416loPI   C3B 6655   3.063   6.476   9.410  0.2887  0.1406 -0.0281
  416loPI   C4B 6656   3.111   6.534   8.983 -0.2762  0.1704 -0.0468
  417loPI    C1 6657   6.713  14.981  11.481 -0.0748  0.2443  0.2374
  417loPI    C2 6658   6.716  15.381  11.471 -0.1432  0.2423  0.1221
  417loPI    C3 6659   6.374  15.185  11.542 -0.1835  0.1979 -0.1840
  417loPI   PO4 6660   6.826  14.942  11.225 -0.2510  0.2437 -0.0251
  417loPI   GL1 6661   6.866  14.841  10.881  0.0801  0.0806  0.2938
  417loPI   GL2 6662   6.897  15.081  10.620 -0.1341 -0.0183 -0.2693
  417loPI   C1A 6663   6.704  14.603  10.492 -0.0194 -0.0069 -0.1644
  417loPI   C2A 6664   6.676  14.505  10.120  0.0836  0.0362 -0.0743
  417loPI   C3A 6665   6.699  14.497   9.701 -0.0803 -0.0756 -0.1384
  417loPI   C4A 6666   6.644  14.451   9.243  0.0513 -0.1768 -0.3522
  417loPI   C5A 6667   6.606  14.517   8.804  0.0647  0.0854 -0.0905
  417loPI   C6A 6668   6.420  14.590   8.446  0.0319  0.1289  0.1795
  417loPI   C1B 6669   6.890  14.990  10.166  0.1576 -0.0734  0.1012
  417loPI   C2B 6670   6.919  14.994   9.724  0.1346  0.1164 -0.0877
  417loPI   C3B 6671   6.812  14.984   9.384  0.2394  0.2429 -0.0379
  417loPI   C4B 6672   6.715  14.970   9.018  0.1514  0.0665  0.2621
  418loPI    C1 6673  12.388  11.308  10.791  0.2788 -0.2583  0.1314
  418loPI    C2 6674  12.239  11.352  11.160  0.1424  0.0545  0.0429
  418loPI    C3 6675  12.617  11.231  11.110  0.1439 -0.0458  0.2828
  418loPI   PO4 6676  12.284  11.536  10.710 -0.0965  0.1783 -0.0046
  418loPI   GL1 6677  12.249  11.505  10.306 -0.0981  0.0425  0.3627
  418loPI   GL2 6678  12.468  11.827  10.267 -0.1215 -0.0979  0.2053
  418loPI   C1A 6679  12.170  11.525   9.838  0.2270  0.2378 -0.1743
  418loPI   C2A 6680  12.105  11.478   9.429  0.4573  0.1895 -0.3210
  418loPI   C3A 6681  12.031  11.478   9.035 -0.0728  0.0136 -0.1008
  418loPI   C4A 6682  12.080  11.540   8.582  0.1424 -0.0891 -0.1189
  418loPI   C5A 6683  12.058  11.817   8.174 -0.1949  0.0258  0.2107
  418loPI   C6A 6684  11.900  12.229   8.106  0.3328  0.1068  0.0505
  418loPI   C1B 6685  12.411  11.966   9.933  0.1736  0.1650  0.1229
  418loPI   C2B 6686  12.381  12.040   9.480  0.1399 -0.1495  0.0611
  418loPI   C3B 6687  12.319  11.989   9.111 -0.1001 -0.3247 -0.1199
  418loPI   C4B 6688  12.258  12.020   8.590  0.2925 -0.0738 -0.2376
  419loPI    C1 6689  11.240   9.859  10.990  0.1857 -0.2773  0.2205
  419loPI    C2 6690  11.279  10.144  11.269 -0.0750 -0.0202  0.0011
  419loPI    C3 6691  11.079   9.808  11.353 -0.0710  0.0148  0.1523
  419loPI   PO4 6692  11.201   9.963  10.775  0.1931 -0.1007 -0.1099
  419loPI   GL1 6693  11.204   9.894  10.388 -0.1484 -0.3476 -0.1457
  419loPI   GL2 6694  11.335   9.573  10.217 -0.0882  0.0732  0.3859
  419loPI   C1A 6695  11.085   9.925  10.055  0.2576 -0.5985 -0.0249
  419loPI   C2A 6696  10.996  10.044   9.629 -0.2136  0.1564 -0.0877
  419loPI   C3A 6697  11.036  10.027   9.227  0.4144  0.2014  0.0332
  419loPI   C4A 6698  11.017  10.055   8.820  0.0705 -0.1710 -0.3945
  419loPI   C5A 6699  10.918  10.013   8.350  0.4582  0.0603  0.0197
  419loPI   C6A 6700  11.097  10.298   8.129  0.2447  0.0337  0.2654
  419loPI   C1B 6701  11.357   9.631   9.753  0.2231  0.2000 -0.3782
  419loPI   C2B 6702  11.386   9.583   9.342  0.0555 -0.2936 -0.0915
  419loPI   C3B 6703  11.313   9.663   8.956  0.0136  0.1989  0.2924
  419loPI   C4B 6704  11.296   9.683   8.587 -0.1065  0.0688 -0.1386
  420loPI    C1 6705   0.468   8.789  11.197  0.0447  0.0691  0.1945
  420loPI    C2 6706   0.312   9.112  11.373 -0.2448  0.0493 -0.0171
  420loPI    C3 6707   0.485   8.827  11.595 -0.1490  0.2616  0.1862
  420loPI   PO4 6708   0.415   8.894  10.913  0.1334  0.1532 -0.0027
  420loPI   GL1 6709   0.741   8.952  10.499  0.1583  0.0672 -0.3270
  420loPI   GL2 6710   0.487   9.206  10.523  0.1171  0.0741  0.0951
  420loPI   C1A 6711   0.827   8.941  10.107  0.0944 -0.2825  0.2492
  420loPI   C2A 6712   0.728   9.106   9.746 -0.2844 -0.0079 -0.0235
  420loPI   C3A 6713   0.757   9.075   9.366 -0.1210 -0.1473  0.5256
  420loPI   C4A 6714   0.741   9.126   8.893 -0.0531  0.2370 -0.0747
  420loPI   C5A 6715   0.767   8.985   8.464  0.0476  0.1103 -0.0295
  420loPI   C6A 6716   0.851   8.513   8.335 -0.3834 -0.1305 -0.1856
  420loPI   C1B 6717   0.387   9.426  10.139 -0.1049 -0.0815 -0.0032
  420loPI   C2B 6718   0.453   9.507   9.755 -0.0792 -0.1102  0.4590
  420loPI   C3B 6719   0.516   9.489   9.334 -0.2050 -0.1155  0.0526
  420loPI   C4B 6720   0.400   9.546   8.881  0.0670  0.0359  0.1615
  421loPI    C1 6721   1.113  16.129  11.051  0.1132  0.1249  0.1969
  421loPI    C2 6722   1.365  16.033  11.347 -0.0844  0.0731  0.3509
  421loPI    C3 6723   1.019  15.837  11.307  0.0366 -0.0704 -0.0501
  421loPI   PO4 6724   1.321  16.336  10.865  0.1034  0.0246 -0.0872
  421loPI   GL1 6725   1.256  16.488  10.468 -0.1186 -0.0877  0.2230
  421loPI   GL2 6726   1.055  16.298  10.229 -0.0909  0.1034  0.1115
  421loPI   C1A 6727   1.220  16.798  10.147  0.0517  0.0377  0.2858
  421loPI   C2A 6728   1.272  16.794   9.661 -0.0314 -0.0828  0.1691
  421loPI   C3A 6729   1.319  16.765   9.178 -0.1616 -0.0278  0.2311
  421loPI   C4A 6730   1.296  16.864   8.717  0.0853  0.0786 -0.0128
  421loPI   C5A 6731   1.501  16.602   8.368 -0.1070 -0.3674  0.2253
  421loPI   C6A 6732   1.699  16.285   8.227 -0.0103 -0.2697  0.2373
  421loPI   C1B 6733   1.043  16.234   9.785 -0.0201  0.0419 -0.0789
  421loPI   C2B 6734   1.040  16.275   9.387 -0.3306  0.2949 -0.2407
  421loPI   C3B 6735   1.102  16.301   8.942  0.3286  0.1149 -0.0321
  421loPI   C4B 6736   1.062  16.440   8.535 -0.1921 -0.3869  0.2201
  422loPI    C1 6737  13.194   8.192  11.028  0.1695  0.0608 -0.2601
  422loPI    C2 6738  13.548   8.378  11.019  0.1651  0.0943  0.0880
  422loPI    C3 6739  13.522   8.003  11.156  0.0827  0.0474 -0.0526
  422loPI   PO4 6740  13.070   8.251  10.790  0.0061 -0.1515  0.0067
  422loPI   GL1 6741  13.007   8.258  10.392 -0.0214 -0.0392  0.2394
  422loPI   GL2 6742  13.201   7.998  10.255  0.1338 -0.3724 -0.1077
  422loPI   C1A 6743  12.796   8.363  10.038  0.1802  0.3577  0.1859
  422loPI   C2A 6744  12.748   8.353   9.625 -0.1013  0.1441 -0.1204
  422loPI   C3A 6745  12.682   8.470   9.209 -0.0362  0.1996 -0.0059
  422loPI   C4A 6746  12.795   8.482   8.683 -0.0847 -0.1300 -0.0287
  422loPI   C5A 6747  12.585   8.658   8.312  0.3435  0.1074 -0.0248
  422loPI   C6A 6748  12.171   8.727   8.012  0.0901  0.3044  0.2134
  422loPI   C1B 6749  13.160   7.965   9.794 -0.0524 -0.1748  0.3169
  422loPI   C2B 6750  13.027   8.013   9.388  0.1283  0.2652  0.0053
  422loPI   C3B 6751  12.960   8.082   8.943 -0.0992  0.0164  0.0879
  422loPI   C4B 6752  12.996   8.035   8.537 -0.2252  0.1954 -0.0192
  423loPI    C1 6753  17.432   1.176  11.322 -0.0234  0.2419 -0.2018
  423loPI    C2 6754  17.352   1.478  11.572  0.2500 -0.0820  0.2932
  423loPI    C3 6755  17.690   1.479  11.359  0.1822  0.0277  0.1850
  423loPI   PO4 6756  17.098   1.170  11.249 -0.1191 -0.0800  0.2179
  423loPI   GL1 6757  16.915   1.321  10.843  0.2902 -0.3981 -0.0655
  423loPI   GL2 6758  16.968   0.977  10.747 -0.0908 -0.1497  0.1034
  423loPI   C1A 6759  17.109   1.390  10.438  0.0647 -0.1864 -0.0735
  423loPI   C2A 6760  17.145   1.466  10.031 -0.3058 -0.1740  0.0428
  423loPI   C3A 6761  17.065   1.540   9.607 -0.4825  0.1106  0.0501
  423loPI   C4A 6762  17.115   1.582   9.231 -0.0396 -0.0040 -0.1048
  423loPI   C5A 6763  17.179   1.663   8.822  0.1098 -0.0383  0.1782
  423loPI   C6A 6764  17.177   1.453   8.420 -0.1870 -0.1409  0.0465
  423loPI   C1B 6765  16.886   1.054  10.214  0.1428  0.0942 -0.2816
  423loPI   C2B 6766  16.898   1.052   9.749  0.1647  0.3114  0.0952
  423loPI   C3B 6767  16.918   1.092   9.315 -0.0432 -0.0569 -0.0996
  423loPI   C4B 6768  16.926   1.211   8.887 -0.1892  0.2144  0.2091
  424loPI    C1 6769  11.819   7.794  10.918 -0.1075  0.0878 -0.2402
  424loPI    C2 6770  11.627   7.760  11.268  0.0664  0.0825 -0.1443
  424loPI    C3 6771  12.027   7.769  11.259  0.0632  0.0718 -0.3447
  424loPI   PO4 6772  11.594   7.677  10.758  0.1760 -0.0041 -0.0333
  424loPI   GL1 6773  11.540   7.766  10.260  0.1788  0.0758  0.1930
  424loPI   GL2 6774  11.155   7.847  10.283 -0.2157 -0.0869  0.3198
  424loPI   C1A 6775  11.626   7.779   9.824  0.4705 -0.0339 -0.3956
  424loPI   C2A 6776  11.598   7.791   9.383 -0.2453 -0.1518  0.1097
  424loPI   C3A 6777  11.496   7.848   8.998  0.1538  0.1101  0.1813
  424loPI   C4A 6778  11.385   8.067   8.625 -0.3807  0.0593 -0.3863
  424loPI   C5A 6779  11.284   8.168   8.242  0.0429  0.0557  0.0785
  424loPI   C6A 6780  11.147   8.075   7.863 -0.1420  0.2431  0.3044
  424loPI   C1B 6781  11.068   7.775   9.845  0.1399  0.3689 -0.0243
  424loPI   C2B 6782  10.990   7.793   9.367  0.1888 -0.1162 -0.1261
  424loPI   C3B 6783  11.038   7.903   8.930  0.1605  0.0125  0.3267
  424loPI   C4B 6784  10.863   8.048   8.533 -0.2585 -0.1622 -0.1783
  425loPI    C1 6785   2.703   0.175  11.310 -0.1693  0.3347  0.1024
  425loPI    C2 6786   2.715   0.083  11.699 -0.0494  0.0401  0.0316
  425loPI    C3 6787   2.982   0.339  11.546  0.1965 -0.1970  0.0564
  425loPI   PO4 6788   2.715   0.088  10.971 -0.1398  0.4341  0.0779
  425loPI   GL1 6789   2.640   0.006  10.553  0.0519  0.2175 -0.1424
  425loPI   GL2 6790   2.672  -0.225  10.376 -0.1722 -0.3753  0.1149
  425loPI   C1A 6791   2.647   0.129  10.083 -0.0386 -0.2266  0.0672
  425loPI   C2A 6792   2.681   0.088   9.586  0.0042 -0.2029  0.2562
  425loPI   C3A 6793   2.671   0.082   9.198 -0.2336  0.2651  0.0361
  425loPI   C4A 6794   2.806   0.248   8.818  0.1873  0.0820 -0.1021
  425loPI   C5A 6795   2.912   0.625   8.499 -0.0766  0.0374 -0.1469
  425loPI   C6A 6796   2.664   0.925   8.179  0.0187  0.0214  0.0209
  425loPI   C1B 6797   2.471  -0.318  10.019  0.0613  0.1252  0.0317
  425loPI   C2B 6798   2.422  -0.398   9.570 -0.0619 -0.0440  0.1484
  425loPI   C3B 6799   2.441  -0.433   9.212  0.0593 -0.0029  0.1701
  425loPI   C4B 6800   2.581  -0.302   8.780 -0.2239 -0.2240 -0.4109
  426loPI    C1 6801   3.205   5.134  11.017  0.2548 -0.0353  0.0691
  426loPI    C2 6802   3.481   5.368  11.187  0.0349  0.0620  0.2983
  426loPI    C3 6803   3.163   5.248  11.398 -0.2673  0.2215 -0.0558
  426loPI   PO4 6804   3.153   5.269  10.818 -0.2901  0.2483 -0.2211
  426loPI   GL1 6805   3.254   5.209  10.490 -0.0371 -0.1542  0.1832
  426loPI   GL2 6806   3.458   5.181  10.265 -0.0293 -0.0961 -0.0439
  426loPI   C1A 6807   2.921   5.204  10.178  0.1252  0.1301 -0.0163
  426loPI   C2A 6808   2.979   5.030   9.710  0.0119 -0.0094 -0.3997
  426loPI   C3A 6809   2.897   5.093   9.263 -0.4327 -0.0142 -0.2385
  426loPI   C4A 6810   2.864   5.141   8.861  0.2517  0.1502  0.0733
  426loPI   C5A 6811   2.705   5.308   8.491 -0.0604 -0.0821  0.0034
  426loPI   C6A 6812   2.562   5.346   8.021 -0.4012  0.1373  0.1371
  426loPI   C1B 6813   3.495   5.211   9.886  0.0345 -0.1413 -0.0829
  426loPI   C2B 6814   3.412   5.145   9.431 -0.1059 -0.0675 -0.0470
  426loPI   C3B 6815   3.378   5.168   8.928 -0.0078  0.2974  0.1541
  426loPI   C4B 6816   3.284   5.184   8.528 -0.1685  0.1031  0.0095
  427loPI    C1 6817  14.623   7.980  10.992  0.1496 -0.0343 -0.1147
  427loPI    C2 6818  14.395   7.665  11.088  0.0796  0.0431 -0.0260
  427loPI    C3 6819  14.444   7.964  11.349 -0.0959  0.2464 -0.2214
  427loPI   PO4 6820  14.688   7.921  10.731  0.0249 -0.1662 -0.1207
  427loPI   GL1 6821  14.535   7.847  10.361  0.1021 -0.2807 -0.1690
  427loPI   GL2 6822  14.204   7.992  10.275  0.2445 -0.1592  0.0025
  427loPI   C1A 6823  14.606   8.139  10.042  0.0902 -0.0288  0.0881
  427loPI   C2A 6824  14.545   8.240   9.590  0.1137 -0.1645 -0.1451
  427loPI   C3A 6825  14.563   8.165   9.208  0.2623  0.2075  0.0250
  427loPI   C4A 6826  14.581   8.130   8.759  0.2335  0.0865 -0.1188
  427loPI   C5A 6827  14.731   7.853   8.399 -0.1180  0.1007  0.3785
  427loPI   C6A 6828  15.054   7.853   8.091 -0.1701 -0.0887 -0.2470
  427loPI   C1B 6829  14.184   8.005   9.838 -0.1439 -0.0712 -0.2093
  427loPI   C2B 6830  14.102   8.110   9.431  0.0333 -0.1224  0.2002
  427loPI   C3B 6831  14.093   8.157   9.029 -0.0252 -0.0065  0.1883
  427loPI   C4B 6832  14.053   8.155   8.665 -0.1337 -0.1899 -0.1353
  428loPI    C1 6833   1.363  15.419  11.285  0.1005 -0.1698 -0.1485
  428loPI    C2 6834   1.676  15.627  11.422 -0.1693  0.2291 -0.1193
  428loPI    C3 6835   1.348  15.588  11.647 -0.1578 -0.1605 -0.1619
  428loPI   PO4 6836   1.337  15.508  11.070  0.0078 -0.0209 -0.0065
  428loPI   GL1 6837   1.138  15.756  10.692 -0.0087  0.1491  0.1320
  428loPI   GL2 6838   1.306  15.929  10.449 -0.0393  0.0498  0.1327
  428loPI   C1A 6839   1.127  15.474  10.194 -0.0338 -0.0819  0.2616
  428loPI   C2A 6840   1.121  15.476   9.691  0.0840  0.0961  0.1154
  428loPI   C3A 6841   1.081  15.484   9.308  0.2682  0.2356  0.1867
  428loPI   C4A 6842   1.159  15.439   8.971  0.1984  0.0609 -0.0147
  428loPI   C5A 6843   1.181  15.228   8.611 -0.0994 -0.1192 -0.0865
  428loPI   C6A 6844   1.086  14.766   8.513 -0.1435 -0.1232 -0.1720
  428loPI   C1B 6845   1.359  15.899   9.949 -0.0666  0.0912  0.0201
  428loPI   C2B 6846   1.291  15.908   9.482 -0.1529 -0.1044  0.0743
  428loPI   C3B 6847   1.420  15.904   9.077 -0.0759 -0.1037 -0.0742
  428loPI   C4B 6848   1.480  16.042   8.652  0.0609 -0.1574  0.2849
  429loPI    C1 6849   3.370   4.140  11.068 -0.1096  0.0218  0.2533
  429loPI    C2 6850   3.510   4.402  11.336 -0.1865  0.1289  0.1897
  429loPI    C3 6851   3.442   4.023  11.443  0.0757  0.0950  0.2415
  429loPI   PO4 6852   3.118   4.173  11.002 -0.2230  0.1559 -0.0032
  429loPI   GL1 6853   3.016   4.187  10.609  0.0447 -0.1717  0.0335
  429loPI   GL2 6854   2.736   4.411  10.703 -0.1572 -0.2361 -0.0081
  429loPI   C1A 6855   2.996   4.189  10.148 -0.5011  0.0587 -0.0710
  429loPI   C2A 6856   2.946   4.195   9.673 -0.0484  0.0014 -0.2524
  429loPI   C3A 6857   3.005   4.170   9.287  0.1403 -0.0288  0.1713
  429loPI   C4A 6858   3.178   4.185   8.820  0.2232 -0.2921 -0.0133
  429loPI   C5A 6859   3.276   4.261   8.347  0.2041  0.0429 -0.3316
  429loPI   C6A 6860   3.298   4.557   8.017  0.1332  0.0487 -0.2499
  429loPI   C1B 6861   2.635   4.640  10.246  0.0065 -0.1347 -0.0249
  429loPI   C2B 6862   2.707   4.638   9.814  0.0549  0.2467  0.1390
  429loPI   C3B 6863   2.756   4.663   9.376 -0.0563  0.4082 -0.0697
  429loPI   C4B 6864   2.717   4.656   8.893 -0.1081  0.0571  0.1450
  430loPI    C1 6865   5.426   1.530  11.066  0.2658  0.1278  0.1195
  430loPI    C2 6866   5.163   1.826  11.005 -0.1058 -0.1860  0.1586
  430loPI    C3 6867   5.292   1.745  11.375  0.1734  0.0687  0.1209
  430loPI   PO4 6868   5.362   1.404  10.835 -0.0093  0.2839  0.2526
  430loPI   GL1 6869   5.178   1.657  10.509  0.3080 -0.3321 -0.0054
  430loPI   GL2 6870   5.414   1.767  10.435  0.1972 -0.0946  0.0653
  430loPI   C1A 6871   4.827   1.643  10.181  0.0438 -0.3709  0.0258
  430loPI   C2A 6872   4.856   1.742   9.745 -0.3019 -0.1313 -0.0490
  430loPI   C3A 6873   4.904   1.690   9.288  0.1374 -0.1289 -0.0005
  430loPI   C4A 6874   4.850   1.674   8.881  0.1217 -0.0521  0.1027
  430loPI   C5A 6875   4.783   1.741   8.403  0.0231  0.0830 -0.0139
  430loPI   C6A 6876   5.004   1.744   8.186  0.1784  0.2381 -0.1226
  430loPI   C1B 6877   5.353   1.711   9.996 -0.1063  0.1747 -0.1285
  430loPI   C2B 6878   5.350   1.800   9.525 -0.1232 -0.0422 -0.0103
  430loPI   C3B 6879   5.395   1.748   9.061  0.0752  0.0710  0.0438
  430loPI   C4B 6880   5.372   1.698   8.590  0.1898  0.0398 -0.0704
  431loPI    C1 6881  10.957  16.795  11.223  0.2252 -0.1047  0.1528
  431loPI    C2 6882  10.561  16.845  11.202  0.2660  0.1242 -0.1527
  431loPI    C3 6883  10.744  16.845  11.558 -0.0486 -0.3510  0.0200
  431loPI   PO4 6884  11.029  16.720  11.078  0.1692 -0.0067  0.1876
  431loPI   GL1 6885  10.870  16.650  10.635 -0.0590 -0.1502 -0.0700
  431loPI   GL2 6886  10.942  17.060  10.622 -0.0158 -0.0706 -0.1266
  431loPI   C1A 6887  10.874  16.485  10.211  0.0728  0.2381 -0.0626
  431loPI   C2A 6888  10.923  16.492   9.775 -0.0045 -0.0797  0.2303
  431loPI   C3A 6889  10.931  16.300   9.314 -0.1420 -0.1247  0.0329
  431loPI   C4A 6890  10.907  16.389   8.854 -0.2134  0.2233 -0.3968
  431loPI   C5A 6891  10.842  16.365   8.493 -0.1062 -0.1197 -0.1414
  431loPI   C6A 6892  10.994  16.207   8.151 -0.1203  0.1686  0.0330
  431loPI   C1B 6893  11.094  16.893  10.179  0.1632  0.0477 -0.3592
  431loPI   C2B 6894  11.142  16.924   9.759  0.1175 -0.1033  0.4189
  431loPI   C3B 6895  11.169  16.808   9.357  0.0324 -0.0419 -0.0033
  431loPI   C4B 6896  11.179  16.910   8.855 -0.1578  0.0237 -0.3110
  432loPI    C1 6897  15.784   6.270  10.961 -0.0827  0.1123 -0.2756
  432loPI    C2 6898  15.776   6.645  11.101  0.0876  0.0208 -0.0122
  432loPI    C3 6899  16.026   6.378  11.260 -0.1820 -0.2625 -0.0540
  432loPI   PO4 6900  15.724   6.276  10.684  0.2073 -0.4810 -0.4534
  432loPI   GL1 6901  15.669   6.117  10.246  0.1430  0.0797 -0.0043
  432loPI   GL2 6902  15.791   5.830  10.343 -0.0603  0.3850  0.0865
  432loPI   C1A 6903  15.621   5.992   9.764  0.0097  0.0726  0.0499
  432loPI   C2A 6904  15.639   5.936   9.368  0.1585 -0.5007  0.0777
  432loPI   C3A 6905  15.562   5.949   8.949  0.0568 -0.1772 -0.0817
  432loPI   C4A 6906  15.608   6.002   8.465 -0.0823 -0.2164 -0.0673
  432loPI   C5A 6907  15.377   6.324   8.274  0.1856 -0.0406  0.2158
  432loPI   C6A 6908  15.007   6.545   8.098  0.0586 -0.1743 -0.2924
  432loPI   C1B 6909  15.890   5.645   9.981 -0.1860  0.2412  0.0808
  432loPI   C2B 6910  15.920   5.626   9.504  0.0925 -0.0034 -0.1238
  432loPI   C3B 6911  15.833   5.563   9.061 -0.2477  0.0208 -0.4180
  432loPI   C4B 6912  16.080   5.598   8.674 -0.3130 -0.1954  0.0217
  433loPI    C1 6913  14.658   9.694  10.408 -0.0816  0.0096 -0.0616
  433loPI    C2 6914  14.275   9.715  10.524 -0.0897 -0.2579 -0.0350
  433loPI    C3 6915  14.534   9.999  10.635 -0.2912 -0.0472 -0.0979
  433loPI   PO4 6916  14.705   9.382  10.344  0.1751  0.2625 -0.3754
  433loPI   GL1 6917  14.542   8.981  10.153 -0.0723  0.5566 -0.1935
  433loPI   GL2 6918  14.345   8.723  10.273  0.0334  0.0010  0.0818
  433loPI   C1A 6919  14.436   9.052   9.697 -0.3308 -0.3093  0.2224
  433loPI   C2A 6920  14.431   9.048   9.216 -0.0239  0.2736  0.0035
  433loPI   C3A 6921  14.481   9.046   8.798  0.0158  0.0250  0.3862
  433loPI   C4A 6922  14.452   9.179   8.505  0.1055  0.1810  0.1392
  433loPI   C5A 6923  14.447   9.447   8.128 -0.0762  0.0023 -0.1902
  433loPI   C6A 6924  14.723   9.759   7.980  0.3415  0.2088 -0.0172
  433loPI   C1B 6925  14.281   8.601   9.855  0.2493  0.1755  0.1038
  433loPI   C2B 6926  14.215   8.626   9.385 -0.1976  0.1530 -0.0909
  433loPI   C3B 6927  14.263   8.639   8.979 -0.0542 -0.0408  0.0183
  433loPI   C4B 6928  14.195   8.661   8.558 -0.1317 -0.0572 -0.0049
  434loPI    C1 6929  14.249  15.688  11.086  0.0284 -0.3010 -0.0629
  434loPI    C2 6930  13.968  15.459  11.256 -0.1670 -0.1128 -0.1280
  434loPI    C3 6931  14.242  15.642  11.484 -0.1654 -0.2064 -0.0542
  434loPI   PO4 6932  14.283  15.637  10.932 -0.1012 -0.2938 -0.0218
  434loPI   GL1 6933  14.301  15.457  10.590 -0.3652 -0.1158  0.2951
  434loPI   GL2 6934  14.179  15.835  10.484  0.0039 -0.2037  0.1393
  434loPI   C1A 6935  14.433  15.462  10.199 -0.3900  0.1139  0.2437
  434loPI   C2A 6936  14.306  15.389   9.732  0.1557 -0.2500  0.4900
  434loPI   C3A 6937  14.373  15.370   9.330  0.0956  0.2415 -0.1337
  434loPI   C4A 6938  14.317  15.399   8.956  0.0843  0.2924  0.0038
  434loPI   C5A 6939  14.330  15.378   8.482 -0.1677 -0.2041 -0.2934
  434loPI   C6A 6940  14.000  15.437   8.179 -0.0402 -0.1631  0.0298
  434loPI   C1B 6941  14.113  15.771   9.992  0.1053  0.0763 -0.3122
  434loPI   C2B 6942  14.006  15.775   9.484 -0.1814  0.3226  0.0990
  434loPI   C3B 6943  14.084  15.822   9.023 -0.2439 -0.3343  0.0047
  434loPI   C4B 6944  14.132  15.786   8.711 -0.3552  0.0084 -0.0753
  435loPI    C1 6945  16.181  17.379  11.264  0.0383  0.0104 -0.0405
  435loPI    C2 6946  16.093  17.347  11.653 -0.1121 -0.1915 -0.0894
  435loPI    C3 6947  16.066  17.027  11.414  0.1339 -0.1061 -0.2362
  435loPI   PO4 6948  16.386  17.454  11.165 -0.3936 -0.1153  0.0259
  435loPI   GL1 6949  16.453  17.537  10.802 -0.3424 -0.0326 -0.0487
  435loPI   GL2 6950  16.647  17.679  10.601  0.3038  0.1739 -0.0885
  435loPI   C1A 6951  16.376  17.331  10.384  0.1053  0.1423  0.2114
  435loPI   C2A 6952  16.268  17.353  10.078  0.1483  0.0950 -0.1283
  435loPI   C3A 6953  16.340  17.363   9.757 -0.0353  0.1309 -0.0855
  435loPI   C4A 6954  16.271  17.463   9.285 -0.3001 -0.0576 -0.3721
  435loPI   C5A 6955  16.170  17.484   8.915 -0.0014  0.0838 -0.1706
  435loPI   C6A 6956  16.316  17.257   8.617  0.0437 -0.1478  0.1259
  435loPI   C1B 6957  16.576  17.870  10.208 -0.3136 -0.1514  0.1106
  435loPI   C2B 6958  16.527  17.872   9.760 -0.1593  0.2545  0.1442
  435loPI   C3B 6959  16.541  17.826   9.355  0.0664 -0.1641 -0.0680
  435loPI   C4B 6960  16.476  17.924   8.920  0.1304 -0.0301 -0.1254
  436loPI    C1 6961  13.823   9.547  10.765 -0.0170  0.2247 -0.0518
  436loPI    C2 6962  14.131   9.364  10.942 -0.0708 -0.0469 -0.2328
  436loPI    C3 6963  13.799   9.443  11.151 -0.0639 -0.1974 -0.1633
  436loPI   PO4 6964  13.821   9.408  10.556 -0.0319  0.0513 -0.1222
  436loPI   GL1 6965  13.840   9.378  10.155 -0.1377  0.0841 -0.1181
  436loPI   GL2 6966  13.915   9.771  10.119  0.1655  0.5092 -0.0029
  436loPI   C1A 6967  13.645   9.492   9.728  0.0935  0.0802 -0.0399
  436loPI   C2A 6968  13.577   9.538   9.319 -0.1684 -0.0048 -0.1137
  436loPI   C3A 6969  13.697   9.520   8.956  0.1339 -0.1250 -0.2275
  436loPI   C4A 6970  13.650   9.470   8.582 -0.1344  0.0851  0.0217
  436loPI   C5A 6971  13.926   9.589   8.207 -0.0763 -0.0126  0.0939
  436loPI   C6A 6972  14.121   9.773   7.906 -0.1761 -0.0645  0.1497
  436loPI   C1B 6973  13.912  10.048   9.773 -0.0885  0.1347 -0.2257
  436loPI   C2B 6974  13.913  10.074   9.443 -0.1803  0.2886  0.2340
  436loPI   C3B 6975  13.820   9.972   9.036 -0.1904  0.2463  0.1364
  436loPI   C4B 6976  13.832   9.983   8.538  0.1955 -0.1760  0.3401
  437loPI    C1 6977  12.610   1.105  11.305 -0.0264 -0.2608 -0.1271
  437loPI    C2 6978  12.464   1.454  11.175  0.1344 -0.2188 -0.1977
  437loPI    C3 6979  12.324   1.292  11.513  0.2682  0.0627 -0.0031
  437loPI   PO4 6980  12.620   0.957  11.053  0.2236  0.2525 -0.0766
  437loPI   GL1 6981  12.515   1.267  10.723 -0.2914 -0.0170  0.2653
  437loPI   GL2 6982  12.406   1.060  10.575 -0.2313 -0.2654  0.2801
  437loPI   C1A 6983  12.629   1.505  10.353  0.2028 -0.0713  0.0020
  437loPI   C2A 6984  12.803   1.521   9.935 -0.2818 -0.1766 -0.0785
  437loPI   C3A 6985  12.786   1.493   9.503  0.0302 -0.0755 -0.0741
  437loPI   C4A 6986  12.767   1.569   9.001 -0.2216 -0.2533  0.3010
  437loPI   C5A 6987  12.669   1.443   8.582 -0.4262  0.0648  0.0620
  437loPI   C6A 6988  12.952   1.425   8.207 -0.1270  0.2159 -0.0646
  437loPI   C1B 6989  12.561   1.065  10.133 -0.0705  0.0016 -0.2038
  437loPI   C2B 6990  12.601   1.064   9.654  0.1057 -0.2497  0.1074
  437loPI   C3B 6991  12.598   1.108   9.205  0.0717 -0.0714 -0.0962
  437loPI   C4B 6992  12.400   1.038   8.804 -0.2404 -0.2603  0.1249
  438loPI    C1 6993   0.251  15.138  11.338  0.0551  0.1324 -0.1351
  438loPI    C2 6994   0.068  15.425  11.547  0.0759  0.1066 -0.0811
  438loPI    C3 6995   0.340  15.191  11.724 -0.0362 -0.0318 -0.0905
  438loPI   PO4 6996   0.090  14.975  11.239  0.0722 -0.2258 -0.4821
  438loPI   GL1 6997  -0.069  14.882  10.802  0.1327 -0.1941 -0.2068
  438loPI   GL2 6998  -0.071  14.588  10.809  0.0820 -0.1090  0.2352
  438loPI   C1A 6999  -0.070  14.891  10.324 -0.0236  0.0334 -0.2054
  438loPI   C2A 7000  -0.148  14.804   9.855  0.1958  0.0363 -0.0244
  438loPI   C3A 7001  -0.098  14.939   9.438 -0.2909  0.2075 -0.0869
  438loPI   C4A 7002  -0.143  14.884   9.031 -0.1621  0.1029 -0.2393
  438loPI   C5A 7003  -0.024  14.920   8.527 -0.0326 -0.0066  0.0423
  438loPI   C6A 7004   0.229  14.986   8.143  0.2267  0.0094 -0.3494
  438loPI   C1B 7005  -0.344  14.394  10.455  0.1930 -0.1903  0.2064
  438loPI   C2B 7006  -0.403  14.329   9.971 -0.1044  0.1115 -0.1008
  438loPI   C3B 7007  -0.398  14.473   9.559 -0.2678  0.3146 -0.0162
  438loPI   C4B 7008  -0.474  14.520   9.172 -0.1637  0.3646  0.1755
  439loPI    C1 7009  11.130   7.293  11.381  0.0426  0.1424 -0.0042
  439loPI    C2 7010  11.275   7.613  11.574  0.0082 -0.0485  0.3470
  439loPI    C3 7011  10.903   7.486  11.648 -0.1121  0.0470 -0.0657
  439loPI   PO4 7012  11.177   7.364  11.093 -0.2299  0.0513  0.1556
  439loPI   GL1 7013  10.957   7.273  10.723 -0.2133  0.0911 -0.2347
  439loPI   GL2 7014  11.284   7.356  10.474 -0.1297  0.1354  0.1720
  439loPI   C1A 7015  10.862   7.238  10.299 -0.0635  0.1804 -0.0542
  439loPI   C2A 7016  10.836   7.202   9.835  0.0148  0.1961 -0.1815
  439loPI   C3A 7017  10.859   7.288   9.441  0.0501  0.0013  0.0978
  439loPI   C4A 7018  10.846   7.365   8.939 -0.3209  0.2410  0.1718
  439loPI   C5A 7019  10.848   7.496   8.514 -0.0461 -0.0499 -0.0254
  439loPI   C6A 7020  10.957   7.680   8.083 -0.0514  0.2487 -0.2036
  439loPI   C1B 7021  11.267   7.338   9.998  0.0803  0.2269  0.2081
  439loPI   C2B 7022  11.388   7.348   9.581 -0.2941  0.4549  0.0051
  439loPI   C3B 7023  11.339   7.351   9.108  0.1820 -0.1444 -0.2523
  439loPI   C4B 7024  11.332   7.517   8.695  0.0139 -0.0023 -0.1590
  440loPI    C1 7025   2.258  14.942  11.433 -0.1250 -0.0080 -0.0815
  440loPI    C2 7026   1.960  15.176  11.560  0.0535  0.1373  0.0769
  440loPI    C3 7027   2.276  15.110  11.796  0.0883 -0.1201 -0.0383
  440loPI   PO4 7028   2.272  15.052  11.070 -0.1104  0.0924 -0.0219
  440loPI   GL1 7029   2.274  15.337  10.710  0.0793 -0.1836 -0.0621
  440loPI   GL2 7030   2.084  15.098  10.549  0.0698 -0.1970  0.1584
  440loPI   C1A 7031   2.592  15.510  10.482  0.0537 -0.4181 -0.0384
  440loPI   C2A 7032   2.611  15.549   9.980  0.2757 -0.2338 -0.1378
  440loPI   C3A 7033   2.716  15.568   9.436 -0.1455 -0.1823  0.3564
  440loPI   C4A 7034   2.623  15.631   9.045 -0.1377 -0.1159 -0.1622
  440loPI   C5A 7035   2.701  15.598   8.608  0.0788  0.1374  0.0621
  440loPI   C6A 7036   2.639  15.235   8.345 -0.1409 -0.0746 -0.1197
  440loPI   C1B 7037   1.923  15.095  10.146  0.0849 -0.0381  0.2718
  440loPI   C2B 7038   1.820  15.070   9.679 -0.0089  0.0647  0.1408
  440loPI   C3B 7039   1.907  15.051   9.252  0.1303  0.2141  0.3294
  440loPI   C4B 7040   1.978  15.095   8.735 -0.0891 -0.3718  0.0328
  441loPI    C1 7041   6.007   7.637  10.935 -0.0571  0.2109 -0.3208
  441loPI    C2 7042   5.973   7.839  11.278 -0.1003 -0.1669 -0.0969
  441loPI    C3 7043   5.673   7.605  11.154 -0.0279 -0.1428 -0.3215
  441loPI   PO4 7044   6.104   7.778  10.770 -0.0364 -0.1753  0.0919
  441loPI   GL1 7045   6.031   8.035  10.379 -0.0460  0.1005 -0.0228
  441loPI   GL2 7046   6.181   7.677  10.100  0.0920  0.0552 -0.1979
  441loPI   C1A 7047   5.837   8.200   9.883 -0.0394 -0.1632  0.2990
  441loPI   C2A 7048   5.855   8.163   9.443 -0.2124  0.0493  0.2482
  441loPI   C3A 7049   5.795   8.186   8.994  0.1196  0.3286 -0.1295
  441loPI   C4A 7050   5.681   8.186   8.485  0.2921 -0.1564 -0.3249
  441loPI   C5A 7051   5.836   8.147   8.073  0.2141  0.2731 -0.1205
  441loPI   C6A 7052   6.114   7.869   7.887  0.0636 -0.2771 -0.2225
  441loPI   C1B 7053   6.098   7.669   9.680  0.2259  0.0206  0.1107
  441loPI   C2B 7054   6.072   7.764   9.295 -0.2652 -0.0014  0.0286
  441loPI   C3B 7055   6.098   7.733   8.889  0.0444 -0.0254 -0.0135
  441loPI   C4B 7056   6.005   7.819   8.436 -0.2200  0.3462  0.0784
  442loPI    C1 7057   7.948   0.381  11.076  0.2564  0.0075 -0.0899
  442loPI    C2 7058   8.347   0.392  11.058  0.2661 -0.2514 -0.0747
  442loPI    C3 7059   8.166   0.158  11.327  0.1035 -0.1362 -0.0830
  442loPI   PO4 7060   7.854   0.379  10.843 -0.0477 -0.1725  0.0868
  442loPI   GL1 7061   7.859   0.372  10.402  0.2576  0.1476  0.1536
  442loPI   GL2 7062   7.820   0.014  10.366 -0.2580 -0.1427 -0.0625
  442loPI   C1A 7063   7.832   0.702  10.151  0.0958  0.1283 -0.1230
  442loPI   C2A 7064   7.870   0.698   9.693  0.0380  0.0609  0.1046
  442loPI   C3A 7065   7.737   0.675   9.303  0.1484  0.2564  0.1696
  442loPI   C4A 7066   7.830   0.521   8.888  0.1444  0.1543  0.1166
  442loPI   C5A 7067   7.741   0.439   8.500  0.1244 -0.0486 -0.0805
  442loPI   C6A 7068   7.628   0.607   8.167  0.0032  0.1682 -0.3397
  442loPI   C1B 7069   8.140   0.147   9.941  0.0273  0.0985  0.1650
  442loPI   C2B 7070   8.053   0.297   9.573 -0.0685 -0.0327 -0.0852
  442loPI   C3B 7071   8.137   0.157   9.208 -0.0499 -0.1351 -0.0898
  442loPI   C4B 7072   7.996   0.057   8.842  0.2154 -0.2793  0.1726
  443loPI    C1 7073   5.615   7.163  10.918 -0.0075  0.0930  0.1112
  443loPI    C2 7074   5.721   6.782  10.976  0.1222  0.0813 -0.1853
  443loPI    C3 7075   5.625   7.012  11.288  0.1464 -0.1629  0.0056
  443loPI   PO4 7076   5.650   7.238  10.786 -0.2037  0.3688  0.2136
  443loPI   GL1 7077   5.580   7.417  10.320 -0.0390 -0.1761  0.0513
  443loPI   GL2 7078   5.658   7.751  10.130  0.1334 -0.3742 -0.1197
  443loPI   C1A 7079   5.913   7.286  10.032  0.0486 -0.1220  0.0659
  443loPI   C2A 7080   5.902   7.182   9.602 -0.1420  0.0734  0.0999
  443loPI   C3A 7081   6.008   7.202   9.146 -0.0072 -0.1285 -0.1101
  443loPI   C4A 7082   5.832   7.309   8.815  0.1119 -0.3512 -0.0143
  443loPI   C5A 7083   5.858   7.049   8.405  0.2922  0.3624  0.0540
  443loPI   C6A 7084   5.814   6.654   8.122  0.1652  0.4412 -0.4411
  443loPI   C1B 7085   5.608   7.750   9.784  0.1719  0.0186  0.0816
  443loPI   C2B 7086   5.624   7.746   9.432 -0.0359  0.3116  0.0811
  443loPI   C3B 7087   5.567   7.739   8.972  0.0887  0.1952  0.1156
  443loPI   C4B 7088   5.575   7.677   8.518  0.0163  0.2491  0.1505
  444loPI    C1 7089  17.020  13.252  11.270  0.0319  0.0686 -0.3366
  444loPI    C2 7090  17.227  13.586  11.195 -0.1013  0.2463  0.0624
  444loPI    C3 7091  17.399  13.284  11.393  0.0204  0.0714 -0.3016
  444loPI   PO4 7092  16.953  13.171  11.077  0.0724 -0.1357  0.3442
  444loPI   GL1 7093  17.017  13.162  10.582 -0.0637 -0.3212 -0.4093
  444loPI   GL2 7094  16.890  12.932  10.583 -0.1292  0.1171 -0.2471
  444loPI   C1A 7095  17.029  13.426  10.199 -0.2966 -0.2415  0.1990
  444loPI   C2A 7096  16.920  13.414   9.746  0.0187  0.1205  0.0008
  444loPI   C3A 7097  16.918  13.483   9.356  0.2168  0.0283  0.2707
  444loPI   C4A 7098  16.871  13.478   8.934  0.0798  0.1017  0.0725
  444loPI   C5A 7099  16.865  13.354   8.587 -0.2642 -0.2101 -0.0692
  444loPI   C6A 7100  17.024  13.792   8.373 -0.2262 -0.1082  0.0284
  444loPI   C1B 7101  16.850  12.941  10.123 -0.0571 -0.2221  0.2570
  444loPI   C2B 7102  16.698  12.922   9.627  0.0818 -0.0928 -0.2023
  444loPI   C3B 7103  16.697  12.997   9.186  0.1666  0.0936 -0.0272
  444loPI   C4B 7104  16.697  12.890   8.659  0.0445 -0.0132  0.0324
  445loPI    C1 7105   2.911   1.306  11.427 -0.0493 -0.0364  0.1520
  445loPI    C2 7106   3.217   1.506  11.589 -0.0734  0.0901  0.0432
  445loPI    C3 7107   2.952   1.321  11.825 -0.0107  0.1263  0.1426
  445loPI   PO4 7108   2.932   1.363  11.209 -0.0137  0.2236  0.1490
  445loPI   GL1 7109   2.900   1.172  10.843 -0.0280  0.0358  0.3055
  445loPI   GL2 7110   2.747   1.433  10.767  0.3209 -0.1842 -0.0463
  445loPI   C1A 7111   2.913   0.994  10.433 -0.2026 -0.0916  0.0115
  445loPI   C2A 7112   3.146   0.924  10.017 -0.1711 -0.1028 -0.1062
  445loPI   C3A 7113   3.101   1.035   9.673  0.4289  0.1227 -0.2668
  445loPI   C4A 7114   3.178   1.057   9.223 -0.0110 -0.3090  0.1550
  445loPI   C5A 7115   3.168   1.087   8.807 -0.1606  0.0383  0.1070
  445loPI   C6A 7116   3.001   1.227   8.446 -0.0764 -0.1826  0.0708
  445loPI   C1B 7117   2.738   1.449  10.351  0.0274  0.0493  0.0149
  445loPI   C2B 7118   2.830   1.451   9.880  0.0483  0.0270  0.4871
  445loPI   C3B 7119   2.772   1.467   9.476  0.2418 -0.1070 -0.0744
  445loPI   C4B 7120   2.800   1.460   9.088  0.0247 -0.0987  0.0079
  446loPI    C1 7121   0.626   4.808  10.990 -0.2222  0.0828  0.2135
  446loPI    C2 7122   0.939   4.705  11.216 -0.0459  0.2772  0.0617
  446loPI    C3 7123   0.654   4.944  11.365 -0.1157  0.1134  0.1947
  446loPI   PO4 7124   0.750   4.836  10.756 -0.1763 -0.0669  0.1322
  446loPI   GL1 7125   0.630   4.729  10.413  0.2349  0.1215  0.1636
  446loPI   GL2 7126   0.560   4.447  10.367 -0.3117  0.4045 -0.0426
  446loPI   C1A 7127   0.292   4.919  10.144 -0.0612  0.2443  0.2659
  446loPI   C2A 7128   0.300   4.935   9.778 -0.1212  0.1055  0.0032
  446loPI   C3A 7129   0.300   4.834   9.288 -0.0474 -0.1267  0.1950
  446loPI   C4A 7130   0.222   4.832   8.856  0.1539  0.4363  0.0796
  446loPI   C5A 7131  -0.244   4.709   8.627  0.1945 -0.1018  0.2259
  446loPI   C6A 7132  -0.350   4.489   8.274  0.1075  0.0957  0.2147
  446loPI   C1B 7133   0.583   4.471  10.018 -0.0148  0.0497  0.1014
  446loPI   C2B 7134   0.589   4.444   9.566 -0.2970 -0.1386 -0.0357
  446loPI   C3B 7135   0.629   4.373   9.163 -0.0502 -0.0095 -0.0764
  446loPI   C4B 7136   0.580   4.479   8.748  0.1255 -0.0001 -0.1016
  447loPI    C1 7137  17.409  16.465  11.470  0.0378  0.0690 -0.0764
  447loPI    C2 7138  17.741  16.665  11.573 -0.0084  0.1166 -0.0192
  447loPI    C3 7139  17.657  16.314  11.746  0.0498  0.0688 -0.0875
  447loPI   PO4 7140  17.403  16.500  11.231 -0.2942 -0.3230 -0.1039
  447loPI   GL1 7141  17.376  16.518  10.807  0.0397 -0.2426  0.2648
  447loPI   GL2 7142  17.670  16.685  10.723 -0.3634  0.1127 -0.0286
  447loPI   C1A 7143  17.327  16.502  10.441  0.0713 -0.0064  0.2610
  447loPI   C2A 7144  17.458  16.674  10.020  0.0799 -0.0546 -0.0422
  447loPI   C3A 7145  17.477  16.668   9.573  0.1639  0.0716  0.0532
  447loPI   C4A 7146  17.569  16.649   9.179 -0.0246 -0.3377  0.1760
  447loPI   C5A 7147  17.537  16.813   8.744  0.0710 -0.1072  0.0208
  447loPI   C6A 7148  17.513  17.227   8.524  0.0039 -0.1818  0.0458
  447loPI   C1B 7149  18.011  16.704  10.346 -0.2031 -0.3022  0.1833
  447loPI   C2B 7150  17.999  16.693   9.832 -0.1090  0.2311 -0.2605
  447loPI   C3B 7151  18.058  16.721   9.342  0.4362  0.2338  0.0358
  447loPI   C4B 7152  18.048  16.716   8.836 -0.1837 -0.2668  0.0042
  448loPI    C1 7153  14.997   5.336  11.002  0.0825  0.3631  0.0325
  448loPI    C2 7154  15.390   5.298  10.940  0.0447 -0.0371  0.0091
  448loPI    C3 7155  15.173   4.980  11.047 -0.3204  0.1211 -0.2411
  448loPI   PO4 7156  14.927   5.477  10.812 -0.1985 -0.1411  0.0532
  448loPI   GL1 7157  14.839   5.549  10.445 -0.0121 -0.1165  0.1689
  448loPI   GL2 7158  14.620   5.777  10.300 -0.0897 -0.1716 -0.1850
  448loPI   C1A 7159  14.867   5.429  10.015 -0.1276 -0.1051 -0.1227
  448loPI   C2A 7160  14.906   5.481   9.660 -0.4421 -0.0181  0.0600
  448loPI   C3A 7161  14.863   5.579   9.296 -0.1055  0.0431 -0.1398
  448loPI   C4A 7162  14.830   5.368   8.927 -0.2156 -0.1448 -0.0662
  448loPI   C5A 7163  14.907   5.388   8.498 -0.1231  0.0680  0.2230
  448loPI   C6A 7164  14.627   5.676   8.290  0.2144  0.3773 -0.1568
  448loPI   C1B 7165  14.581   5.842   9.891  0.0969  0.1036  0.0724
  448loPI   C2B 7166  14.577   5.915   9.528  0.2607  0.2078 -0.0766
  448loPI   C3B 7167  14.597   5.984   9.143 -0.1100  0.1878 -0.0482
  448loPI   C4B 7168  14.423   5.967   8.671 -0.5078  0.1531  0.1806
  449loPI    C1 7169   8.351   6.938  11.118  0.0913 -0.2154 -0.0186
  449loPI    C2 7170   8.607   7.113  11.370 -0.1765  0.0007  0.1084
  449loPI    C3 7171   8.355   6.833  11.504 -0.0273 -0.1927 -0.0107
  449loPI   PO4 7172   8.454   6.918  10.845 -0.1538  0.1228 -0.1875
  449loPI   GL1 7173   8.267   6.678  10.493  0.0924 -0.1136  0.0092
  449loPI   GL2 7174   8.610   6.626  10.463 -0.1855 -0.0554  0.0566
  449loPI   C1A 7175   8.057   6.546  10.136  0.2242  0.2422  0.0482
  449loPI   C2A 7176   8.156   6.548   9.678  0.2209  0.0441  0.1084
  449loPI   C3A 7177   8.056   6.583   9.263 -0.0912 -0.0415 -0.1690
  449loPI   C4A 7178   8.046   6.560   8.796  0.1337  0.3778  0.2486
  449loPI   C5A 7179   8.059   6.755   8.444  0.1164 -0.1509  0.1016
  449loPI   C6A 7180   8.267   7.136   8.382  0.0060  0.1747 -0.2407
  449loPI   C1B 7181   8.589   6.540   9.989 -0.0655 -0.1841  0.2047
  449loPI   C2B 7182   8.610   6.595   9.471  0.2780  0.1814 -0.0982
  449loPI   C3B 7183   8.575   6.603   9.075 -0.0606  0.0132 -0.0128
  449loPI   C4B 7184   8.511   6.709   8.672 -0.1474  0.0625 -0.1289
  450loPI    C1 7185  13.805   7.979  10.737  0.0567  0.0828  0.0803
  450loPI    C2 7186  14.203   8.021  10.731  0.1029 -0.3009  0.1947
  450loPI    C3 7187  14.017   7.923  11.071 -0.1073  0.0096  0.1735
  450loPI   PO4 7188  13.694   7.865  10.487 -0.1559  0.0333  0.0610
  450loPI   GL1 7189  13.904   7.630  10.152  0.0718  0.0781  0.1217
  450loPI   GL2 7190  13.883   7.222  10.264  0.2840  0.1089  0.1435
  450loPI   C1A 7191  13.925   7.550   9.699  0.1565 -0.1385 -0.0728
  450loPI   C2A 7192  13.881   7.694   9.288  0.0069  0.2743 -0.5104
  450loPI   C3A 7193  13.844   7.650   8.905  0.3238 -0.0082 -0.1718
  450loPI   C4A 7194  13.821   7.694   8.440 -0.1009 -0.0837  0.0086
  450loPI   C5A 7195  13.727   7.806   8.059  0.0277  0.0760 -0.1537
  450loPI   C6A 7196  13.755   8.039   7.701  0.0128  0.1963 -0.1883
  450loPI   C1B 7197  13.760   7.067   9.858  0.1370  0.0476  0.0533
  450loPI   C2B 7198  13.740   7.190   9.403  0.1204 -0.0005 -0.0304
  450loPI   C3B 7199  13.625   7.204   9.025  0.3486 -0.0358 -0.0642
  450loPI   C4B 7200  13.609   7.231   8.621 -0.0904  0.0649  0.0464
  451loPI    C1 7201   6.584   2.461  11.000 -0.0169  0.0064  0.0496
  451loPI    C2 7202   6.721   2.415  11.373 -0.0256  0.0456  0.0577
  451loPI    C3 7203   6.392   2.632  11.306  0.0878  0.2041  0.0068
  451loPI   PO4 7204   6.611   2.227  10.923  0.0806  0.0151  0.0455
  451loPI   GL1 7205   6.610   2.091  10.443 -0.0659  0.1777  0.1656
  451loPI   GL2 7206   6.591   2.305  10.207 -0.0064  0.0132  0.1999
  451loPI   C1A 7207   6.894   2.022  10.059 -0.0946 -0.2631  0.0101
  451loPI   C2A 7208   6.924   1.983   9.669 -0.0051  0.1305 -0.0680
  451loPI   C3A 7209   6.955   1.946   9.260 -0.1384  0.0734  0.2407
  451loPI   C4A 7210   6.950   1.939   8.799 -0.0293 -0.0320  0.2334
  451loPI   C5A 7211   6.981   1.789   8.365 -0.4060  0.2131  0.4769
  451loPI   C6A 7212   6.740   1.731   7.989  0.2038 -0.0947 -0.5690
  451loPI   C1B 7213   6.692   2.416   9.756 -0.1874  0.3391  0.0420
  451loPI   C2B 7214   6.705   2.337   9.302  0.3069 -0.2676  0.3804
  451loPI   C3B 7215   6.573   2.365   8.856 -0.1153 -0.0604 -0.0017
  451loPI   C4B 7216   6.705   2.250   8.488 -0.2481  0.0823  0.1448
  452loPI    C1 7217   0.509  15.713  11.433 -0.0986  0.2320 -0.1174
  452loPI    C2 7218   0.252  15.975  11.593 -0.2044  0.0873 -0.0483
  452loPI    C3 7219   0.415  15.689  11.821  0.0276  0.1845 -0.0893
  452loPI   PO4 7220   0.280  15.662  11.166 -0.2102 -0.2055  0.1468
  452loPI   GL1 7221   0.359  15.379  10.839 -0.1830 -0.1979 -0.2719
  452loPI   GL2 7222   0.036  15.345  10.639  0.1937 -0.1153  0.1346
  452loPI   C1A 7223   0.505  15.416  10.497 -0.0747  0.2041 -0.0683
  452loPI   C2A 7224   0.549  15.396   9.981  0.0967  0.0338 -0.3908
  452loPI   C3A 7225   0.622  15.417   9.553  0.1828 -0.0196 -0.0466
  452loPI   C4A 7226   0.615  15.380   9.032 -0.2441 -0.0566  0.1221
  452loPI   C5A 7227   0.811  15.532   8.660  0.4215  0.1139 -0.1385
  452loPI   C6A 7228   0.891  15.996   8.548 -0.2999  0.1772 -0.4289
  452loPI   C1B 7229   0.058  15.374  10.209 -0.2356  0.0564  0.0193
  452loPI   C2B 7230   0.020  15.291   9.785  0.3149 -0.0368 -0.0604
  452loPI   C3B 7231   0.051  15.410   9.411  0.0335 -0.2045  0.0913
  452loPI   C4B 7232   0.105  15.293   8.980  0.3438 -0.2609  0.2632
  453loPI    C1 7233   0.307  17.343  11.278  0.1343 -0.0693  0.2420
  453loPI    C2 7234   0.517  17.558  11.542 -0.1252  0.1589  0.2678
  453loPI    C3 7235   0.124  17.505  11.595 -0.1610  0.1205 -0.0191
  453loPI   PO4 7236   0.356  17.456  11.054 -0.0407  0.0189  0.1532
  453loPI   GL1 7237   0.134  17.434  10.637 -0.0451  0.0034  0.1317
  453loPI   GL2 7238   0.029  17.141  10.659  0.4363  0.4685  0.1318
  453loPI   C1A 7239   0.077  17.522  10.251  0.0648  0.0009 -0.0616
  453loPI   C2A 7240   0.077  17.589   9.893 -0.2714 -0.0836  0.5816
  453loPI   C3A 7241   0.136  17.583   9.470  0.1349  0.0187 -0.1544
  453loPI   C4A 7242   0.226  17.636   9.059 -0.0861  0.1821  0.2036
  453loPI   C5A 7243   0.276  17.448   8.686 -0.0286 -0.0952  0.0051
  453loPI   C6A 7244   0.291  17.112   8.496  0.1911  0.1562  0.0019
  453loPI   C1B 7245  -0.100  17.093  10.142  0.4776 -0.2707 -0.1018
  453loPI   C2B 7246  -0.123  17.150   9.801  0.3029 -0.0213 -0.0319
  453loPI   C3B 7247  -0.014  17.111   9.447 -0.1614  0.2213  0.0968
  453loPI   C4B 7248   0.006  17.158   9.026  0.0395 -0.1134 -0.0058
  454loPI    C1 7249  13.494  15.046  11.219 -0.2940 -0.0057  0.0372
  454loPI    C2 7250  13.569  15.297  11.521  0.2783 -0.0822 -0.0306
  454loPI    C3 7251  13.572  14.902  11.583 -0.2423 -0.0888 -0.0064
  454loPI   PO4 7252  13.666  15.092  11.082  0.2319 -0.0269  0.1769
  454loPI   GL1 7253  13.847  14.987  10.664 -0.0601  0.0040  0.0742
  454loPI   GL2 7254  13.705  14.773  10.373  0.3249  0.0611 -0.0460
  454loPI   C1A 7255  13.938  15.276  10.298 -0.3578  0.0938  0.0946
  454loPI   C2A 7256  13.837  15.201   9.838 -0.0182  0.0249  0.2630
  454loPI   C3A 7257  13.853  15.269   9.370 -0.0444  0.2356  0.2736
  454loPI   C4A 7258  13.787  15.326   8.980  0.0242  0.1510  0.3119
  454loPI   C5A 7259  13.855  15.263   8.574 -0.2106  0.1519  0.0823
  454loPI   C6A 7260  13.372  15.086   8.458 -0.1216 -0.1022  0.0900
  454loPI   C1B 7261  13.709  14.723   9.913  0.0196  0.1090 -0.1785
  454loPI   C2B 7262  13.551  14.799   9.582 -0.1051 -0.1428  0.2180
  454loPI   C3B 7263  13.570  14.862   9.210 -0.1662 -0.5551  0.0993
  454loPI   C4B 7264  13.629  14.873   8.781 -0.2262 -0.0924  0.2594
  455loPI    C1 7265   0.049  13.463  11.147 -0.0469 -0.1686 -0.0161
  455loPI    C2 7266   0.340  13.266  10.956  0.0814 -0.1829  0.1910
  455loPI    C3 7267   0.117  13.078  11.230 -0.0362 -0.1364  0.1276
  455loPI   PO4 7268  -0.134  13.608  10.886  0.2054  0.1331 -0.1778
  455loPI   GL1 7269   0.036  13.871  10.549 -0.1489  0.0991  0.2463
  455loPI   GL2 7270   0.228  13.599  10.582  0.1363 -0.0522 -0.1456
  455loPI   C1A 7271   0.032  13.974  10.032  0.0224 -0.1288  0.1420
  455loPI   C2A 7272  -0.142  13.995   9.638  0.2214  0.1000  0.0335
  455loPI   C3A 7273  -0.140  13.990   9.118  0.4569 -0.0295  0.0364
  455loPI   C4A 7274  -0.152  14.020   8.686 -0.3095 -0.0333 -0.2154
  455loPI   C5A 7275  -0.301  14.067   8.323  0.0833 -0.1873 -0.1671
  455loPI   C6A 7276  -0.423  13.723   7.937  0.2776 -0.0491 -0.0332
  455loPI   C1B 7277   0.181  13.500  10.168 -0.2351  0.0290 -0.0479
  455loPI   C2B 7278   0.290  13.375   9.775  0.0979 -0.0253 -0.1477
  455loPI   C3B 7279   0.115  13.500   9.407  0.0097 -0.2069  0.1047
  455loPI   C4B 7280   0.057  13.570   8.956  0.0574  0.0491 -0.0659
  456loPI    C1 7281  12.327   8.250  11.075  0.0670 -0.0421  0.0529
  456loPI    C2 7282  12.509   7.897  11.119  0.1499 -0.0463 -0.2982
  456loPI    C3 7283  12.722   8.235  11.135  0.0537 -0.0012  0.1514
  456loPI   PO4 7284  12.134   8.170  10.836 -0.3500  0.0044  0.4484
  456loPI   GL1 7285  11.876   8.078  10.475 -0.2180 -0.0507 -0.4335
  456loPI   GL2 7286  12.074   7.863  10.441  0.3651 -0.0370  0.0745
  456loPI   C1A 7287  11.822   8.164  10.097 -0.1618  0.1011 -0.0518
  456loPI   C2A 7288  11.753   8.260   9.674 -0.0504 -0.1468 -0.0626
  456loPI   C3A 7289  11.717   8.325   9.233 -0.0733  0.0288  0.0937
  456loPI   C4A 7290  11.670   8.380   8.881  0.1708 -0.1088  0.2131
  456loPI   C5A 7291  11.767   8.437   8.513  0.1340 -0.2059  0.0392
  456loPI   C6A 7292  11.795   8.837   8.301 -0.1392 -0.0264 -0.0631
  456loPI   C1B 7293  12.145   7.814  10.011  0.2350 -0.4570 -0.2477
  456loPI   C2B 7294  12.098   7.835   9.581  0.0788 -0.0553  0.0501
  456loPI   C3B 7295  11.980   7.927   9.108  0.2254 -0.4872 -0.1677
  456loPI   C4B 7296  11.860   7.993   8.668 -0.0273  0.2330  0.0008
  457loPI    C1 7297  13.176  10.592  10.914  0.0006 -0.0076 -0.0696
  457loPI    C2 7298  13.245  10.571  11.308 -0.2660  0.0803 -0.0158
  457loPI    C3 7299  13.273  10.242  11.082 -0.0363  0.0443  0.0620
  457loPI   PO4 7300  13.237  10.903  10.932  0.1401 -0.2563 -0.1424
  457loPI   GL1 7301  13.221  11.142  10.485 -0.1600 -0.1743 -0.0876
  457loPI   GL2 7302  13.377  10.822  10.411 -0.0034 -0.0311  0.1335
  457loPI   C1A 7303  13.114  11.202   9.976  0.0721 -0.0061  0.1874
  457loPI   C2A 7304  13.024  11.240   9.554  0.2318  0.0633 -0.1363
  457loPI   C3A 7305  12.931  11.160   9.041  0.2811  0.2357 -0.2757
  457loPI   C4A 7306  12.918  11.188   8.646  0.3959  0.0686 -0.0211
  457loPI   C5A 7307  13.039  11.071   8.303 -0.4763  0.3011  0.1633
  457loPI   C6A 7308  13.269  10.773   8.039  0.1315 -0.2311  0.1946
  457loPI   C1B 7309  13.339  10.778   9.969  0.0546  0.1865 -0.0257
  457loPI   C2B 7310  13.295  10.812   9.494 -0.0154  0.2701  0.0175
  457loPI   C3B 7311  13.256  10.737   9.001 -0.0201 -0.1112  0.2377
  457loPI   C4B 7312  13.236  10.763   8.607 -0.1640 -0.0489  0.1766
  458loPI    C1 7313  16.912   0.450  11.462 -0.1641 -0.0003  0.0432
  458loPI    C2 7314  17.029   0.075  11.538 -0.3082 -0.0776 -0.1095
  458loPI    C3 7315  17.105   0.365  11.802 -0.1662 -0.2075 -0.0055
  458loPI   PO4 7316  16.896   0.499  11.171  0.0425  0.0137 -0.1965
  458loPI   GL1 7317  16.921   0.484  10.753 -0.0453 -0.1184  0.4331
  458loPI   GL2 7318  16.697   0.540  10.479 -0.2083 -0.1592 -0.1436
  458loPI   C1A 7319  17.192   0.596  10.307  0.1941  0.1216 -0.0064
  458loPI   C2A 7320  17.221   0.648   9.882 -0.0007  0.2940 -0.0104
  458loPI   C3A 7321  17.247   0.706   9.392  0.0559  0.1934 -0.2104
  458loPI   C4A 7322  17.205   0.763   9.026 -0.1959 -0.1626  0.2740
  458loPI   C5A 7323  17.279   0.498   8.595  0.0011 -0.1069  0.1411
  458loPI   C6A 7324  17.005   0.284   8.269 -0.0677  0.1677  0.0662
  458loPI   C1B 7325  16.769   0.581  10.079  0.0168 -0.0399  0.1248
  458loPI   C2B 7326  16.726   0.608   9.685  0.1398 -0.2016 -0.0446
  458loPI   C3B 7327  16.746   0.560   9.236 -0.2119 -0.0627 -0.0504
  458loPI   C4B 7328  16.779   0.699   8.782  0.2195  0.1506 -0.2027
  459loPI    C1 7329   8.881   0.316  11.121 -0.0036  0.1378 -0.1474
  459loPI    C2 7330   8.740   0.599  11.367 -0.0572  0.0085 -0.0278
  459loPI    C3 7331   8.698   0.213  11.461  0.0670 -0.0389 -0.1624
  459loPI   PO4 7332   8.834   0.402  10.926 -0.1031  0.2354  0.2825
  459loPI   GL1 7333   8.935   0.409  10.458 -0.0217 -0.0966 -0.1077
  459loPI   GL2 7334   9.231   0.396  10.406  0.0278  0.1829 -0.0663
  459loPI   C1A 7335   8.820   0.701  10.162 -0.0070 -0.0663 -0.0344
  459loPI   C2A 7336   8.920   0.770   9.782 -0.0873  0.2909  0.1585
  459loPI   C3A 7337   8.858   0.642   9.316  0.0216 -0.0540  0.0263
  459loPI   C4A 7338   8.737   0.575   8.879 -0.0381 -0.0948 -0.4456
  459loPI   C5A 7339   8.715   0.812   8.559 -0.3892 -0.4415 -0.0508
  459loPI   C6A 7340   8.815   1.276   8.403  0.5522 -0.2297  0.0614
  459loPI   C1B 7341   9.150   0.287  10.039  0.5391 -0.1181 -0.1050
  459loPI   C2B 7342   9.173   0.346   9.592  0.1268 -0.0443  0.0552
  459loPI   C3B 7343   9.168   0.208   9.123  0.1756  0.0879  0.3689
  459loPI   C4B 7344   9.055   0.181   8.635  0.4135 -0.0579  0.1202
  460loPI    C1 7345  10.672   1.583  11.457 -0.0152 -0.0522  0.0749
  460loPI    C2 7346  10.278   1.650  11.449 -0.0014  0.0170 -0.0547
  460loPI    C3 7347  10.429   1.377  11.699 -0.1422 -0.0820 -0.0764
  460loPI   PO4 7348  10.772   1.617  11.184 -0.0012  0.4018  0.0330
  460loPI   GL1 7349  10.749   1.671  10.757 -0.2239  0.0714 -0.0522
  460loPI   GL2 7350  10.881   1.357  10.604  0.1441  0.1657 -0.0347
  460loPI   C1A 7351  10.877   1.840  10.347  0.0416  0.1990  0.0849
  460loPI   C2A 7352  10.828   1.840   9.955 -0.1051 -0.0270 -0.1037
  460loPI   C3A 7353  10.933   1.730   9.603 -0.3367 -0.1019 -0.1753
  460loPI   C4A 7354  10.904   1.844   9.157 -0.0922 -0.1394 -0.0201
  460loPI   C5A 7355  10.790   1.897   8.653 -0.1820  0.0294  0.1134
  460loPI   C6A 7356  10.675   1.889   8.249  0.1203 -0.1184  0.1701
  460loPI   C1B 7357  10.686   1.405  10.166 -0.1364  0.0227  0.2854
  460loPI   C2B 7358  10.683   1.305   9.795 -0.1524  0.0770  0.0981
  460loPI   C3B 7359  10.691   1.319   9.428  0.2830  0.3561 -0.0452
  460loPI   C4B 7360  10.643   1.391   8.957 -0.3165 -0.0218 -0.3934
  461loPI    C1 7361  14.483  11.528  11.002 -0.0596  0.0884  0.1504
  461loPI    C2 7362  14.609  11.874  11.159  0.0741  0.1368 -0.0604
  461loPI    C3 7363  14.362  11.639  11.367  0.2359  0.2068  0.2157
  461loPI   PO4 7364  14.411  11.624  10.733  0.1934  0.0729 -0.2611
  461loPI   GL1 7365  14.370  11.451  10.288 -0.0789  0.0093  0.1164
  461loPI   GL2 7366  14.323  11.725  10.261 -0.1500  0.0305  0.1664
  461loPI   C1A 7367  14.544  11.354   9.957  0.0456  0.0074  0.0255
  461loPI   C2A 7368  14.594  11.360   9.555  0.0585 -0.0288  0.1251
  461loPI   C3A 7369  14.587  11.388   9.082 -0.3437 -0.0291 -0.0742
  461loPI   C4A 7370  14.532  11.308   8.661 -0.1332  0.1672  0.1759
  461loPI   C5A 7371  14.590  11.460   8.291  0.1949 -0.0916 -0.3543
  461loPI   C6A 7372  14.912  11.677   8.132 -0.1081  0.0836 -0.3390
  461loPI   C1B 7373  14.203  11.781   9.789  0.0966  0.0132 -0.0802
  461loPI   C2B 7374  14.293  11.801   9.389 -0.3694 -0.0739  0.1895
  461loPI   C3B 7375  14.226  11.706   8.961 -0.3149 -0.1808 -0.0671
  461loPI   C4B 7376  14.192  11.809   8.441 -0.1202 -0.2873  0.1186
  462loPI    C1 7377  14.882  17.566  11.272 -0.2136  0.0377 -0.1255
  462loPI    C2 7378  14.865  17.229  11.486 -0.1309 -0.1328 -0.3836
  462loPI    C3 7379  14.594  17.516  11.545  0.0653 -0.0478  0.1596
  462loPI   PO4 7380  14.847  17.504  11.017 -0.0415  0.1132  0.4810
  462loPI   GL1 7381  14.450  17.453  10.660  0.3160  0.3977 -0.1032
  462loPI   GL2 7382  14.606  17.702  10.634  0.1348 -0.1530  0.2368
  462loPI   C1A 7383  14.257  17.256  10.320  0.2464  0.0651  0.1065
  462loPI   C2A 7384  14.253  17.140   9.831 -0.1525 -0.2270  0.1462
  462loPI   C3A 7385  14.195  17.137   9.437  0.1533 -0.2878  0.0409
  462loPI   C4A 7386  14.138  17.164   8.943  0.1855  0.1503  0.0744
  462loPI   C5A 7387  14.058  17.368   8.595  0.3255 -0.1657 -0.0455
  462loPI   C6A 7388  13.970  17.253   8.192  0.2370 -0.0768  0.0495
  462loPI   C1B 7389  14.442  17.659  10.202  0.0485  0.1720 -0.2353
  462loPI   C2B 7390  14.461  17.627   9.722  0.0146  0.0966  0.0559
  462loPI   C3B 7391  14.412  17.545   9.323  0.3222  0.5561 -0.2404
  462loPI   C4B 7392  14.398  17.657   8.952  0.0629  0.1566  0.1411
  463loPI    C1 7393   7.302  13.321  11.332 -0.0335 -0.1166 -0.2676
  463loPI    C2 7394   7.374  13.153  11.688  0.0091  0.1578 -0.1438
  463loPI    C3 7395   6.998  13.189  11.555 -0.0147  0.1517 -0.0782
  463loPI   PO4 7396   7.422  13.183  11.167 -0.0092 -0.1142 -0.1739
  463loPI   GL1 7397   7.384  13.298  10.802  0.2060 -0.1349  0.3307
  463loPI   GL2 7398   7.195  13.074  10.619  0.3039 -0.1295 -0.0484
  463loPI   C1A 7399   7.599  13.249  10.352 -0.1263  0.0243  0.4188
  463loPI   C2A 7400   7.615  13.267   9.848  0.0423 -0.1071  0.0423
  463loPI   C3A 7401   7.577  13.279   9.386  0.3004 -0.3489 -0.4651
  463loPI   C4A 7402   7.480  13.253   8.967 -0.1961  0.0188 -0.2587
  463loPI   C5A 7403   7.427  13.361   8.536 -0.0751  0.3376 -0.3410
  463loPI   C6A 7404   7.581  13.152   8.124  0.2230  0.1354 -0.1115
  463loPI   C1B 7405   7.036  13.183  10.210 -0.0493  0.2883 -0.2502
  463loPI   C2B 7406   7.120  13.234   9.724  0.2156  0.0671 -0.0150
  463loPI   C3B 7407   7.029  13.157   9.253 -0.1302  0.0582  0.0189
  463loPI   C4B 7408   7.006  13.154   8.796  0.0046 -0.0622  0.1468
  464loPI    C1 7409   3.156  12.996  11.433 -0.0439 -0.1133  0.1290
  464loPI    C2 7410   2.794  13.040  11.597 -0.0795 -0.0633  0.0372
  464loPI    C3 7411   3.119  13.168  11.793 -0.1118 -0.1027  0.1169
  464loPI   PO4 7412   3.252  13.039  11.216  0.2949 -0.1710 -0.2133
  464loPI   GL1 7413   3.212  13.136  10.793  0.2171  0.1679  0.1495
  464loPI   GL2 7414   3.171  12.777  10.695 -0.3295  0.0176 -0.2183
  464loPI   C1A 7415   3.564  13.069  10.438 -0.0923 -0.0213 -0.0379
  464loPI   C2A 7416   3.578  12.915  10.107 -0.1129 -0.0506 -0.2705
  464loPI   C3A 7417   3.468  12.903   9.624 -0.1563 -0.0767 -0.0413
  464loPI   C4A 7418   3.405  12.886   9.140  0.1717 -0.0585 -0.1660
  464loPI   C5A 7419   3.393  12.902   8.721  0.0324  0.0317  0.1515
  464loPI   C6A 7420   3.593  13.113   8.443 -0.1429 -0.1865  0.1262
  464loPI   C1B 7421   3.096  12.850  10.219  0.0213 -0.1223  0.2703
  464loPI   C2B 7422   3.041  12.835   9.762 -0.0278  0.1565  0.2860
  464loPI   C3B 7423   2.900  12.855   9.323  0.0939  0.0481  0.0908
  464loPI   C4B 7424   2.940  12.977   8.928 -0.3010 -0.2185 -0.2875
  465loPI    C1 7425  14.737  13.448  11.079  0.1029  0.0125  0.2158
  465loPI    C2 7426  14.365  13.496  10.938  0.1498  0.1135  0.1241
  465loPI    C3 7427  14.494  13.721  11.243  0.2224  0.2631 -0.0154
  465loPI   PO4 7428  14.897  13.474  10.884  0.0459 -0.0259 -0.0913
  465loPI   GL1 7429  14.791  13.611  10.488  0.1249 -0.1260 -0.0327
  465loPI   GL2 7430  15.078  13.720  10.502 -0.0336 -0.1145  0.1636
  465loPI   C1A 7431  14.536  13.562  10.069 -0.0782  0.0119  0.0234
  465loPI   C2A 7432  14.582  13.493   9.681  0.2720  0.0752 -0.1293
  465loPI   C3A 7433  14.573  13.662   9.230  0.0318 -0.1269  0.1759
  465loPI   C4A 7434  14.535  13.578   8.860  0.0437 -0.2316 -0.1847
  465loPI   C5A 7435  14.591  13.563   8.422  0.0081  0.1523  0.1316
  465loPI   C6A 7436  14.684  13.300   7.959 -0.0338  0.3172 -0.0630
  465loPI   C1B 7437  15.074  13.590  10.023 -0.2620  0.0460  0.1789
  465loPI   C2B 7438  15.110  13.572   9.597 -0.2849 -0.2409  0.1660
  465loPI   C3B 7439  15.121  13.697   9.178 -0.0414  0.0690 -0.1560
  465loPI   C4B 7440  15.027  13.720   8.731 -0.1322 -0.1569 -0.2206
  466loPI    C1 7441  16.411  12.172  10.933  0.0284  0.0454 -0.0314
  466loPI    C2 7442  16.699  12.215  11.208  0.0975 -0.0041 -0.0956
  466loPI    C3 7443  16.379  11.988  11.287  0.1697 -0.1067 -0.0970
  466loPI   PO4 7444  16.497  12.139  10.734  0.2964 -0.0654  0.0263
  466loPI   GL1 7445  16.716  12.409  10.471 -0.0292 -0.2773  0.0818
  466loPI   GL2 7446  17.004  12.520  10.332  0.2811 -0.0598  0.0668
  466loPI   C1A 7447  16.445  12.427  10.071 -0.0446 -0.1517 -0.0002
  466loPI   C2A 7448  16.537  12.465   9.652  0.1173 -0.2545  0.1235
  466loPI   C3A 7449  16.478  12.487   9.192  0.1941  0.3210  0.0367
  466loPI   C4A 7450  16.486  12.424   8.812 -0.1437 -0.0131 -0.2250
  466loPI   C5A 7451  16.588  12.496   8.359 -0.3389  0.0047  0.0360
  466loPI   C6A 7452  16.437  12.638   7.975  0.0542 -0.2389 -0.1314
  466loPI   C1B 7453  16.977  12.487   9.921  0.1603  0.0864 -0.0133
  466loPI   C2B 7454  16.924  12.502   9.419 -0.1385  0.0314  0.0667
  466loPI   C3B 7455  16.952  12.544   9.039 -0.0147 -0.1295 -0.2804
  466loPI   C4B 7456  17.108  12.589   8.596 -0.1630 -0.0797 -0.0374
  467loPI    C1 7457   9.125   8.397  11.306 -0.1708 -0.0567  0.2485
  467loPI    C2 7458   8.898   8.093  11.435 -0.4414  0.2061  0.4031
  467loPI    C3 7459   8.909   8.437  11.640 -0.0411  0.2616  0.2976
  467loPI   PO4 7460   9.141   8.342  10.959  0.3651 -0.1182 -0.1788
  467loPI   GL1 7461   8.960   8.218  10.656  0.0850  0.0367  0.2919
  467loPI   GL2 7462   9.151   8.007  10.493 -0.0045 -0.3052  0.1018
  467loPI   C1A 7463   8.945   8.406  10.213 -0.0953  0.1083  0.3769
  467loPI   C2A 7464   8.859   8.442   9.778 -0.1805 -0.0556 -0.2217
  467loPI   C3A 7465   8.875   8.498   9.346  0.0244 -0.4347 -0.1150
  467loPI   C4A 7466   8.883   8.494   8.947 -0.2221  0.2895  0.0902
  467loPI   C5A 7467   8.971   8.831   8.653 -0.0802 -0.3079 -0.1697
  467loPI   C6A 7468   9.115   9.155   8.381  0.2813  0.4301  0.2050
  467loPI   C1B 7469   9.213   7.968  10.053 -0.2649  0.1269 -0.0476
  467loPI   C2B 7470   9.179   7.992   9.633 -0.0265  0.0505 -0.2112
  467loPI   C3B 7471   9.232   8.118   9.235  0.1894 -0.0532  0.2263
  467loPI   C4B 7472   9.090   8.068   8.819  0.2606 -0.0779  0.0706
  468loPI    C1 7473   7.818   7.854  11.203 -0.2433 -0.1300  0.2433
  468loPI    C2 7474   7.990   8.098  11.470 -0.0002 -0.0837  0.0482
  468loPI    C3 7475   7.967   7.706  11.543 -0.0904 -0.0484  0.2131
  468loPI   PO4 7476   7.944   7.847  11.016 -0.0789  0.0227 -0.2031
  468loPI   GL1 7477   7.920   7.640  10.617  0.0162 -0.0089  0.2858
  468loPI   GL2 7478   7.739   7.849  10.560  0.3857 -0.4968 -0.3881
  468loPI   C1A 7479   7.916   7.485  10.200 -0.0432  0.4119  0.0664
  468loPI   C2A 7480   8.031   7.363   9.716 -0.0780 -0.0959  0.1323
  468loPI   C3A 7481   7.939   7.387   9.274 -0.0701 -0.0612 -0.0791
  468loPI   C4A 7482   7.866   7.489   8.884 -0.0229  0.2528  0.3475
  468loPI   C5A 7483   7.824   7.211   8.574  0.2805  0.0067 -0.1436
  468loPI   C6A 7484   7.738   7.063   8.253 -0.1176  0.1797 -0.1647
  468loPI   C1B 7485   7.586   7.860  10.132  0.1122 -0.0205  0.0855
  468loPI   C2B 7486   7.646   7.836   9.698 -0.0214  0.0638 -0.1406
  468loPI   C3B 7487   7.635   7.981   9.320  0.0157  0.0324 -0.0714
  468loPI   C4B 7488   7.578   7.904   8.925  0.1114  0.0453 -0.0778
  469loPI    C1 7489   2.180   5.242  11.002  0.3085  0.0661  0.2420
  469loPI    C2 7490   1.979   5.453  11.276 -0.2440 -0.1370  0.0069
  469loPI    C3 7491   2.104   5.082  11.361  0.0051 -0.0247  0.1403
  469loPI   PO4 7492   2.121   5.251  10.810  0.2187 -0.2710  0.0136
  469loPI   GL1 7493   2.280   5.229  10.483  0.1089 -0.2916 -0.0865
  469loPI   GL2 7494   2.017   5.517  10.448 -0.1792  0.2521  0.0974
  469loPI   C1A 7495   2.403   5.055  10.081  0.2964 -0.0144 -0.2069
  469loPI   C2A 7496   2.448   5.050   9.669 -0.2166 -0.0662  0.1517
  469loPI   C3A 7497   2.422   5.073   9.263  0.0985  0.0068  0.2299
  469loPI   C4A 7498   2.296   5.128   8.849 -0.1796 -0.0764  0.0957
  469loPI   C5A 7499   2.322   4.926   8.562  0.1278 -0.0768 -0.0231
  469loPI   C6A 7500   2.554   4.692   8.414  0.2022  0.0579  0.2199
  469loPI   C1B 7501   2.105   5.491   9.985 -0.0224 -0.1047 -0.2163
  469loPI   C2B 7502   2.145   5.425   9.507  0.2041  0.0828  0.2704
  469loPI   C3B 7503   2.087   5.487   9.097  0.2066  0.0016  0.1199
  469loPI   C4B 7504   1.867   5.460   8.709  0.1314 -0.0354 -0.0207
  470loPI    C1 7505   2.342  13.670  11.251 -0.0000  0.0939  0.0866
  470loPI    C2 7506   2.378  13.405  11.549 -0.1302  0.0690  0.0809
  470loPI    C3 7507   2.123  13.712  11.584  0.2014  0.3388  0.1919
  470loPI   PO4 7508   2.389  13.533  11.052 -0.1228  0.0196  0.2600
  470loPI   GL1 7509   2.256  13.766  10.609  0.1068 -0.2554  0.1356
  470loPI   GL2 7510   2.013  13.637  10.761 -0.0260  0.1317 -0.1990
  470loPI   C1A 7511   2.332  13.762  10.220  0.0840  0.3118 -0.0098
  470loPI   C2A 7512   2.297  13.767   9.773  0.2139 -0.0278 -0.2677
  470loPI   C3A 7513   2.276  13.751   9.341 -0.0087  0.0824  0.0219
  470loPI   C4A 7514   2.308  13.733   8.916  0.1058 -0.2629 -0.1318
  470loPI   C5A 7515   2.343  13.980   8.488  0.0268 -0.1334  0.0125
  470loPI   C6A 7516   2.230  14.372   8.412 -0.0655  0.2082  0.0062
  470loPI   C1B 7517   1.822  13.737  10.333 -0.0758 -0.2215 -0.1298
  470loPI   C2B 7518   1.804  13.772   9.894 -0.0459  0.2664 -0.1296
  470loPI   C3B 7519   1.762  13.690   9.423 -0.3224  0.3087 -0.1301
  470loPI   C4B 7520   1.806  13.648   8.926  0.0953  0.0476 -0.0179
  471loPI    C1 7521   6.644   7.065  11.065 -0.1175 -0.0535  0.0189
  471loPI    C2 7522   6.788   6.890  11.394  0.2883  0.0322 -0.1073
  471loPI    C3 7523   6.426   7.061  11.400  0.1937 -0.1704  0.2232
  471loPI   PO4 7524   6.696   6.982  10.877 -0.0573 -0.1224 -0.2785
  471loPI   GL1 7525   6.766   7.126  10.454  0.2332 -0.0254  0.0074
  471loPI   GL2 7526   6.565   7.271  10.302  0.0801 -0.1759 -0.0572
  471loPI   C1A 7527   6.980   7.328  10.049 -0.2791  0.1481  0.0727
  471loPI   C2A 7528   7.027   7.344   9.657  0.1289  0.2072  0.2208
  471loPI   C3A 7529   6.901   7.463   9.328  0.1836 -0.1953  0.0735
  471loPI   C4A 7530   6.907   7.448   8.908  0.1519  0.0805  0.0868
  471loPI   C5A 7531   6.849   7.295   8.506 -0.1348 -0.0222 -0.0087
  471loPI   C6A 7532   6.907   7.396   8.207 -0.2183  0.1361  0.0858
  471loPI   C1B 7533   6.482   7.354   9.908 -0.1099  0.1249  0.3891
  471loPI   C2B 7534   6.432   7.312   9.446  0.1447 -0.1917  0.0035
  471loPI   C3B 7535   6.432   7.293   8.996 -0.2464  0.1168 -0.1011
  471loPI   C4B 7536   6.373   7.375   8.664  0.0549  0.2494 -0.0565
  472loPI    C1 7537  13.715   8.927  11.071  0.0790  0.2782 -0.1504
  472loPI    C2 7538  14.025   9.043  11.296  0.1315  0.1775 -0.1702
  472loPI    C3 7539  13.875   8.674  11.337 -0.0667  0.2672 -0.0722
  472loPI   PO4 7540  13.761   8.982  10.852 -0.2550 -0.2195 -0.2702
  472loPI   GL1 7541  13.643   8.848  10.376  0.3161 -0.3740 -0.4476
  472loPI   GL2 7542  13.551   9.081  10.346  0.0423  0.4688 -0.1647
  472loPI   C1A 7543  14.003   8.926   9.971  0.2553 -0.0365  0.1034
  472loPI   C2A 7544  13.961   9.059   9.547 -0.0824  0.0029 -0.2179
  472loPI   C3A 7545  13.942   9.064   9.165  0.0961  0.1937  0.0307
  472loPI   C4A 7546  13.977   9.107   8.743 -0.1163  0.2964  0.2905
  472loPI   C5A 7547  13.903   9.124   8.408  0.0652  0.1148  0.2184
  472loPI   C6A 7548  13.532   9.243   8.093 -0.2678  0.1066  0.1588
  472loPI   C1B 7549  13.473   8.960   9.860  0.1997 -0.2640 -0.2709
  472loPI   C2B 7550  13.500   9.020   9.401 -0.1202  0.1513 -0.1176
  472loPI   C3B 7551  13.479   9.129   9.024 -0.0663  0.0704 -0.4395
  472loPI   C4B 7552  13.421   9.035   8.575  0.2009 -0.2158  0.2745
  473loPI    C1 7553   6.690   5.568  11.289 -0.3629 -0.0059  0.2447
  473loPI    C2 7554   6.859   5.581  11.651 -0.0712 -0.0238  0.1124
  473loPI    C3 7555   6.468   5.503  11.615 -0.0870 -0.0981  0.4176
  473loPI   PO4 7556   6.833   5.341  11.065 -0.3549 -0.0974 -0.2615
  473loPI   GL1 7557   6.888   5.321  10.652  0.1501  0.3421 -0.0530
  473loPI   GL2 7558   7.102   5.507  10.542  0.0144 -0.2584  0.1704
  473loPI   C1A 7559   6.898   5.062  10.320 -0.1095 -0.0704 -0.3691
  473loPI   C2A 7560   6.893   5.107   9.877 -0.0170  0.0891  0.2461
  473loPI   C3A 7561   6.964   5.086   9.451  0.1606 -0.1399 -0.0372
  473loPI   C4A 7562   6.937   5.081   9.059 -0.3583  0.1144  0.1460
  473loPI   C5A 7563   6.906   5.158   8.593  0.1883 -0.1375 -0.0212
  473loPI   C6A 7564   7.035   5.442   8.387 -0.0089  0.0346 -0.0160
  473loPI   C1B 7565   7.066   5.518  10.129  0.4187 -0.0660 -0.0994
  473loPI   C2B 7566   7.156   5.631   9.732  0.0853  0.1104  0.0235
  473loPI   C3B 7567   7.078   5.564   9.246 -0.1147  0.2822  0.1328
  473loPI   C4B 7568   7.123   5.567   8.862  0.2579 -0.1439 -0.2002
  474loPI    C1 7569  13.623  12.969  11.331 -0.0200  0.1160  0.0335
  474loPI    C2 7570  13.491  12.615  11.461  0.0637  0.0273 -0.1203
  474loPI    C3 7571  13.489  12.931  11.706 -0.0171 -0.0774  0.0159
  474loPI   PO4 7572  13.606  12.905  11.020 -0.1780 -0.2359 -0.2352
  474loPI   GL1 7573  13.673  12.643  10.594  0.2027 -0.2749 -0.1175
  474loPI   GL2 7574  13.834  12.871  10.562  0.0710  0.0507  0.1350
  474loPI   C1A 7575  13.688  12.619  10.095  0.1440  0.0105  0.1543
  474loPI   C2A 7576  13.601  12.535   9.713 -0.0502 -0.1512 -0.0210
  474loPI   C3A 7577  13.650  12.580   9.244 -0.0037  0.1338 -0.0530
  474loPI   C4A 7578  13.654  12.546   8.762 -0.1843  0.1387  0.0749
  474loPI   C5A 7579  13.794  12.355   8.366  0.0293  0.5673 -0.1450
  474loPI   C6A 7580  13.745  11.981   8.127  0.5828 -0.0999  0.2276
  474loPI   C1B 7581  13.918  13.115  10.193  0.1829 -0.0822  0.1357
  474loPI   C2B 7582  13.792  13.050   9.749 -0.0815  0.0392 -0.3662
  474loPI   C3B 7583  13.928  13.095   9.299  0.1337 -0.0028  0.0013
  474loPI   C4B 7584  13.763  13.075   8.830 -0.0089  0.0115  0.1737
  475loPI    C1 7585   2.000   0.959  11.532 -0.1157 -0.1545  0.1334
  475loPI    C2 7586   1.790   1.286  11.439  0.1048 -0.1168 -0.2580
  475loPI    C3 7587   2.010   1.278  11.773 -0.1565  0.0091 -0.0782
  475loPI   PO4 7588   2.130   0.824  11.278 -0.1190  0.1869 -0.1415
  475loPI   GL1 7589   1.981   0.656  10.790  0.1995  0.0324 -0.0541
  475loPI   GL2 7590   2.294   0.842  10.832 -0.0126 -0.1907  0.2539
  475loPI   C1A 7591   1.901   0.478  10.421  0.3070  0.3524  0.0525
  475loPI   C2A 7592   1.872   0.453   9.986  0.3738  0.0406  0.2510
  475loPI   C3A 7593   1.827   0.431   9.599 -0.2601 -0.0225 -0.2821
  475loPI   C4A 7594   1.900   0.536   9.168  0.0676 -0.1008 -0.3073
  475loPI   C5A 7595   2.026   0.458   8.729 -0.0238  0.0043  0.1832
  475loPI   C6A 7596   2.403   0.579   8.573  0.2218 -0.1910  0.1432
  475loPI   C1B 7597   2.433   0.990  10.547 -0.0139 -0.1661 -0.1213
  475loPI   C2B 7598   2.578   1.079  10.084 -0.1266 -0.0556  0.1335
  475loPI   C3B 7599   2.539   0.997   9.704 -0.2105 -0.2234  0.0923
  475loPI   C4B 7600   2.660   0.962   9.309  0.2965 -0.2652 -0.2567
  476loPI    C1 7601   7.430   8.152  11.093  0.0310  0.0585 -0.2197
  476loPI    C2 7602   7.111   8.106  10.856  0.0474 -0.2244 -0.1899
  476loPI    C3 7603   7.079   8.042  11.249  0.0086  0.2907 -0.1021
  476loPI   PO4 7604   7.615   8.317  10.950  0.2198 -0.1170 -0.1069
  476loPI   GL1 7605   7.787   8.341  10.501  0.2440  0.1309 -0.3405
  476loPI   GL2 7606   7.389   8.314  10.473 -0.1543  0.0914 -0.1459
  476loPI   C1A 7607   7.922   8.345  10.062  0.0797 -0.1976 -0.0469
  476loPI   C2A 7608   7.917   8.362   9.586  0.5715  0.1789  0.2269
  476loPI   C3A 7609   7.815   8.385   9.115 -0.1922  0.1398 -0.1787
  476loPI   C4A 7610   7.748   8.294   8.615 -0.2302  0.1305 -0.0316
  476loPI   C5A 7611   7.378   8.184   8.253  0.0810  0.2490  0.0407
  476loPI   C6A 7612   7.086   7.813   8.079  0.2220 -0.2109  0.0377
  476loPI   C1B 7613   7.410   8.340  10.005 -0.3357 -0.2357  0.2818
  476loPI   C2B 7614   7.416   8.276   9.662  0.0176 -0.0864 -0.0707
  476loPI   C3B 7615   7.191   8.391   9.214  0.0052  0.3161  0.2896
  476loPI   C4B 7616   7.244   8.408   8.769 -0.0912  0.3846 -0.0672
  477loPI    C1 7617   5.297  11.272  11.299  0.0642 -0.0898  0.1804
  477loPI    C2 7618   5.418  11.284  11.680 -0.3142 -0.2695  0.3118
  477loPI    C3 7619   5.179  11.571  11.537  0.2634  0.0987  0.0460
  477loPI   PO4 7620   5.428  11.244  11.141 -0.0467 -0.2980  0.2560
  477loPI   GL1 7621   5.660  10.963  10.898  0.0741 -0.1341  0.0874
  477loPI   GL2 7622   5.688  11.238  10.687  0.1363 -0.0893 -0.1496
  477loPI   C1A 7623   5.682  10.779  10.500  0.0051 -0.2690 -0.3020
  477loPI   C2A 7624   5.627  10.763  10.170  0.1777 -0.0980 -0.0465
  477loPI   C3A 7625   5.499  10.841   9.708 -0.0567 -0.0705  0.1851
  477loPI   C4A 7626   5.423  10.828   9.141  0.0549 -0.0783  0.0981
  477loPI   C5A 7627   5.320  10.707   8.727 -0.0576  0.2055  0.3848
  477loPI   C6A 7628   5.232  10.591   8.377 -0.1382  0.0538  0.0108
  477loPI   C1B 7629   5.815  11.221  10.224  0.0688 -0.3268 -0.1718
  477loPI   C2B 7630   5.730  11.272   9.907  0.0856  0.2022  0.4273
  477loPI   C3B 7631   5.733  11.235   9.424 -0.2610 -0.2925  0.0699
  477loPI   C4B 7632   5.684  11.302   8.956  0.2682 -0.0409 -0.2198
  478loPI    C1 7633  14.812  13.987  10.874 -0.0383 -0.2069 -0.1192
  478loPI    C2 7634  14.949  13.905  11.241 -0.0917  0.0106 -0.0493
  478loPI    C3 7635  15.205  13.952  10.937 -0.0414 -0.0714 -0.0197
  478loPI   PO4 7636  14.583  13.931  10.794  0.3086  0.0124 -0.1606
  478loPI   GL1 7637  14.237  14.135  10.534  0.1266  0.1751  0.0482
  478loPI   GL2 7638  14.439  13.978  10.272  0.0210  0.1475 -0.0720
  478loPI   C1A 7639  13.971  14.291  10.198  0.0521 -0.0422  0.2446
  478loPI   C2A 7640  13.928  14.364   9.708 -0.0403  0.3002  0.2331
  478loPI   C3A 7641  13.875  14.456   9.251  0.2665 -0.1499 -0.3009
  478loPI   C4A 7642  13.896  14.433   8.843 -0.0791 -0.1363  0.1930
  478loPI   C5A 7643  13.950  14.547   8.493 -0.0639 -0.4657  0.0324
  478loPI   C6A 7644  13.589  14.652   8.282  0.1835  0.0881  0.2751
  478loPI   C1B 7645  14.256  13.981   9.830 -0.3761  0.0206 -0.2475
  478loPI   C2B 7646  14.231  14.051   9.370  0.2513 -0.2213  0.2210
  478loPI   C3B 7647  14.207  14.031   8.947 -0.0829  0.2558  0.2023
  478loPI   C4B 7648  14.327  13.975   8.548 -0.0764  0.0247 -0.1906
  479loPI    C1 7649  15.702   7.182  10.889 -0.0207  0.3836  0.0167
  479loPI    C2 7650  15.912   7.128  11.226  0.0253  0.0978 -0.0546
  479loPI    C3 7651  15.519   7.052  11.221  0.0750 -0.1646 -0.1342
  479loPI   PO4 7652  15.863   6.929  10.748  0.1168  0.0493  0.1873
  479loPI   GL1 7653  15.717   6.628  10.397 -0.3947 -0.1894  0.0443
  479loPI   GL2 7654  16.015   6.561  10.252 -0.0954 -0.1523  0.0843
  479loPI   C1A 7655  15.538   6.783  10.037  0.4740 -0.0263 -0.3383
  479loPI   C2A 7656  15.588   6.867   9.617  0.2038 -0.0854 -0.3082
  479loPI   C3A 7657  15.593   6.943   9.148 -0.2761 -0.1243 -0.1272
  479loPI   C4A 7658  15.621   6.883   8.742  0.0699  0.2047 -0.0501
  479loPI   C5A 7659  15.509   6.951   8.374 -0.0643 -0.0503 -0.1885
  479loPI   C6A 7660  15.611   7.111   7.869  0.0446  0.0960  0.1995
  479loPI   C1B 7661  15.799   6.448   9.810  0.1213 -0.3796  0.0323
  479loPI   C2B 7662  15.833   6.506   9.418  0.2169 -0.0679  0.0350
  479loPI   C3B 7663  15.846   6.515   8.965 -0.0988 -0.0215  0.1064
  479loPI   C4B 7664  15.848   6.574   8.456  0.1435 -0.1202 -0.1199
  480loPI    C1 7665  14.623   9.083  10.812 -0.2499 -0.2809  0.1008
  480loPI    C2 7666  14.933   9.131  11.061 -0.1213 -0.0965 -0.0915
  480loPI    C3 7667  14.563   9.092  11.208 -0.0082 -0.3279  0.1405
  480loPI   PO4 7668  14.695   8.859  10.613  0.4020 -0.0644 -0.2805
  480loPI   GL1 7669  14.913   8.613  10.340 -0.0320 -0.0190  0.2997
  480loPI   GL2 7670  15.026   8.952  10.225  0.0884 -0.0786 -0.1483
  480loPI   C1A 7671  14.794   8.605   9.905 -0.0989 -0.0816 -0.1884
  480loPI   C2A 7672  14.738   8.774   9.460 -0.1414  0.0249  0.0338
  480loPI   C3A 7673  14.753   8.696   9.022 -0.0609 -0.0701  0.0668
  480loPI   C4A 7674  14.790   8.680   8.662 -0.0394 -0.0822  0.3162
  480loPI   C5A 7675  14.656   8.810   8.214  0.0212  0.3301 -0.0404
  480loPI   C6A 7676  14.696   9.055   7.934  0.0044  0.0106  0.0823
  480loPI   C1B 7677  15.021   9.087   9.793 -0.0882  0.0895  0.2777
  480loPI   C2B 7678  15.018   9.167   9.385 -0.1322 -0.0380 -0.0848
  480loPI   C3B 7679  14.988   9.124   8.893 -0.2859 -0.0345 -0.2351
  480loPI   C4B 7680  15.002   9.103   8.477  0.1277 -0.0290 -0.1325
  481loPI    C1 7681   3.710   0.668  11.166 -0.0765 -0.0696  0.0978
  481loPI    C2 7682   3.420   0.522  11.399 -0.0841 -0.0431  0.1050
  481loPI    C3 7683   3.718   0.735  11.561 -0.0019 -0.1628  0.1125
  481loPI   PO4 7684   3.615   0.800  11.029  0.1491 -0.1587 -0.1050
  481loPI   GL1 7685   3.407   0.901  10.708  0.1994 -0.1919  0.0620
  481loPI   GL2 7686   3.303   0.612  10.669  0.1040 -0.1109  0.2288
  481loPI   C1A 7687   3.644   1.090  10.379  0.2026 -0.3921 -0.0646
  481loPI   C2A 7688   3.602   1.151   9.990  0.1727 -0.0069 -0.0524
  481loPI   C3A 7689   3.611   1.169   9.576 -0.0079 -0.0161  0.0272
  481loPI   C4A 7690   3.657   1.117   9.133  0.2277 -0.2259  0.0475
  481loPI   C5A 7691   3.700   0.968   8.714 -0.2482 -0.1561  0.0397
  481loPI   C6A 7692   3.780   0.541   8.407  0.0069  0.1770 -0.1534
  481loPI   C1B 7693   3.407   0.624  10.283  0.0499  0.0106 -0.0539
  481loPI   C2B 7694   3.355   0.575   9.770  0.0157  0.1599 -0.0654
  481loPI   C3B 7695   3.381   0.655   9.330  0.0134 -0.2502 -0.0414
  481loPI   C4B 7696   3.336   0.609   8.872 -0.1039 -0.0268  0.3913
  482loPI    C1 7697   0.637  14.851  11.411 -0.0105  0.0036 -0.1490
  482loPI    C2 7698   0.842  15.165  11.551 -0.0672 -0.0512  0.0609
  482loPI    C3 7699   0.947  14.794  11.658 -0.1416 -0.0915 -0.0048
  482loPI   PO4 7700   0.688  14.913  11.128 -0.2700  0.0238 -0.1336
  482loPI   GL1 7701   0.746  15.050  10.736  0.1800 -0.0298  0.1094
  482loPI   GL2 7702   1.054  15.211  10.606  0.1064 -0.3520 -0.2174
  482loPI   C1A 7703   0.422  14.942  10.457  0.1395  0.1921 -0.1391
  482loPI   C2A 7704   0.358  14.857  10.060  0.0017 -0.1042 -0.4091
  482loPI   C3A 7705   0.313  14.872   9.644  0.0506 -0.2092 -0.2503
  482loPI   C4A 7706   0.387  14.888   9.139 -0.2246  0.1696  0.1917
  482loPI   C5A 7707   0.428  15.047   8.749  0.1374  0.2478  0.2535
  482loPI   C6A 7708   0.348  15.366   8.519 -0.2425 -0.1087  0.1092
  482loPI   C1B 7709   0.851  15.017  10.197 -0.0664 -0.0798  0.0229
  482loPI   C2B 7710   0.797  14.980   9.819  0.2249 -0.1310  0.0297
  482loPI   C3B 7711   0.814  14.983   9.301  0.0234 -0.1242 -0.1269
  482loPI   C4B 7712   0.895  14.974   8.942 -0.0231  0.0900  0.4849
  483loPI    C1 7713   0.599   7.064  10.698 -0.1038 -0.0360 -0.1283
  483loPI    C2 7714   0.817   7.317  10.919 -0.0285  0.0099 -0.2539
  483loPI    C3 7715   0.625   7.012  11.094  0.1295 -0.0258 -0.1405
  483loPI   PO4 7716   0.784   6.944  10.594 -0.1888  0.2401  0.2445
  483loPI   GL1 7717   0.956   6.633  10.421 -0.3084 -0.0916 -0.0319
  483loPI   GL2 7718   0.991   6.420  10.591  0.1316 -0.0383 -0.2905
  483loPI   C1A 7719   0.898   6.706  10.022  0.0243  0.0673 -0.2478
  483loPI   C2A 7720   0.768   6.707   9.633 -0.1212  0.0496 -0.1544
  483loPI   C3A 7721   0.768   6.642   9.166 -0.1458 -0.2522 -0.0721
  483loPI   C4A 7722   0.788   6.915   8.687  0.1477 -0.1034  0.0320
  483loPI   C5A 7723   0.784   7.391   8.666 -0.1714  0.0955 -0.4261
  483loPI   C6A 7724   0.485   7.689   8.530 -0.2275 -0.0848 -0.0955
  483loPI   C1B 7725   1.104   6.225  10.170 -0.1187  0.0856 -0.0509
  483loPI   C2B 7726   1.065   6.273   9.724  0.0131 -0.2420 -0.1181
  483loPI   C3B 7727   0.979   6.223   9.303 -0.1616  0.0055 -0.0296
  483loPI   C4B 7728   1.042   6.344   8.795 -0.3707 -0.1231  0.0445
  484loPI    C1 7729   4.114   0.389  11.261 -0.1357  0.0895 -0.0363
  484loPI    C2 7730   3.771   0.185  11.295  0.0927 -0.3196 -0.1131
  484loPI    C3 7731   4.028   0.197  11.601  0.0390 -0.0616 -0.0757
  484loPI   PO4 7732   4.138   0.400  10.940 -0.3724 -0.0354 -0.1842
  484loPI   GL1 7733   4.543   0.113  10.658 -0.0746 -0.1317 -0.1034
  484loPI   GL2 7734   4.846   0.249  10.515  0.1874  0.2997 -0.0504
  484loPI   C1A 7735   4.453  -0.079  10.190  0.2297 -0.0235  0.1227
  484loPI   C2A 7736   4.501  -0.090   9.758 -0.1881 -0.0474  0.1847
  484loPI   C3A 7737   4.510  -0.165   9.349  0.2951 -0.0143 -0.1036
  484loPI   C4A 7738   4.507  -0.260   8.917  0.6250  0.1411  0.0326
  484loPI   C5A 7739   4.559  -0.089   8.491 -0.1993 -0.0651  0.0544
  484loPI   C6A 7740   4.629   0.365   8.338  0.0732 -0.1353 -0.1521
  484loPI   C1B 7741   4.625   0.360  10.174  0.2620 -0.1526  0.0931
  484loPI   C2B 7742   4.668   0.362   9.721  0.0202 -0.1467  0.0546
  484loPI   C3B 7743   4.767   0.220   9.287  0.3879 -0.1243 -0.1400
  484loPI   C4B 7744   4.713   0.311   8.858 -0.1925 -0.0176  0.1251
  485loPI    C1 7745   9.629   1.604  11.103 -0.0295 -0.0166 -0.0573
  485loPI    C2 7746   9.746   1.602  11.486  0.0054  0.1900 -0.0657
  485loPI    C3 7747   9.573   1.278  11.328  0.1254  0.0519  0.0830
  485loPI   PO4 7748   9.784   1.780  10.938 -0.0708  0.1845 -0.1794
  485loPI   GL1 7749   9.973   1.849  10.547 -0.1614  0.0543  0.1718
  485loPI   GL2 7750  10.005   2.240  10.414 -0.3112 -0.0710 -0.2033
  485loPI   C1A 7751   9.777   1.746  10.196  0.0352 -0.1385 -0.3051
  485loPI   C2A 7752   9.344   1.769   9.916 -0.0686 -0.1411 -0.1310
  485loPI   C3A 7753   9.381   1.697   9.475 -0.1413 -0.1039 -0.0062
  485loPI   C4A 7754   9.229   1.619   9.079 -0.1275  0.1127  0.0983
  485loPI   C5A 7755   9.205   1.636   8.641 -0.1923  0.4708 -0.0468
  485loPI   C6A 7756   9.178   1.697   8.149  0.0337 -0.0987  0.3698
  485loPI   C1B 7757  10.180   2.221   9.965  0.0671 -0.1424  0.0959
  485loPI   C2B 7758  10.191   2.204   9.577 -0.1114 -0.0955 -0.1691
  485loPI   C3B 7759  10.074   2.203   9.220 -0.0224  0.5419  0.3042
  485loPI   C4B 7760   9.994   2.229   8.755  0.1307 -0.1198 -0.1887
  486loPI    C1 7761  12.408   3.004  11.082  0.0641  0.0458  0.1803
  486loPI    C2 7762  12.011   3.028  11.041  0.0668 -0.1100  0.0497
  486loPI    C3 7763  12.194   3.222  11.339 -0.1299 -0.1994  0.2310
  486loPI   PO4 7764  12.492   3.000  10.875  0.2821  0.0893  0.0374
  486loPI   GL1 7765  12.319   2.962  10.521 -0.0372  0.0413 -0.0502
  486loPI   GL2 7766  12.076   2.791  10.583  0.1662 -0.0774  0.1357
  486loPI   C1A 7767  12.334   2.936  10.050  0.2042 -0.0493  0.3157
  486loPI   C2A 7768  12.355   2.823   9.644  0.1169 -0.0749 -0.0532
  486loPI   C3A 7769  12.353   2.850   9.179 -0.0982 -0.0479 -0.3372
  486loPI   C4A 7770  12.342   2.922   8.800 -0.3434 -0.2139 -0.0054
  486loPI   C5A 7771  12.425   3.260   8.488  0.1912  0.1630 -0.0560
  486loPI   C6A 7772  12.638   3.668   8.451 -0.0410  0.2870 -0.0047
  486loPI   C1B 7773  11.872   2.781  10.205  0.3641 -0.5058 -0.0062
  486loPI   C2B 7774  11.852   2.800   9.768  0.0102 -0.2653  0.1601
  486loPI   C3B 7775  11.846   2.813   9.403 -0.3275 -0.0660  0.3727
  486loPI   C4B 7776  11.837   2.910   8.978  0.0241  0.0014 -0.0551
  487loPI    C1 7777   8.612  11.651  11.123  0.1061  0.1505 -0.0669
  487loPI    C2 7778   8.839  11.334  11.033  0.0710  0.0591  0.1590
  487loPI    C3 7779   8.881  11.516  11.386 -0.0826  0.1531  0.1299
  487loPI   PO4 7780   8.641  11.722  10.865  0.1655 -0.1001  0.0358
  487loPI   GL1 7781   8.762  12.008  10.601 -0.0285  0.1448 -0.1670
  487loPI   GL2 7782   9.075  11.978  10.528  0.2619  0.0294  0.1174
  487loPI   C1A 7783   8.576  12.104  10.215  0.1367  0.1949  0.2950
  487loPI   C2A 7784   8.548  12.031   9.847 -0.0368 -0.3534 -0.2965
  487loPI   C3A 7785   8.507  12.069   9.437 -0.1931  0.0393 -0.1636
  487loPI   C4A 7786   8.383  11.980   8.906  0.0750  0.1133 -0.2609
  487loPI   C5A 7787   8.291  12.053   8.469 -0.2814 -0.0111 -0.1166
  487loPI   C6A 7788   8.363  12.530   8.231 -0.1993 -0.0853 -0.1614
  487loPI   C1B 7789   9.081  12.098  10.118  0.0251 -0.1564 -0.2102
  487loPI   C2B 7790   9.044  12.056   9.630  0.0664 -0.0404 -0.0161
  487loPI   C3B 7791   8.997  12.114   9.180  0.0123  0.2454 -0.0361
  487loPI   C4B 7792   8.990  12.038   8.826 -0.0648  0.1419 -0.1247
  488loPI    C1 7793   8.377  11.002  11.101  0.1524 -0.1618  0.0234
  488loPI    C2 7794   8.422  11.291  11.374 -0.2715 -0.0402 -0.0281
  488loPI    C3 7795   8.332  10.919  11.490  0.0664 -0.1089  0.0250
  488loPI   PO4 7796   8.451  11.104  10.891  0.2735 -0.1688 -0.2058
  488loPI   GL1 7797   8.415  11.443  10.523 -0.1578  0.5120  0.0991
  488loPI   GL2 7798   8.286  11.811  10.507 -0.3019 -0.0206  0.0403
  488loPI   C1A 7799   8.365  11.507  10.013 -0.0810  0.0855  0.2578
  488loPI   C2A 7800   8.341  11.603   9.569  0.1343 -0.2766  0.3507
  488loPI   C3A 7801   8.228  11.540   9.183 -0.0107  0.0478  0.2837
  488loPI   C4A 7802   8.290  11.487   8.773  0.1961  0.1025  0.3287
  488loPI   C5A 7803   8.321  11.080   8.537  0.0507 -0.1287  0.2795
  488loPI   C6A 7804   8.196  10.595   8.627  0.1291 -0.0374 -0.2048
  488loPI   C1B 7805   8.078  11.942  10.126 -0.1584  0.0615 -0.3634
  488loPI   C2B 7806   8.036  11.980   9.695  0.0310  0.0154 -0.3032
  488loPI   C3B 7807   7.974  11.936   9.248 -0.0253 -0.5956  0.1215
  488loPI   C4B 7808   7.869  11.942   8.739  0.1402  0.0003  0.1903
  489loPI    C1 7809  12.683   6.625  11.208 -0.0503  0.0114 -0.0719
  489loPI    C2 7810  12.390   6.387  11.341  0.0871 -0.1428 -0.0425
  489loPI    C3 7811  12.566   6.646  11.590 -0.0065 -0.0675 -0.0541
  489loPI   PO4 7812  12.654   6.523  10.971  0.0367  0.1125  0.0551
  489loPI   GL1 7813  12.952   6.475  10.614 -0.0557 -0.4641 -0.2652
  489loPI   GL2 7814  13.016   6.751  10.491  0.0694 -0.0461 -0.1591
  489loPI   C1A 7815  12.842   6.216  10.283  0.0840  0.0864 -0.2288
  489loPI   C2A 7816  12.753   6.044   9.904  0.1753 -0.0636 -0.1480
  489loPI   C3A 7817  12.761   6.119   9.414 -0.0053 -0.2015  0.0425
  489loPI   C4A 7818  12.803   6.101   9.038 -0.0918  0.0329  0.1341
  489loPI   C5A 7819  12.654   6.268   8.670  0.1329 -0.1427 -0.0540
  489loPI   C6A 7820  12.497   6.628   8.562  0.3044 -0.2303  0.2729
  489loPI   C1B 7821  13.086   6.611  10.186  0.2303 -0.2443  0.1866
  489loPI   C2B 7822  13.091   6.633   9.773 -0.0493  0.0174  0.1523
  489loPI   C3B 7823  12.964   6.569   9.318  0.2054  0.2243 -0.2343
  489loPI   C4B 7824  12.931   6.635   8.851 -0.0981  0.1889  0.3236
  490loPI    C1 7825  15.004   8.326  11.018  0.1741  0.3545 -0.1070
  490loPI    C2 7826  14.750   8.633  11.053 -0.0800  0.1155  0.2056
  490loPI    C3 7827  14.766   8.353  11.338  0.1296 -0.1778 -0.0863
  490loPI   PO4 7828  15.130   8.350  10.773 -0.2292 -0.0601 -0.0061
  490loPI   GL1 7829  15.042   8.080  10.461  0.0578  0.0814 -0.0355
  490loPI   GL2 7830  15.086   7.712  10.367 -0.1519 -0.3263  0.4818
  490loPI   C1A 7831  15.228   8.205  10.076  0.0362 -0.4378  0.0591
  490loPI   C2A 7832  15.039   8.246   9.730  0.0130  0.2952  0.2020
  490loPI   C3A 7833  15.081   8.223   9.314 -0.1960 -0.0790 -0.0817
  490loPI   C4A 7834  15.082   8.237   8.864  0.2617 -0.0785 -0.2461
  490loPI   C5A 7835  15.195   8.210   8.463 -0.0545  0.3623 -0.2082
  490loPI   C6A 7836  15.481   8.001   8.278  0.0920  0.0242  0.1208
  490loPI   C1B 7837  14.965   7.657   9.966 -0.1943 -0.1012  0.3175
  490loPI   C2B 7838  14.861   7.761   9.575 -0.0344  0.0704 -0.0828
  490loPI   C3B 7839  14.898   7.809   9.205  0.1401  0.1084  0.0059
  490loPI   C4B 7840  14.886   7.777   8.864  0.1037  0.1827  0.3396
  491loPI    C1 7841  11.979   7.208  11.156 -0.0704 -0.2343 -0.0410
  491loPI    C2 7842  11.625   7.281  11.329 -0.0814  0.0373 -0.1735
  491loPI    C3 7843  11.960   7.285  11.548 -0.1234  0.1230 -0.1102
  491loPI   PO4 7844  11.982   7.256  10.981  0.2469  0.0886 -0.0590
  491loPI   GL1 7845  11.934   7.289  10.630 -0.1434  0.1096  0.2913
  491loPI   GL2 7846  12.080   7.056  10.511 -0.2304  0.0825 -0.1958
  491loPI   C1A 7847  11.859   7.408  10.235 -0.0565  0.0766  0.2654
  491loPI   C2A 7848  11.872   7.332   9.832 -0.1029  0.0733 -0.1896
  491loPI   C3A 7849  11.955   7.401   9.430  0.1976  0.0465 -0.3504
  491loPI   C4A 7850  11.868   7.468   9.023  0.1648  0.0967  0.1936
  491loPI   C5A 7851  11.814   7.537   8.512  0.1006  0.1104  0.0107
  491loPI   C6A 7852  11.503   7.673   8.218  0.0855  0.1851  0.1380
  491loPI   C1B 7853  12.171   6.988  10.136  0.3941 -0.1071 -0.0352
  491loPI   C2B 7854  12.143   6.915   9.696  0.0013  0.1233 -0.2538
  491loPI   C3B 7855  12.200   6.987   9.399 -0.0559  0.1200  0.1608
  491loPI   C4B 7856  12.173   7.026   9.002  0.0990  0.1556 -0.0836
  492loPI    C1 7857  16.555   3.297  11.145  0.1472  0.3946 -0.2107
  492loPI    C2 7858  16.746   3.501  11.430  0.0509 -0.0972  0.2214
  492loPI    C3 7859  16.394   3.632  11.291  0.1343  0.1856  0.2714
  492loPI   PO4 7860  16.887   3.212  10.947  0.3153  0.2532 -0.1157
  492loPI   GL1 7861  17.030   3.099  10.550 -0.1063  0.1080  0.0750
  492loPI   GL2 7862  16.791   3.264  10.463 -0.1200 -0.1759  0.0653
  492loPI   C1A 7863  17.208   2.947  10.246 -0.0895  0.0899 -0.1517
  492loPI   C2A 7864  17.291   2.960   9.896  0.0027 -0.1142 -0.4438
  492loPI   C3A 7865  17.290   2.892   9.446 -0.3126 -0.1622 -0.1491
  492loPI   C4A 7866  17.277   3.042   8.974  0.0981 -0.1493  0.1363
  492loPI   C5A 7867  17.454   3.351   8.757  0.3858 -0.0508 -0.0374
  492loPI   C6A 7868  17.527   3.738   8.645  0.4062  0.0563  0.0992
  492loPI   C1B 7869  16.861   3.321  10.019 -0.3373  0.2069 -0.0635
  492loPI   C2B 7870  16.960   3.374   9.575 -0.0931 -0.1430  0.0268
  492loPI   C3B 7871  16.919   3.461   9.168  0.1116 -0.0707 -0.2110
  492loPI   C4B 7872  16.918   3.287   8.708  0.1565  0.0898 -0.1732
  493loPI    C1 7873   0.271   4.515  11.448  0.1117  0.0622 -0.1188
  493loPI    C2 7874   0.627   4.493  11.630  0.0272  0.0751  0.0492
  493loPI    C3 7875   0.326   4.693  11.802 -0.1058 -0.0624 -0.0205
  493loPI   PO4 7876   0.279   4.537  11.199 -0.0088  0.2079  0.2006
  493loPI   GL1 7877   0.258   4.566  10.693  0.1902 -0.1298 -0.0465
  493loPI   GL2 7878   0.234   4.861  10.704  0.3695  0.0976  0.0724
  493loPI   C1A 7879   0.099   4.455  10.173 -0.1234 -0.0512  0.1436
  493loPI   C2A 7880   0.139   4.423   9.722  0.0617 -0.0914 -0.0894
  493loPI   C3A 7881   0.127   4.363   9.263  0.2448  0.1081 -0.0628
  493loPI   C4A 7882   0.118   4.252   8.887 -0.3952 -0.1831  0.0424
  493loPI   C5A 7883   0.059   4.323   8.483  0.0816 -0.4566  0.1993
  493loPI   C6A 7884  -0.152   4.055   8.119  0.0125  0.0358  0.0983
  493loPI   C1B 7885  -0.118   4.821  10.411 -0.1280  0.0775 -0.1697
  493loPI   C2B 7886  -0.183   4.928   9.992 -0.1348 -0.1940 -0.1545
  493loPI   C3B 7887  -0.192   4.889   9.501 -0.0796 -0.0273  0.0188
  493loPI   C4B 7888  -0.175   4.839   9.093 -0.0421  0.0324  0.0146
  494loPI    C1 7889   8.743  10.642  11.212  0.0930  0.0166 -0.2711
  494loPI    C2 7890   8.867  10.980  11.386 -0.0526 -0.0313 -0.0713
  494loPI    C3 7891   8.947  10.626  11.556 -0.0817 -0.0862 -0.1709
  494loPI   PO4 7892   8.770  10.660  10.998 -0.1992 -0.1413 -0.0155
  494loPI   GL1 7893   8.949  10.707  10.573 -0.1851 -0.0919 -0.0813
  494loPI   GL2 7894   8.913  11.021  10.676 -0.0077 -0.0815  0.2278
  494loPI   C1A 7895   8.919  10.700  10.044  0.0986 -0.0350  0.0129
  494loPI   C2A 7896   8.954  10.663   9.619  0.0982 -0.3426  0.1582
  494loPI   C3A 7897   8.771  10.704   9.233 -0.6097 -0.1384  0.0034
  494loPI   C4A 7898   8.710  10.695   8.821  0.1990 -0.1227 -0.1194
  494loPI   C5A 7899   8.621  10.535   8.382 -0.1750  0.1020  0.1049
  494loPI   C6A 7900   8.330  10.302   8.126 -0.1564  0.3477  0.1564
  494loPI   C1B 7901   8.739  11.161  10.256 -0.4214 -0.0253  0.4558
  494loPI   C2B 7902   8.653  11.131   9.790  0.2993 -0.0750  0.2286
  494loPI   C3B 7903   8.556  11.118   9.389  0.0473  0.2695  0.0422
  494loPI   C4B 7904   8.516  11.143   8.999 -0.0928  0.0443  0.0668
  495loPI    C1 7905   1.502  11.129  11.095  0.3928 -0.0084 -0.0132
  495loPI    C2 7906   1.351  11.300  11.423  0.1858 -0.0235 -0.0991
  495loPI    C3 7907   1.718  11.141  11.432  0.0919 -0.2330  0.1924
  495loPI   PO4 7908   1.304  11.160  10.948  0.1047 -0.0201  0.0409
  495loPI   GL1 7909   1.127  11.124  10.549  0.2286 -0.0343  0.0168
  495loPI   GL2 7910   1.254  11.416  10.491 -0.2421  0.4432  0.0759
  495loPI   C1A 7911   0.959  10.946  10.147 -0.0545 -0.0610 -0.0809
  495loPI   C2A 7912   0.943  10.924   9.715  0.3183  0.1155 -0.0213
  495loPI   C3A 7913   1.065  10.815   9.480 -0.3342 -0.1537 -0.0432
  495loPI   C4A 7914   1.019  10.922   8.991  0.0453  0.0692 -0.2002
  495loPI   C5A 7915   1.194  10.922   8.554  0.0096  0.2564  0.0308
  495loPI   C6A 7916   1.577  11.142   8.391  0.3772  0.0547  0.1654
  495loPI   C1B 7917   1.232  11.424  10.103 -0.1975  0.0966  0.2760
  495loPI   C2B 7918   1.155  11.422   9.656  0.2616 -0.0835  0.1028
  495loPI   C3B 7919   1.278  11.368   9.285  0.2044 -0.0841 -0.1722
  495loPI   C4B 7920   1.153  11.380   8.807  0.1054  0.2390  0.1183
  496loPI    C1 7921   4.872   9.126  10.841 -0.4002 -0.0516  0.2873
  496loPI    C2 7922   4.792   8.772  11.008  0.1395 -0.2079  0.2342
  496loPI    C3 7923   5.071   9.010  11.168  0.1491 -0.0382 -0.0294
  496loPI   PO4 7924   4.902   8.993  10.563  0.1204  0.1500  0.2473
  496loPI   GL1 7925   4.845   9.106  10.201  0.0260  0.1225 -0.0572
  496loPI   GL2 7926   4.957   9.370  10.217  0.0716 -0.0463 -0.2071
  496loPI   C1A 7927   4.705   9.031   9.805 -0.1870 -0.0294  0.3868
  496loPI   C2A 7928   4.723   8.935   9.345 -0.1330  0.1933  0.0206
  496loPI   C3A 7929   4.546   8.908   8.985  0.0617 -0.4337 -0.1266
  496loPI   C4A 7930   4.497   8.861   8.508  0.1025  0.0033 -0.2856
  496loPI   C5A 7931   4.326   8.988   8.187  0.0016  0.3064  0.1215
  496loPI   C6A 7932   4.420   9.263   7.767  0.2134 -0.1735  0.3240
  496loPI   C1B 7933   5.010   9.397   9.837  0.2081 -0.2477  0.0806
  496loPI   C2B 7934   4.848   9.351   9.497 -0.3334 -0.0978  0.3418
  496loPI   C3B 7935   4.781   9.383   9.166  0.0324  0.3351  0.3517
  496loPI   C4B 7936   4.768   9.309   8.771  0.3613 -0.0070 -0.0022
  497loPI    C1 7937  15.970  16.476  11.333  0.1735  0.0706  0.0820
  497loPI    C2 7938  16.025  16.084  11.276 -0.0281  0.0781 -0.1889
  497loPI    C3 7939  16.132  16.253  11.623 -0.1344 -0.2546  0.0114
  497loPI   PO4 7940  16.031  16.640  11.085  0.1524 -0.2661 -0.2016
  497loPI   GL1 7941  16.205  16.668  10.734  0.0798  0.2142  0.0228
  497loPI   GL2 7942  16.376  16.541  10.620 -0.0423 -0.2543  0.0334
  497loPI   C1A 7943  16.089  16.917  10.365  0.1372 -0.1128  0.2037
  497loPI   C2A 7944  16.056  16.909   9.940  0.2763 -0.1533 -0.1790
  497loPI   C3A 7945  16.136  16.904   9.546  0.1869  0.0318 -0.1169
  497loPI   C4A 7946  16.071  16.971   9.212  0.0844  0.0406 -0.2281
  497loPI   C5A 7947  15.948  16.952   8.759 -0.1192  0.3236  0.0292
  497loPI   C6A 7948  15.970  16.629   8.426 -0.1589  0.1003  0.0088
  497loPI   C1B 7949  16.348  16.524  10.120  0.1882 -0.2911 -0.2400
  497loPI   C2B 7950  16.389  16.418   9.718 -0.2009 -0.0760  0.0242
  497loPI   C3B 7951  16.399  16.505   9.248 -0.3206 -0.2525 -0.2472
  497loPI   C4B 7952  16.245  16.570   8.842 -0.2123 -0.2385 -0.0066
  498loPI    C1 7953   3.072   0.793  11.135 -0.0399 -0.0539  0.1065
  498loPI    C2 7954   2.962   0.813  11.519  0.1479  0.0916  0.1544
  498loPI    C3 7955   3.305   0.981  11.400  0.0591  0.1047 -0.0897
  498loPI   PO4 7956   2.837   0.592  11.010  0.0540 -0.0857  0.0181
  498loPI   GL1 7957   2.882   0.435  10.649 -0.0123 -0.1490 -0.0762
  498loPI   GL2 7958   2.534   0.509  10.599  0.1750  0.0877 -0.1337
  498loPI   C1A 7959   2.937   0.564  10.250 -0.2237 -0.2192 -0.1262
  498loPI   C2A 7960   2.855   0.511   9.807  0.0355 -0.2709 -0.0277
  498loPI   C3A 7961   2.853   0.509   9.363 -0.1679  0.1616  0.0145
  498loPI   C4A 7962   2.907   0.701   8.984 -0.0719  0.3572  0.1480
  498loPI   C5A 7963   2.671   1.062   8.735 -0.0652  0.0544 -0.3860
  498loPI   C6A 7964   2.354   1.409   8.727  0.0145  0.2478  0.2760
  498loPI   C1B 7965   2.388   0.516  10.308 -0.1163 -0.1356 -0.1019
  498loPI   C2B 7966   2.385   0.568   9.954  0.4388 -0.0324 -0.0424
  498loPI   C3B 7967   2.369   0.533   9.546 -0.4821 -0.1668  0.0135
  498loPI   C4B 7968   2.420   0.536   9.070 -0.0428 -0.0558  0.1407
  499loPI    C1 7969   1.034  13.074  11.154  0.1584  0.0587 -0.1504
  499loPI    C2 7970   1.075  13.108  11.550  0.0436  0.1057 -0.1421
  499loPI    C3 7971   1.399  13.075  11.318  0.1145  0.1619 -0.0518
  499loPI   PO4 7972   0.868  13.322  11.072  0.1624  0.0107 -0.1142
  499loPI   GL1 7973   0.692  13.353  10.640  0.0925  0.3467 -0.1910
  499loPI   GL2 7974   0.717  13.599  10.463  0.0455 -0.2485  0.2550
  499loPI   C1A 7975   0.530  13.084  10.286 -0.1102  0.2078 -0.0475
  499loPI   C2A 7976   0.586  13.015   9.820  0.1658 -0.0267 -0.0879
  499loPI   C3A 7977   0.457  13.071   9.406  0.1384 -0.1069  0.2417
  499loPI   C4A 7978   0.412  13.046   8.933  0.2379  0.5221  0.0017
  499loPI   C5A 7979   0.532  13.029   8.438 -0.0827  0.1943  0.1668
  499loPI   C6A 7980   0.443  13.169   8.038  0.0023 -0.1258  0.0705
  499loPI   C1B 7981   0.745  13.543  10.068  0.1159  0.1596 -0.2667
  499loPI   C2B 7982   0.750  13.501   9.636 -0.0155  0.0456  0.0297
  499loPI   C3B 7983   0.761  13.525   9.267  0.0518 -0.0084  0.0037
  499loPI   C4B 7984   0.577  13.445   8.780  0.2350  0.0509  0.0779
  500loPI    C1 7985  15.155   7.400  11.159 -0.1903  0.0461 -0.2860
  500loPI    C2 7986  14.758   7.356  11.179 -0.1741 -0.0196 -0.0787
  500loPI    C3 7987  14.926   7.703  11.286 -0.1503 -0.1049  0.1667
  500loPI   PO4 7988  15.248   7.292  10.884  0.0710  0.0071  0.1726
  500loPI   GL1 7989  15.542   7.492  10.506 -0.0153 -0.0611 -0.0503
  500loPI   GL2 7990  15.409   7.072  10.454  0.0321  0.1345 -0.3092
  500loPI   C1A 7991  15.797   7.445  10.227 -0.2597 -0.1305 -0.0509
  500loPI   C2A 7992  15.853   7.433   9.820 -0.1785 -0.0387  0.2387
  500loPI   C3A 7993  15.709   7.400   9.486  0.3484 -0.2877  0.3138
  500loPI   C4A 7994  15.710   7.430   9.025 -0.0101 -0.0988  0.2946
  500loPI   C5A 7995  15.672   7.361   8.550  0.1827  0.0755 -0.2663
  500loPI   C6A 7996  15.452   7.522   8.117  0.0564  0.1885  0.1831
  500loPI   C1B 7997  15.310   7.261  10.035 -0.0484 -0.0288  0.0721
  500loPI   C2B 7998  15.233   7.365   9.624 -0.1213 -0.0377  0.1456
  500loPI   C3B 7999  15.214   7.340   9.217  0.0171  0.0711 -0.0311
  500loPI   C4B 8000  15.236   7.268   8.778 -0.0258 -0.2357 -0.1619
  501loPI    C1 8001   5.377   0.094  11.117 -0.0546  0.2068 -0.3798
  501loPI    C2 8002   5.031   0.090  11.318  0.0021 -0.1760 -0.2822
  501loPI    C3 8003   5.377   0.113  11.517  0.0477 -0.2410 -0.3536
  501loPI   PO4 8004   5.249   0.191  10.851 -0.2711  0.2256 -0.3437
  501loPI   GL1 8005   5.214  -0.168  10.584 -0.1063  0.0383  0.0211
  501loPI   GL2 8006   4.986  -0.260  10.432 -0.3642 -0.1790  0.2724
  501loPI   C1A 8007   5.450  -0.165  10.233 -0.0632 -0.0378  0.1369
  501loPI   C2A 8008   5.490  -0.209   9.831  0.1475  0.0825 -0.1437
  501loPI   C3A 8009   5.477  -0.161   9.470 -0.1667  0.1277  0.0082
  501loPI   C4A 8010   5.580  -0.105   9.090  0.1206 -0.1817 -0.2176
  501loPI   C5A 8011   5.576  -0.016   8.645  0.1193 -0.1722 -0.1369
  501loPI   C6A 8012   5.452  -0.325   8.291 -0.1057 -0.1779  0.1472
  501loPI   C1B 8013   4.956  -0.127  10.011  0.0627 -0.0343  0.1355
  501loPI   C2B 8014   4.980  -0.207   9.630 -0.0769 -0.2394  0.0960
  501loPI   C3B 8015   5.055  -0.125   9.187  0.1396  0.0100  0.0706
  501loPI   C4B 8016   4.997  -0.129   8.852  0.0116  0.2267 -0.1788
  502loPI    C1 8017   9.343   2.145  11.067  0.0243 -0.0987 -0.1010
  502loPI    C2 8018   9.251   2.176  11.455 -0.0312  0.1821 -0.1348
  502loPI    C3 8019   9.631   2.120  11.343  0.0201  0.3526 -0.0498
  502loPI   PO4 8020   9.301   2.306  10.907 -0.1172  0.1839 -0.0427
  502loPI   GL1 8021   9.191   2.182  10.455 -0.2872 -0.5028 -0.1711
  502loPI   GL2 8022   9.497   2.074  10.450 -0.0683 -0.0882  0.0604
  502loPI   C1A 8023   9.022   2.130  10.106  0.0042  0.3777  0.3019
  502loPI   C2A 8024   9.039   2.163   9.714  0.0193 -0.0341 -0.1232
  502loPI   C3A 8025   8.976   2.062   9.324  0.0791 -0.0718 -0.1262
  502loPI   C4A 8026   8.934   2.008   8.826 -0.0026  0.3356 -0.1473
  502loPI   C5A 8027   9.011   2.171   8.384 -0.2870 -0.2531 -0.0510
  502loPI   C6A 8028   9.461   2.188   8.220  0.0729  0.2304 -0.0944
  502loPI   C1B 8029   9.534   2.219   9.993  0.1284 -0.2906 -0.2594
  502loPI   C2B 8030   9.586   2.191   9.518  0.0048 -0.2137  0.0035
  502loPI   C3B 8031   9.417   2.100   9.111  0.0053  0.1301  0.0481
  502loPI   C4B 8032   9.404   2.124   8.775  0.1656 -0.0894  0.3081
  503loPI    C1 8033   8.548  10.222  11.464  0.0215 -0.0372 -0.0689
  503loPI    C2 8034   8.268  10.083  11.713  0.1978  0.0129  0.1605
  503loPI    C3 8035   8.339  10.476  11.692  0.1889  0.0081  0.0358
  503loPI   PO4 8036   8.479  10.098  11.245 -0.2140  0.0094  0.3849
  503loPI   GL1 8037   8.575  10.056  10.831  0.0027  0.1962  0.2188
  503loPI   GL2 8038   8.835   9.903  10.740 -0.4508 -0.3141 -0.1414
  503loPI   C1A 8039   8.312  10.191  10.505  0.0187  0.2553 -0.3476
  503loPI   C2A 8040   8.234  10.098  10.143  0.0305 -0.1348  0.0119
  503loPI   C3A 8041   8.156  10.074   9.666 -0.0124  0.1119 -0.1805
  503loPI   C4A 8042   8.104  10.264   9.305 -0.2053 -0.1076 -0.0876
  503loPI   C5A 8043   8.105  10.182   8.918 -0.0441  0.0302  0.2009
  503loPI   C6A 8044   8.370  10.071   8.607  0.2409  0.0140  0.1571
  503loPI   C1B 8045   9.044   9.814  10.422 -0.1575  0.1312 -0.0389
  503loPI   C2B 8046   9.033   9.768  10.083 -0.0203 -0.1403  0.4451
  503loPI   C3B 8047   9.021   9.776   9.644  0.2641 -0.1378 -0.0052
  503loPI   C4B 8048   8.965   9.795   9.226  0.1193  0.0761 -0.1648
  504loPI    C1 8049   3.854  10.755  11.110  0.1269 -0.1050  0.0526
  504loPI    C2 8050   4.114  10.923  10.856 -0.0451  0.0302 -0.0361
  504loPI    C3 8051   4.124  11.018  11.245 -0.0983  0.1972 -0.0747
  504loPI   PO4 8052   3.712  10.718  10.985 -0.2280 -0.0953 -0.2984
  504loPI   GL1 8053   3.618  10.804  10.592 -0.0377 -0.0032  0.2816
  504loPI   GL2 8054   3.704  10.494  10.513 -0.0424  0.0372 -0.2951
  504loPI   C1A 8055   3.732  11.059  10.239  0.0283  0.2581 -0.2200
  504loPI   C2A 8056   3.726  10.992   9.913 -0.2027  0.0299  0.1015
  504loPI   C3A 8057   3.552  10.980   9.412  0.1704  0.0627 -0.1792
  504loPI   C4A 8058   3.508  11.122   8.997  0.2633  0.1087 -0.2718
  504loPI   C5A 8059   3.359  11.124   8.531  0.1830 -0.0102  0.0900
  504loPI   C6A 8060   3.409  11.378   8.250 -0.0589 -0.1178 -0.0295
  504loPI   C1B 8061   3.594  10.557  10.157  0.0072  0.0243  0.2653
  504loPI   C2B 8062   3.566  10.568   9.691  0.0737 -0.5701 -0.0535
  504loPI   C3B 8063   3.392  10.579   9.164  0.0888 -0.1174  0.1113
  504loPI   C4B 8064   3.286  10.638   8.750  0.1057  0.1723 -0.0208
  505loPI    C1 8065  16.634   2.729  11.278 -0.1554  0.1717 -0.1427
  505loPI    C2 8066  16.934   2.957  11.412  0.0020 -0.0445 -0.1216
  505loPI    C3 8067  16.570   2.987  11.577  0.1071 -0.0574  0.1172
  505loPI   PO4 8068  16.583   2.771  10.931  0.2411 -0.0422  0.1721
  505loPI   GL1 8069  16.693   2.725  10.552  0.0582 -0.1252 -0.1164
  505loPI   GL2 8070  16.965   2.595  10.492 -0.1528  0.3249 -0.0655
  505loPI   C1A 8071  16.745   2.840  10.128 -0.3693 -0.1855 -0.3280
  505loPI   C2A 8072  16.726   2.855   9.699 -0.2083  0.1712 -0.1106
  505loPI   C3A 8073  16.762   2.915   9.309 -0.2603  0.0773  0.1854
  505loPI   C4A 8074  16.766   2.830   8.928 -0.3792 -0.1048 -0.3033
  505loPI   C5A 8075  17.137   2.786   8.498  0.0372 -0.0634 -0.0298
  505loPI   C6A 8076  17.568   2.910   8.437 -0.0719  0.1332  0.2635
  505loPI   C1B 8077  17.039   2.401  10.078  0.0267 -0.1390  0.0984
  505loPI   C2B 8078  17.043   2.427   9.674  0.2309  0.0603 -0.2500
  505loPI   C3B 8079  17.098   2.481   9.249 -0.1121  0.1855 -0.0080
  505loPI   C4B 8080  16.993   2.436   8.756  0.1304  0.0804  0.1437
  506loPI    C1 8081   3.781  14.529  11.350 -0.2949  0.1639  0.2078
  506loPI    C2 8082   3.738  14.229  11.610  0.0593 -0.1081 -0.0369
  506loPI    C3 8083   4.069  14.453  11.617 -0.0561  0.0652 -0.0723
  506loPI   PO4 8084   3.697  14.445  11.102 -0.0457  0.1118  0.1810
  506loPI   GL1 8085   3.611  14.595  10.651 -0.4429  0.2023 -0.2284
  506loPI   GL2 8086   3.382  14.657  10.563 -0.2322 -0.3606 -0.2644
  506loPI   C1A 8087   3.574  14.369  10.297 -0.2788  0.0034  0.2471
  506loPI   C2A 8088   3.535  14.301   9.854 -0.0540  0.1254 -0.0708
  506loPI   C3A 8089   3.645  14.213   9.446 -0.0579  0.0257  0.1163
  506loPI   C4A 8090   3.602  14.273   8.987 -0.1480 -0.2102 -0.0774
  506loPI   C5A 8091   3.755  14.355   8.556  0.0620  0.0424 -0.0966
  506loPI   C6A 8092   3.534  14.294   8.225 -0.0827 -0.0032  0.0453
  506loPI   C1B 8093   3.282  14.805  10.142 -0.0720  0.2924 -0.3708
  506loPI   C2B 8094   3.259  14.766   9.792 -0.0620 -0.1858 -0.1433
  506loPI   C3B 8095   3.268  14.668   9.374 -0.1518 -0.2608 -0.3568
  506loPI   C4B 8096   3.345  14.753   8.994 -0.0324  0.0008 -0.2469
  507loPI    C1 8097  16.178   1.571  11.313  0.1228  0.2192  0.4140
  507loPI    C2 8098  15.986   1.290  11.524 -0.0767 -0.0282 -0.0824
  507loPI    C3 8099  16.377   1.349  11.579 -0.1076 -0.1483  0.2870
  507loPI   PO4 8100  16.075   1.496  11.075  0.3494  0.0648  0.2053
  507loPI   GL1 8101  16.169   1.586  10.596  0.3271 -0.1053  0.0842
  507loPI   GL2 8102  16.452   1.484  10.720 -0.2092 -0.0203 -0.0220
  507loPI   C1A 8103  16.050   1.414  10.266 -0.0142  0.0298  0.2199
  507loPI   C2A 8104  16.141   1.402   9.851  0.0387 -0.2565  0.2601
  507loPI   C3A 8105  16.127   1.488   9.408 -0.1460  0.1816  0.1722
  507loPI   C4A 8106  16.063   1.548   9.014 -0.0294  0.1311  0.0825
  507loPI   C5A 8107  15.752   1.434   8.736 -0.2593  0.2799  0.2498
  507loPI   C6A 8108  15.401   1.273   8.521 -0.2202  0.1400  0.1238
  507loPI   C1B 8109  16.555   1.399  10.333  0.1546  0.0772  0.0386
  507loPI   C2B 8110  16.615   1.516   9.847  0.0844  0.0727  0.2430
  507loPI   C3B 8111  16.605   1.535   9.303  0.0125  0.0418 -0.0599
  507loPI   C4B 8112  16.639   1.590   8.826  0.1184  0.2942 -0.0496
  508loPI    C1 8113   1.188  14.766  10.889  0.0228 -0.0447 -0.0031
  508loPI    C2 8114   1.171  14.976  11.229  0.0820  0.1371 -0.1114
  508loPI    C3 8115   1.074  14.588  11.229 -0.0992  0.1807  0.0759
  508loPI   PO4 8116   1.470  14.916  10.839  0.2424  0.1200 -0.0397
  508loPI   GL1 8117   1.530  15.100  10.455  0.0668 -0.2969  0.0315
  508loPI   GL2 8118   1.560  15.487  10.641 -0.3266  0.1768 -0.0356
  508loPI   C1A 8119   1.430  15.039  10.087 -0.0083 -0.1157  0.1530
  508loPI   C2A 8120   1.346  15.035   9.598 -0.0994 -0.0014  0.0590
  508loPI   C3A 8121   1.376  15.060   9.177 -0.0750  0.1931  0.3100
  508loPI   C4A 8122   1.442  14.892   8.831 -0.0243 -0.1380  0.0077
  508loPI   C5A 8123   1.569  14.859   8.382 -0.1251 -0.0313 -0.0204
  508loPI   C6A 8124   1.524  14.679   8.051 -0.3635  0.1655 -0.2494
  508loPI   C1B 8125   1.589  15.548  10.181  0.0510  0.0169 -0.0553
  508loPI   C2B 8126   1.614  15.507   9.731  0.0926 -0.0307  0.1241
  508loPI   C3B 8127   1.679  15.479   9.313  0.0975  0.0744 -0.1577
  508loPI   C4B 8128   1.731  15.578   8.818 -0.0828  0.1723 -0.0378
  509loPI    C1 8129   4.689   4.091  11.289  0.2409  0.2315 -0.0614
  509loPI    C2 8130   4.532   4.441  11.402 -0.1103  0.0074  0.1634
  509loPI    C3 8131   4.679   4.190  11.676 -0.0401 -0.1070  0.0226
  509loPI   PO4 8132   4.793   4.172  11.050  0.1646  0.0457  0.4700
  509loPI   GL1 8133   4.882   4.232  10.626 -0.1064  0.1216 -0.1488
  509loPI   GL2 8134   4.652   4.446  10.638  0.0569  0.0268  0.0340
  509loPI   C1A 8135   4.923   4.119  10.266  0.1767 -0.1518 -0.1564
  509loPI   C2A 8136   4.832   3.936   9.920  0.0326  0.1838 -0.2305
  509loPI   C3A 8137   4.809   3.948   9.521  0.1606  0.0128  0.0403
  509loPI   C4A 8138   4.953   3.889   9.131  0.2352  0.0262 -0.0383
  509loPI   C5A 8139   4.996   3.977   8.643  0.1084 -0.1231  0.0102
  509loPI   C6A 8140   4.975   4.213   8.239 -0.2146  0.0889  0.0876
  509loPI   C1B 8141   4.483   4.353  10.222  0.3827  0.1120 -0.2827
  509loPI   C2B 8142   4.504   4.300   9.791 -0.0379  0.3083  0.0647
  509loPI   C3B 8143   4.683   4.419   9.395  0.2933  0.0807  0.0282
  509loPI   C4B 8144   4.579   4.329   9.053 -0.0597  0.1623  0.2681
  510loPI    C1 8145  12.737  15.400  11.403 -0.0489  0.2326  0.0465
  510loPI    C2 8146  13.095  15.519  11.535  0.0104 -0.0334  0.1307
  510loPI    C3 8147  12.861  15.293  11.768  0.0310 -0.3402 -0.1389
  510loPI   PO4 8148  12.681  15.323  11.206 -0.1464 -0.0396  0.2074
  510loPI   GL1 8149  12.636  15.268  10.761 -0.0372 -0.3114  0.3523
  510loPI   GL2 8150  12.459  14.993  10.642 -0.5212 -0.3577  0.3328
  510loPI   C1A 8151  12.858  15.225  10.418 -0.1657 -0.3996  0.2737
  510loPI   C2A 8152  12.853  15.215  10.037  0.0526 -0.0310 -0.0496
  510loPI   C3A 8153  12.819  15.204   9.641 -0.2685 -0.2483  0.1156
  510loPI   C4A 8154  12.835  15.223   9.114 -0.0068  0.4543 -0.1123
  510loPI   C5A 8155  12.869  15.170   8.582  0.2414 -0.1064 -0.3403
  510loPI   C6A 8156  12.961  15.372   8.188  0.0506  0.2912 -0.3146
  510loPI   C1B 8157  12.634  14.772  10.306  0.1800 -0.1526  0.0301
  510loPI   C2B 8158  12.582  14.740   9.863  0.0323  0.0706 -0.3142
  510loPI   C3B 8159  12.609  14.720   9.475  0.0467 -0.1242  0.1836
  510loPI   C4B 8160  12.651  14.786   9.030  0.2876  0.0845 -0.0432
  511loPI    C1 8161   2.738  11.977  11.542  0.0407  0.1186 -0.0209
  511loPI    C2 8162   2.814  12.219  11.852 -0.2145  0.0847  0.0708
  511loPI    C3 8163   2.916  11.832  11.870 -0.0980  0.1140  0.0531
  511loPI   PO4 8164   2.817  12.114  11.316 -0.0853 -0.0716 -0.1159
  511loPI   GL1 8165   2.984  12.327  10.854  0.1999  0.2369  0.2475
  511loPI   GL2 8166   3.023  12.122  10.590 -0.0153  0.0562  0.1764
  511loPI   C1A 8167   2.691  12.575  10.557 -0.2073  0.1579  0.1414
  511loPI   C2A 8168   2.601  12.654  10.092  0.2841  0.0400 -0.0733
  511loPI   C3A 8169   2.372  12.721   9.741 -0.3622  0.2958 -0.1988
  511loPI   C4A 8170   2.258  12.799   9.363  0.2337  0.3866 -0.1609
  511loPI   C5A 8171   2.465  12.887   8.966  0.2168 -0.0352 -0.0837
  511loPI   C6A 8172   2.270  12.683   8.558  0.1186  0.0698  0.2786
  511loPI   C1B 8173   2.944  12.326  10.174  0.0564  0.0088  0.3822
  511loPI   C2B 8174   2.781  12.393   9.722 -0.2330  0.1302  0.0097
  511loPI   C3B 8175   2.600  12.413   9.303 -0.0865  0.0841 -0.2845
  511loPI   C4B 8176   2.637  12.383   8.856 -0.0026  0.1746 -0.0012
  512loPI    C1 8177   9.495  14.173  11.327  0.0359 -0.2452  0.0679
  512loPI    C2 8178   9.608  14.083  11.700  0.0590  0.0023  0.1223
  512loPI    C3 8179   9.475  13.795  11.456 -0.0330 -0.1486  0.3473
  512loPI   PO4 8180   9.651  14.297  11.211  0.0765 -0.5109  0.0982
  512loPI   GL1 8181   9.559  14.301  10.793  0.1236 -0.0717  0.1644
  512loPI   GL2 8182   9.724  14.045  10.549  0.3857  0.1170 -0.1578
  512loPI   C1A 8183   9.521  14.446  10.354  0.4119  0.3494 -0.2248
  512loPI   C2A 8184   9.583  14.349   9.966 -0.1638  0.0116  0.1886
  512loPI   C3A 8185   9.454  14.358   9.526 -0.0871 -0.0983  0.2276
  512loPI   C4A 8186   9.547  14.329   9.061  0.0084 -0.0977 -0.1927
  512loPI   C5A 8187   9.852  14.319   8.687 -0.1352  0.1921  0.0892
  512loPI   C6A 8188  10.058  14.211   8.280 -0.2804 -0.1893 -0.1471
  512loPI   C1B 8189   9.830  13.919  10.243  0.2959 -0.2006 -0.1141
  512loPI   C2B 8190   9.918  14.015   9.829 -0.0874  0.0428  0.1899
  512loPI   C3B 8191   9.862  13.978   9.437  0.0740 -0.1214  0.0849
  512loPI   C4B 8192   9.846  13.896   8.997  0.0891  0.3171 -0.1112
  513loPI    C1 8193   4.387  12.210  11.065  0.2352 -0.2271  0.0548
  513loPI    C2 8194   4.128  11.993  11.280  0.0003  0.0770  0.0866
  513loPI    C3 8195   4.466  12.127  11.449  0.0649 -0.1173  0.1148
  513loPI   PO4 8196   4.289  12.219  10.824 -0.2164 -0.0284  0.0500
  513loPI   GL1 8197   4.418  12.330  10.505 -0.2243  0.1579 -0.1389
  513loPI   GL2 8198   4.174  12.074  10.382 -0.0473 -0.0802  0.1224
  513loPI   C1A 8199   4.322  12.509  10.089  0.0742  0.0762 -0.2666
  513loPI   C2A 8200   4.292  12.550   9.659 -0.1116 -0.3552  0.0135
  513loPI   C3A 8201   4.301  12.531   9.293  0.1403 -0.1666  0.0163
  513loPI   C4A 8202   4.216  12.513   8.886  0.0682 -0.0292 -0.0478
  513loPI   C5A 8203   4.037  12.400   8.472 -0.1489  0.2130 -0.4207
  513loPI   C6A 8204   3.657  12.603   8.324 -0.1025 -0.3079  0.2639
  513loPI   C1B 8205   4.163  12.029   9.937 -0.1054  0.1046 -0.0584
  513loPI   C2B 8206   4.103  12.109   9.524 -0.1431  0.0650 -0.0214
  513loPI   C3B 8207   4.072  12.043   9.192 -0.0283 -0.1779 -0.2501
  513loPI   C4B 8208   3.900  12.051   8.812  0.0409 -0.1569 -0.0104
  514loPI    C1 8209  13.973   3.989  10.829 -0.1550  0.1886 -0.1703
  514loPI    C2 8210  13.697   4.219  11.005 -0.0786  0.1466  0.0067
  514loPI    C3 8211  13.599   3.855  10.874 -0.0766  0.0791  0.1899
  514loPI   PO4 8212  14.092   4.101  10.684  0.0174 -0.1653  0.0074
  514loPI   GL1 8213  13.999   4.231  10.299  0.0283 -0.1764 -0.1870
  514loPI   GL2 8214  13.792   3.916  10.348  0.1906  0.1893  0.0246
  514loPI   C1A 8215  13.990   4.369   9.803  0.0222 -0.4714 -0.1753
  514loPI   C2A 8216  13.963   4.390   9.400 -0.0190  0.2915  0.0005
  514loPI   C3A 8217  13.907   4.429   8.988 -0.0039  0.0992 -0.1471
  514loPI   C4A 8218  13.879   4.694   8.682  0.0767 -0.3461 -0.0316
  514loPI   C5A 8219  13.578   4.753   8.337  0.0646 -0.1286  0.2369
  514loPI   C6A 8220  13.223   4.517   8.295  0.0230  0.0890  0.0965
  514loPI   C1B 8221  13.866   3.928   9.909  0.0248  0.0600  0.0843
  514loPI   C2B 8222  13.757   3.935   9.487 -0.0282  0.3424  0.0567
  514loPI   C3B 8223  13.751   3.966   9.078  0.1571 -0.2773  0.1951
  514loPI   C4B 8224  13.658   4.036   8.558 -0.0313 -0.0618 -0.1327
  515loPI    C1 8225   3.904   2.749  11.335 -0.1754 -0.1209 -0.1429
  515loPI    C2 8226   4.219   2.509  11.394  0.0372  0.1327 -0.2225
  515loPI    C3 8227   4.004   2.638  11.706 -0.1701 -0.2753 -0.1900
  515loPI   PO4 8228   4.013   2.955  11.189 -0.2681 -0.1269  0.1051
  515loPI   GL1 8229   4.106   3.095  10.752  0.2192  0.1566 -0.2135
  515loPI   GL2 8230   3.819   3.027  10.747  0.0189 -0.1249  0.0627
  515loPI   C1A 8231   4.471   2.952  10.468  0.0339 -0.1506 -0.2149
  515loPI   C2A 8232   4.530   2.955  10.013  0.0000  0.4400 -0.0679
  515loPI   C3A 8233   4.406   3.013   9.676  0.1502  0.2529 -0.1049
  515loPI   C4A 8234   4.488   3.040   9.323  0.1673  0.1736  0.0137
  515loPI   C5A 8235   4.471   3.009   8.834 -0.0036 -0.1480 -0.1468
  515loPI   C6A 8236   4.343   2.622   8.522 -0.2632  0.3116  0.3401
  515loPI   C1B 8237   3.955   2.981  10.214 -0.0845 -0.0212 -0.1190
  515loPI   C2B 8238   3.983   2.897   9.858  0.1577  0.0027  0.0066
  515loPI   C3B 8239   3.940   2.911   9.443  0.0614 -0.0448 -0.4292
  515loPI   C4B 8240   3.923   2.924   9.087 -0.1189 -0.4178 -0.0613
  516loPI    C1 8241  10.537   2.064  11.224 -0.0235 -0.2239 -0.0254
  516loPI    C2 8242  10.357   2.407  11.125  0.3792 -0.0092 -0.0313
  516loPI    C3 8243  10.138   2.083  11.205 -0.0014  0.2085 -0.1667
  516loPI   PO4 8244  10.712   2.072  11.044 -0.0867 -0.1110  0.0832
  516loPI   GL1 8245  10.635   2.123  10.665 -0.1915  0.3291  0.1715
  516loPI   GL2 8246  10.459   2.029  10.595 -0.0720 -0.2686 -0.0387
  516loPI   C1A 8247  10.672   2.289  10.172 -0.0274  0.1004 -0.2611
  516loPI   C2A 8248  10.671   2.296   9.760  0.1442  0.0645  0.3744
  516loPI   C3A 8249  10.615   2.236   9.295  0.3229 -0.1842  0.0730
  516loPI   C4A 8250  10.489   2.237   8.914  0.1576  0.0206 -0.0316
  516loPI   C5A 8251  10.397   2.293   8.441  0.0081  0.0544  0.1768
  516loPI   C6A 8252   9.955   2.239   8.254 -0.1444  0.1257 -0.0748
  516loPI   C1B 8253  10.396   1.858  10.187  0.2221 -0.2014  0.0735
  516loPI   C2B 8254  10.391   1.747   9.734 -0.0077  0.0161 -0.1142
  516loPI   C3B 8255  10.397   1.767   9.337  0.0598  0.0064 -0.0777
  516loPI   C4B 8256  10.274   1.820   8.964 -0.0284  0.0064 -0.0545
  517loPI    C1 8257   6.030   3.453  10.954 -0.0403  0.0257 -0.1489
  517loPI    C2 8258   6.154   3.553  11.321 -0.2477 -0.0527 -0.0558
  517loPI    C3 8259   6.199   3.810  11.018 -0.1182  0.0310  0.0332
  517loPI   PO4 8260   5.793   3.369  10.928  0.1372  0.2549 -0.0477
  517loPI   GL1 8261   5.475   3.315  10.560 -0.3020  0.1581  0.0433
  517loPI   GL2 8262   5.665   3.511  10.289 -0.2071 -0.1401  0.1226
  517loPI   C1A 8263   5.476   3.060  10.246 -0.1799  0.0226 -0.1817
  517loPI   C2A 8264   5.508   3.121   9.821 -0.4195 -0.1794  0.1090
  517loPI   C3A 8265   5.531   3.079   9.317  0.0907  0.0529  0.2416
  517loPI   C4A 8266   5.516   3.079   8.901  0.1732  0.1369  0.0515
  517loPI   C5A 8267   5.729   3.111   8.497 -0.1432 -0.0832 -0.1006
  517loPI   C6A 8268   5.950   3.348   8.325 -0.2138  0.1644 -0.1660
  517loPI   C1B 8269   5.688   3.564   9.861  0.0949 -0.4224  0.0033
  517loPI   C2B 8270   5.735   3.501   9.457  0.4109  0.1316 -0.0019
  517loPI   C3B 8271   5.673   3.576   9.106 -0.2021  0.2732 -0.1015
  517loPI   C4B 8272   5.701   3.677   8.691 -0.0159 -0.0105 -0.3879
  518loPI    C1 8273   3.719   4.886  11.261 -0.2508  0.2172  0.0226
  518loPI    C2 8274   3.948   5.214  11.268 -0.1003  0.1136 -0.0155
  518loPI    C3 8275   3.703   5.134  11.574  0.0996  0.0948  0.1416
  518loPI   PO4 8276   3.610   4.882  11.072  0.1127 -0.0981 -0.1065
  518loPI   GL1 8277   3.529   4.806  10.682  0.0800 -0.1626  0.0586
  518loPI   GL2 8278   3.312   4.623  10.740 -0.0918 -0.1562  0.1328
  518loPI   C1A 8279   3.757   4.773  10.295  0.0401 -0.0807  0.2726
  518loPI   C2A 8280   3.702   4.746   9.780  0.3511 -0.0161 -0.0133
  518loPI   C3A 8281   3.719   4.635   9.357 -0.2805  0.0179  0.0903
  518loPI   C4A 8282   3.808   4.665   8.948 -0.0234 -0.2463  0.1074
  518loPI   C5A 8283   3.447   4.708   8.602 -0.0403 -0.1265 -0.2381
  518loPI   C6A 8284   3.019   4.767   8.504  0.2422  0.2431  0.0154
  518loPI   C1B 8285   3.166   4.665  10.374  0.0973  0.3477 -0.0175
  518loPI   C2B 8286   3.181   4.647   9.940  0.1499 -0.1680  0.0964
  518loPI   C3B 8287   3.210   4.607   9.511 -0.1855 -0.0432 -0.0866
  518loPI   C4B 8288   3.212   4.613   9.027  0.1877  0.1968  0.1087
  519loPI    C1 8289   3.348   7.632  10.957  0.0595 -0.1822 -0.1736
  519loPI    C2 8290   3.500   7.313  10.769 -0.1673 -0.3093 -0.1455
  519loPI    C3 8291   3.284   7.265  11.103  0.0778 -0.0991  0.0478
  519loPI   PO4 8292   3.501   7.818  10.805 -0.0499  0.2964  0.0252
  519loPI   GL1 8293   3.529   7.762  10.310  0.0654  0.0489 -0.0999
  519loPI   GL2 8294   3.264   7.620  10.430 -0.1048 -0.2053 -0.1936
  519loPI   C1A 8295   3.391   7.777   9.890 -0.1096  0.2214  0.0241
  519loPI   C2A 8296   3.275   7.831   9.415  0.1192  0.0155 -0.1679
  519loPI   C3A 8297   3.126   7.749   8.988  0.2766 -0.0287 -0.2848
  519loPI   C4A 8298   3.165   7.719   8.463  0.0498  0.1329  0.0084
  519loPI   C5A 8299   2.877   7.919   8.079  0.0528 -0.1696  0.2621
  519loPI   C6A 8300   2.666   8.023   7.733 -0.2398 -0.0822  0.0965
  519loPI   C1B 8301   3.135   7.466  10.126  0.2426  0.0802 -0.0388
  519loPI   C2B 8302   3.060   7.417   9.646  0.1165 -0.0674  0.1331
  519loPI   C3B 8303   3.003   7.335   9.222  0.0756 -0.1894 -0.2499
  519loPI   C4B 8304   2.865   7.343   8.758  0.2083 -0.0324 -0.0853
  520loPI    C1 8305   3.564   9.559  11.172 -0.0892  0.0672 -0.0860
  520loPI    C2 8306   3.530   9.941  11.285 -0.1098 -0.0580  0.3468
  520loPI    C3 8307   3.287   9.664  11.440 -0.0564 -0.2582  0.0793
  520loPI   PO4 8308   3.573   9.519  10.935 -0.1216 -0.1880  0.0496
  520loPI   GL1 8309   3.595   9.550  10.488 -0.2078 -0.0105  0.0511
  520loPI   GL2 8310   3.247   9.523  10.584 -0.2378 -0.1387  0.0339
  520loPI   C1A 8311   3.609   9.737  10.166  0.5141  0.1321 -0.2538
  520loPI   C2A 8312   3.587   9.746   9.669  0.2504 -0.2285 -0.0831
  520loPI   C3A 8313   3.473   9.689   9.223 -0.1223 -0.1313  0.0538
  520loPI   C4A 8314   3.447   9.734   8.819  0.1356  0.2386 -0.1390
  520loPI   C5A 8315   3.469   9.588   8.373  0.3503 -0.0785 -0.0696
  520loPI   C6A 8316   3.625   9.337   8.116 -0.2022  0.0717 -0.1729
  520loPI   C1B 8317   3.071   9.687  10.252 -0.0036 -0.1925 -0.3003
  520loPI   C2B 8318   3.126   9.698   9.851  0.2799  0.3520 -0.3743
  520loPI   C3B 8319   3.032   9.656   9.426  0.3554  0.0885  0.3372
  520loPI   C4B 8320   2.996   9.645   9.024  0.1718 -0.1516  0.0286
  521loPI    C1 8321  11.132  16.069  10.934  0.0582 -0.2018  0.1733
  521loPI    C2 8322  10.843  16.029  10.660  0.2114 -0.0344 -0.0159
  521loPI    C3 8323  10.847  15.793  10.982  0.0050 -0.2051 -0.1359
  521loPI   PO4 8324  11.216  16.317  10.872 -0.3392  0.1779  0.0633
  521loPI   GL1 8325  11.275  16.356  10.445  0.0881  0.0390 -0.1146
  521loPI   GL2 8326  11.337  16.019  10.447  0.1376 -0.1789  0.1636
  521loPI   C1A 8327  11.364  16.485  10.060 -0.1331  0.1028  0.0886
  521loPI   C2A 8328  11.424  16.487   9.652  0.0676 -0.0391 -0.1825
  521loPI   C3A 8329  11.430  16.351   9.207  0.2259  0.2041  0.2518
  521loPI   C4A 8330  11.390  16.452   8.778  0.3565 -0.2567  0.2680
  521loPI   C5A 8331  11.254  16.679   8.451  0.0156  0.3716  0.3270
  521loPI   C6A 8332  11.319  17.110   8.356 -0.1676 -0.4849 -0.1584
  521loPI   C1B 8333  11.103  16.041   9.965 -0.0437 -0.0311  0.0924
  521loPI   C2B 8334  11.198  15.954   9.564  0.0370  0.2089 -0.0768
  521loPI   C3B 8335  11.203  15.866   9.134 -0.1315 -0.3454 -0.3682
  521loPI   C4B 8336  11.216  15.989   8.708  0.3411  0.3596  0.2323
  522loPI    C1 8337   6.447   1.249  11.244  0.0942 -0.0392 -0.2667
  522loPI    C2 8338   6.059   1.292  11.157 -0.0270 -0.1904  0.1730
  522loPI    C3 8339   6.269   1.604  11.293 -0.0498 -0.1615  0.1420
  522loPI   PO4 8340   6.532   1.175  10.978 -0.1411  0.2728 -0.0438
  522loPI   GL1 8341   6.395   1.174  10.667 -0.4550  0.0098 -0.1750
  522loPI   GL2 8342   6.183   1.313  10.647  0.2115  0.2424 -0.0661
  522loPI   C1A 8343   6.614   1.035  10.291 -0.2126  0.0454 -0.0483
  522loPI   C2A 8344   6.393   0.894   9.882 -0.1185  0.0645  0.0780
  522loPI   C3A 8345   6.410   0.928   9.466 -0.0835  0.2012  0.2432
  522loPI   C4A 8346   6.446   0.991   9.067  0.1069 -0.0181 -0.1034
  522loPI   C5A 8347   6.577   1.102   8.666 -0.1096 -0.3167 -0.0732
  522loPI   C6A 8348   6.679   1.380   8.374  0.2647  0.4661 -0.2659
  522loPI   C1B 8349   6.210   1.322  10.126 -0.2971  0.2417  0.2931
  522loPI   C2B 8350   6.214   1.440   9.743  0.2199  0.0347 -0.1749
  522loPI   C3B 8351   6.223   1.396   9.313 -0.0695  0.0987 -0.1610
  522loPI   C4B 8352   6.266   1.429   8.882 -0.0982  0.2007  0.0719
  523loPI    C1 8353   5.909   5.775  11.161 -0.2266 -0.0140  0.0882
  523loPI    C2 8354   6.106   5.436  11.239  0.0049  0.0647 -0.1390
  523loPI    C3 8355   5.999   5.678  11.539  0.0422 -0.0954  0.0053
  523loPI   PO4 8356   5.765   5.631  10.943 -0.3744  0.0619 -0.0088
  523loPI   GL1 8357   5.920   5.477  10.552 -0.0703  0.1542 -0.0737
  523loPI   GL2 8358   5.589   5.471  10.453 -0.1408  0.2534  0.1045
  523loPI   C1A 8359   6.093   5.463  10.219  0.1124 -0.2376  0.0032
  523loPI   C2A 8360   6.045   5.418   9.700 -0.0665  0.0973 -0.2386
  523loPI   C3A 8361   6.102   5.442   9.328  0.2097 -0.4368 -0.0120
  523loPI   C4A 8362   6.076   5.466   8.900  0.1132 -0.0095  0.0542
  523loPI   C5A 8363   5.915   5.427   8.458  0.0833  0.1030 -0.0549
  523loPI   C6A 8364   5.797   5.537   7.906 -0.3440  0.1603  0.3252
  523loPI   C1B 8365   5.649   5.328  10.041 -0.1152  0.0716 -0.0161
  523loPI   C2B 8366   5.596   5.320   9.531  0.2184 -0.1500  0.0550
  523loPI   C3B 8367   5.605   5.389   9.088 -0.2511 -0.0123 -0.0580
  523loPI   C4B 8368   5.460   5.324   8.714 -0.1264 -0.1499 -0.0671
  524loPI    C1 8369   1.959  10.749  11.295 -0.0528  0.2155  0.0095
  524loPI    C2 8370   1.826  10.580  11.632  0.1451 -0.3748 -0.1957
  524loPI    C3 8371   2.136  10.832  11.645  0.0218 -0.2325  0.0844
  524loPI   PO4 8372   1.704  10.697  11.126  0.1136 -0.2479  0.0122
  524loPI   GL1 8373   1.492  10.775  10.708  0.2116 -0.3656 -0.2042
  524loPI   GL2 8374   1.669  10.978  10.635 -0.1498  0.1287 -0.2354
  524loPI   C1A 8375   1.402  10.587  10.380  0.1364  0.0364  0.2670
  524loPI   C2A 8376   1.299  10.554  10.057 -0.1220  0.0578 -0.1986
  524loPI   C3A 8377   1.401  10.410   9.531  0.0444 -0.1314 -0.0603
  524loPI   C4A 8378   1.356  10.450   9.035  0.1982  0.0426  0.1278
  524loPI   C5A 8379   1.049  10.464   8.722  0.2804 -0.1356  0.1525
  524loPI   C6A 8380   1.121  10.406   8.372  0.0632  0.3804 -0.1482
  524loPI   C1B 8381   1.535  11.012  10.243  0.0137  0.3380 -0.2473
  524loPI   C2B 8382   1.515  10.954   9.756 -0.1814  0.0731 -0.1162
  524loPI   C3B 8383   1.572  10.836   9.330 -0.2097 -0.1344 -0.1057
  524loPI   C4B 8384   1.575  11.059   8.974  0.2417 -0.0033  0.1595
  525loPI    C1 8385  11.039   2.832  11.172  0.1703 -0.1267 -0.3766
  525loPI    C2 8386  11.006   2.457  11.305 -0.0930 -0.0094 -0.0983
  525loPI    C3 8387  11.325   2.677  11.405 -0.1076 -0.0457  0.0306
  525loPI   PO4 8388  11.145   2.935  10.867 -0.0339  0.1018 -0.1962
  525loPI   GL1 8389  11.119   2.729  10.503  0.1517  0.0222  0.0591
  525loPI   GL2 8390  10.824   2.766  10.320  0.1160 -0.4713  0.1445
  525loPI   C1A 8391  11.390   2.726  10.098 -0.0683  0.0559  0.1033
  525loPI   C2A 8392  11.263   2.710   9.642  0.0165 -0.0071  0.0319
  525loPI   C3A 8393  11.406   2.708   9.206  0.3111 -0.2341  0.0727
  525loPI   C4A 8394  11.286   2.694   8.743  0.1413 -0.0066  0.0288
  525loPI   C5A 8395  11.592   2.809   8.409  0.0718  0.2185  0.1086
  525loPI   C6A 8396  11.918   2.996   8.472 -0.0631 -0.3027  0.1565
  525loPI   C1B 8397  10.829   2.730   9.887  0.0613  0.2163 -0.1534
  525loPI   C2B 8398  10.767   2.760   9.444 -0.1483  0.0695  0.2866
  525loPI   C3B 8399  10.802   2.679   9.038  0.1963  0.0745  0.0028
  525loPI   C4B 8400  10.745   2.639   8.630 -0.2520  0.0201 -0.1310
  526loPI    C1 8401   8.915   3.585  11.408 -0.0403  0.1163 -0.0879
  526loPI    C2 8402   8.777   3.478  11.767  0.0460  0.1445 -0.0461
  526loPI    C3 8403   8.781   3.863  11.662  0.1724  0.1525 -0.0132
  526loPI   PO4 8404   8.767   3.447  11.162  0.0013  0.1091 -0.1160
  526loPI   GL1 8405   8.788   3.492  10.717  0.0524 -0.0982 -0.2485
  526loPI   GL2 8406   8.626   3.172  10.586 -0.0723  0.2932 -0.0768
  526loPI   C1A 8407   8.817   3.855  10.384  0.0036  0.2566  0.0018
  526loPI   C2A 8408   8.845   3.878   9.950  0.3892 -0.0148  0.1284
  526loPI   C3A 8409   8.850   3.872   9.505 -0.2306 -0.0187  0.3652
  526loPI   C4A 8410   8.829   3.972   9.040 -0.1296 -0.1408 -0.1844
  526loPI   C5A 8411   8.911   3.711   8.633  0.1276 -0.0425 -0.0845
  526loPI   C6A 8412   8.580   3.455   8.266  0.1364  0.2776  0.1134
  526loPI   C1B 8413   8.647   3.418  10.218  0.0264 -0.0935  0.0084
  526loPI   C2B 8414   8.529   3.465   9.865 -0.0305 -0.0818  0.1625
  526loPI   C3B 8415   8.583   3.425   9.453  0.2603 -0.3386  0.1259
  526loPI   C4B 8416   8.666   3.417   8.996  0.1075 -0.1454  0.1480
  527loPI    C1 8417  16.413   0.204  11.143  0.0394 -0.0108 -0.1600
  527loPI    C2 8418  16.108   0.463  11.141 -0.0886 -0.1553  0.1258
  527loPI    C3 8419  16.410   0.512  11.399  0.1143 -0.0353 -0.1293
  527loPI   PO4 8420  16.469   0.305  10.869 -0.1570 -0.0004 -0.0758
  527loPI   GL1 8421  16.251   0.253  10.601 -0.2529 -0.0073  0.2042
  527loPI   GL2 8422  16.087   0.058  10.483 -0.1355  0.1492 -0.1226
  527loPI   C1A 8423  16.262   0.513  10.292  0.0918  0.1136  0.0451
  527loPI   C2A 8424  16.280   0.504   9.917 -0.0137  0.1301 -0.0221
  527loPI   C3A 8425  16.251   0.536   9.475 -0.2201 -0.4330  0.1487
  527loPI   C4A 8426  16.267   0.583   9.042  0.2010  0.0209 -0.1495
  527loPI   C5A 8427  16.276   0.631   8.659  0.2884 -0.1583 -0.0180
  527loPI   C6A 8428  16.533   0.708   8.385  0.2555  0.1264 -0.0496
  527loPI   C1B 8429  16.096   0.075  10.076  0.1860 -0.0751 -0.0213
  527loPI   C2B 8430  16.041   0.066   9.639  0.1823 -0.0615  0.0861
  527loPI   C3B 8431  15.998   0.155   9.261 -0.0032  0.1778  0.1775
  527loPI   C4B 8432  15.994   0.257   8.782  0.0127  0.0529  0.0221
  528loPI    C1 8433   9.334   2.755  11.120 -0.0820  0.1453 -0.0583
  528loPI    C2 8434   9.516   2.984  11.392  0.2360 -0.0685 -0.0854
  528loPI    C3 8435   9.262   2.697  11.509  0.2298 -0.0385 -0.0249
  528loPI   PO4 8436   9.507   2.788  10.944 -0.0057 -0.1292  0.3174
  528loPI   GL1 8437   9.607   2.933  10.567 -0.0883 -0.2554 -0.1013
  528loPI   GL2 8438   9.605   2.637  10.420 -0.3293 -0.1902  0.0398
  528loPI   C1A 8439   9.522   3.007  10.132 -0.0150 -0.0247  0.5068
  528loPI   C2A 8440   9.404   3.056   9.724 -0.1146  0.1109 -0.0391
  528loPI   C3A 8441   9.447   3.021   9.230 -0.2346  0.4724 -0.2375
  528loPI   C4A 8442   9.457   3.048   8.695  0.2431 -0.0761 -0.1132
  528loPI   C5A 8443   9.286   3.346   8.404 -0.1642 -0.1307  0.1081
  528loPI   C6A 8444   9.054   3.444   8.045 -0.1956 -0.0413 -0.0054
  528loPI   C1B 8445   9.848   2.622  10.019 -0.0050  0.0924 -0.3067
  528loPI   C2B 8446   9.814   2.589   9.638 -0.3719  0.2973 -0.0895
  528loPI   C3B 8447   9.779   2.654   9.281 -0.0309 -0.1367 -0.1862
  528loPI   C4B 8448   9.640   2.635   8.881  0.0779  0.2740  0.0113
  529loPI    C1 8449   4.311   3.740  11.531  0.0455 -0.1681  0.0022
  529loPI    C2 8450   4.705   3.692  11.574  0.0182 -0.3421  0.0643
  529loPI    C3 8451   4.452   3.434  11.746 -0.1226 -0.2358  0.0180
  529loPI   PO4 8452   4.310   3.786  11.195  0.6046  0.0231  0.0106
  529loPI   GL1 8453   4.249   3.694  10.750 -0.4003  0.1138 -0.0492
  529loPI   GL2 8454   4.544   3.874  10.734 -0.0018  0.3363  0.4560
  529loPI   C1A 8455   4.112   3.504  10.341 -0.0261  0.2021 -0.0410
  529loPI   C2A 8456   4.061   3.377   9.832  0.0180 -0.0476  0.2733
  529loPI   C3A 8457   4.146   3.358   9.421 -0.1289 -0.0162 -0.1785
  529loPI   C4A 8458   4.177   3.412   9.026 -0.0909 -0.0559 -0.2031
  529loPI   C5A 8459   4.146   3.570   8.647  0.0826 -0.3165  0.1119
  529loPI   C6A 8460   4.322   3.283   8.334  0.0931 -0.0665 -0.4322
  529loPI   C1B 8461   4.417   3.872  10.313 -0.0979 -0.2143  0.4498
  529loPI   C2B 8462   4.383   3.832   9.906  0.0743 -0.0498 -0.1547
  529loPI   C3B 8463   4.281   3.934   9.557  0.1066  0.1827 -0.0017
  529loPI   C4B 8464   4.441   3.863   9.114  0.0645  0.4059  0.1275
  530loPI    C1 8465   9.398   3.513  11.405  0.0089 -0.1862 -0.1514
  530loPI    C2 8466   9.791   3.437  11.399 -0.0055 -0.2882  0.0956
  530loPI    C3 8467   9.578   3.363  11.729 -0.1496  0.1900  0.1168
  530loPI   PO4 8468   9.273   3.341  11.157 -0.0790  0.0036 -0.1309
  530loPI   GL1 8469   9.237   3.246  10.823 -0.1053 -0.0704 -0.3297
  530loPI   GL2 8470   9.312   3.460  10.653  0.0167 -0.2454  0.1594
  530loPI   C1A 8471   9.071   3.057  10.425  0.0755  0.1872  0.1398
  530loPI   C2A 8472   8.962   3.042   9.956 -0.2315  0.1796  0.0896
  530loPI   C3A 8473   8.893   3.019   9.622  0.1693  0.0804  0.1372
  530loPI   C4A 8474   8.948   2.980   9.143  0.0662  0.0444  0.2939
  530loPI   C5A 8475   8.826   3.145   8.623 -0.1099  0.2948  0.0955
  530loPI   C6A 8476   8.455   2.953   8.377  0.0352  0.3755  0.0655
  530loPI   C1B 8477   9.186   3.500  10.227 -0.1968 -0.0990 -0.1920
  530loPI   C2B 8478   9.057   3.495   9.774 -0.2878  0.0942 -0.3421
  530loPI   C3B 8479   9.145   3.385   9.358 -0.0840  0.2573 -0.1152
  530loPI   C4B 8480   9.173   3.373   8.915 -0.0087 -0.0614 -0.1065
  531loPI    C1 8481   6.847   9.292  11.013  0.1118 -0.0569 -0.0041
  531loPI    C2 8482   6.643   9.223  11.351  0.3975 -0.0842  0.1660
  531loPI    C3 8483   6.779   8.916  11.132 -0.2811 -0.0823 -0.2889
  531loPI   PO4 8484   6.718   9.598  10.970  0.0473  0.2825 -0.0025
  531loPI   GL1 8485   6.564   9.794  10.755 -0.1075  0.3281  0.1659
  531loPI   GL2 8486   6.719  10.080  10.553 -0.3175 -0.1108 -0.2378
  531loPI   C1A 8487   6.494   9.606  10.309 -0.2375  0.1276 -0.2953
  531loPI   C2A 8488   6.429   9.601   9.974  0.1208  0.2981 -0.1368
  531loPI   C3A 8489   6.500   9.569   9.606 -0.3498  0.0597 -0.3285
  531loPI   C4A 8490   6.445   9.618   9.161  0.0762 -0.0593 -0.0083
  531loPI   C5A 8491   6.393   9.577   8.702  0.0038 -0.0681 -0.0152
  531loPI   C6A 8492   6.451   9.386   8.289 -0.1367 -0.3428 -0.0158
  531loPI   C1B 8493   6.731  10.063  10.147 -0.1030 -0.2162 -0.0165
  531loPI   C2B 8494   6.738  10.006   9.704  0.3681 -0.1926  0.0454
  531loPI   C3B 8495   6.611  10.034   9.338 -0.0618 -0.0661  0.4212
  531loPI   C4B 8496   6.584  10.019   8.887  0.2247  0.0381  0.1757
  532loPI    C1 8497  13.274   8.817  11.035 -0.1309  0.1032 -0.0511
  532loPI    C2 8498  12.893   8.703  11.078 -0.0954 -0.0782 -0.2033
  532loPI    C3 8499  13.169   8.581  11.340 -0.0964 -0.1614 -0.2408
  532loPI   PO4 8500  13.257   8.788  10.729  0.0911  0.0239  0.1862
  532loPI   GL1 8501  13.044   8.737  10.371  0.1423  0.0250  0.0494
  532loPI   GL2 8502  13.037   9.034  10.271 -0.2158  0.0238 -0.1193
  532loPI   C1A 8503  13.286   8.487   9.958  0.1171  0.1527  0.1483
  532loPI   C2A 8504  13.253   8.508   9.596 -0.1098  0.3881  0.2925
  532loPI   C3A 8505  13.170   8.517   9.204  0.1530 -0.0928 -0.3466
  532loPI   C4A 8506  13.270   8.550   8.781 -0.0612  0.2753  0.2150
  532loPI   C5A 8507  13.169   8.650   8.369 -0.0933 -0.0307 -0.2402
  532loPI   C6A 8508  13.141   8.814   8.077 -0.3654  0.0453  0.0307
  532loPI   C1B 8509  12.983   8.869   9.873 -0.4773 -0.1605  0.0480
  532loPI   C2B 8510  12.954   8.947   9.378  0.0822 -0.6135  0.1318
  532loPI   C3B 8511  13.004   8.957   9.014  0.1581 -0.2053  0.2327
  532loPI   C4B 8512  12.853   9.007   8.562  0.0254 -0.3645 -0.3075
  533loPI    C1 8513   1.826  16.173  11.270  0.2380 -0.0506  0.2347
  533loPI    C2 8514   1.693  16.337  11.609  0.0801 -0.1869  0.2400
  533loPI    C3 8515   2.025  16.114  11.613  0.1151 -0.1344  0.2923
  533loPI   PO4 8516   1.779  16.348  11.115  0.2611  0.2202  0.2854
  533loPI   GL1 8517   1.738  16.305  10.637  0.2948 -0.0491  0.0280
  533loPI   GL2 8518   1.743  16.499  10.427  0.2173 -0.0952 -0.0543
  533loPI   C1A 8519   1.834  16.015  10.236 -0.1547  0.2448 -0.0106
  533loPI   C2A 8520   1.816  15.958   9.802 -0.0677  0.1768  0.2321
  533loPI   C3A 8521   1.822  15.929   9.387 -0.5634  0.1388  0.1747
  533loPI   C4A 8522   1.904  16.043   8.942 -0.1138 -0.0625  0.1077
  533loPI   C5A 8523   1.934  15.934   8.533  0.0391 -0.0171  0.1582
  533loPI   C6A 8524   2.149  16.050   8.170 -0.0510 -0.0198 -0.3275
  533loPI   C1B 8525   1.535  16.394  10.035 -0.0474 -0.3456 -0.4492
  533loPI   C2B 8526   1.528  16.375   9.631 -0.1511  0.1311  0.3032
  533loPI   C3B 8527   1.625  16.397   9.215  0.1940  0.0878 -0.0971
  533loPI   C4B 8528   1.602  16.508   8.842 -0.2015 -0.0586  0.1034
  534loPI    C1 8529  14.723  12.371  11.102  0.0700 -0.0723  0.2059
  534loPI    C2 8530  14.912  12.484  10.767  0.0391 -0.3963  0.0752
  534loPI    C3 8531  15.103  12.495  11.118  0.0421  0.0339  0.0648
  534loPI   PO4 8532  14.524  12.441  11.067 -0.0633 -0.3636  0.2441
  534loPI   GL1 8533  14.376  12.655  10.644 -0.2744  0.0171  0.3186
  534loPI   GL2 8534  14.614  12.735  10.419 -0.0309 -0.1343  0.0203
  534loPI   C1A 8535  14.136  12.633  10.232 -0.0712 -0.2018  0.3582
  534loPI   C2A 8536  14.102  12.587   9.832  0.1022  0.3238  0.1346
  534loPI   C3A 8537  14.149  12.671   9.420  0.1562 -0.0168  0.1525
  534loPI   C4A 8538  14.118  12.673   8.942 -0.0288  0.0239 -0.4997
  534loPI   C5A 8539  14.043  12.750   8.499  0.3281  0.0959 -0.1138
  534loPI   C6A 8540  14.244  13.050   8.232  0.1351  0.0215 -0.2846
  534loPI   C1B 8541  14.673  12.679   9.912  0.0576 -0.1212 -0.2557
  534loPI   C2B 8542  14.645  12.657   9.477  0.0329 -0.2670 -0.1545
  534loPI   C3B 8543  14.639  12.661   8.971 -0.3395  0.3646  0.0485
  534loPI   C4B 8544  14.551  12.587   8.464  0.0396  0.1244 -0.1452
  535loPI    C1 8545   0.754  10.668  11.481  0.5647 -0.0872 -0.0425
  535loPI    C2 8546   0.997  10.494  11.747  0.0840 -0.1621  0.3633
  535loPI    C3 8547   0.611  10.547  11.835 -0.0324  0.0431 -0.2289
  535loPI   PO4 8548   0.740  10.558  11.256  0.2713  0.1260  0.1922
  535loPI   GL1 8549   0.493  10.549  10.818 -0.0444 -0.0312 -0.0164
  535loPI   GL2 8550   0.881  10.610  10.773  0.1643 -0.0367  0.0729
  535loPI   C1A 8551   0.546  10.786  10.381 -0.2437 -0.1352 -0.1347
  535loPI   C2A 8552   0.449  10.822  10.024  0.2805 -0.1050 -0.1882
  535loPI   C3A 8553   0.480  10.848   9.628  0.5403  0.3080 -0.0762
  535loPI   C4A 8554   0.507  10.917   9.147  0.0405  0.0353 -0.3156
  535loPI   C5A 8555   0.625  11.148   8.767  0.0461 -0.2640 -0.2273
  535loPI   C6A 8556   0.781  11.434   8.379  0.0287 -0.2356 -0.2829
  535loPI   C1B 8557   0.879  10.417  10.398  0.0296 -0.1144 -0.3061
  535loPI   C2B 8558   0.842  10.450   9.985  0.2563 -0.0052  0.0699
  535loPI   C3B 8559   0.913  10.300   9.676 -0.0159 -0.0007 -0.2011
  535loPI   C4B 8560   0.835  10.466   9.241  0.0187 -0.2065  0.1192
  536loPI    C1 8561   6.741  10.723  11.423 -0.2238  0.1601  0.0657
  536loPI    C2 8562   6.991  10.535  11.673 -0.0845  0.3639  0.0823
  536loPI    C3 8563   6.674  10.732  11.817 -0.3510 -0.0296  0.0495
  536loPI   PO4 8564   6.737  10.649  11.214  0.0964  0.2021  0.0007
  536loPI   GL1 8565   6.806  10.616  10.812 -0.0594  0.0773  0.2863
  536loPI   GL2 8566   7.106  10.425  10.624  0.1688 -0.2019  0.2163
  536loPI   C1A 8567   6.469  10.529  10.463 -0.1226 -0.0478  0.0502
  536loPI   C2A 8568   6.436  10.503   9.999  0.1551  0.1591 -0.1373
  536loPI   C3A 8569   6.430  10.470   9.679  0.2289 -0.1663  0.0180
  536loPI   C4A 8570   6.350  10.445   9.190  0.0245  0.2725  0.0190
  536loPI   C5A 8571   6.306  10.453   8.716 -0.2506 -0.4140 -0.1155
  536loPI   C6A 8572   6.161  10.477   8.292 -0.2597 -0.2144 -0.1969
  536loPI   C1B 8573   6.978  10.525  10.135 -0.2948 -0.1557  0.0920
  536loPI   C2B 8574   6.933  10.513   9.689 -0.0872 -0.1217  0.1082
  536loPI   C3B 8575   6.830  10.525   9.299 -0.1643 -0.1946 -0.0526
  536loPI   C4B 8576   6.757  10.526   8.914 -0.0714  0.1849  0.0298
  537loPI    C1 8577   2.478   6.759  11.224 -0.1930  0.1796 -0.1150
  537loPI    C2 8578   2.207   6.500  11.365 -0.0745 -0.0896 -0.3708
  537loPI    C3 8579   2.597   6.409  11.377  0.0045  0.2636 -0.0735
  537loPI   PO4 8580   2.467   6.802  10.998  0.4380  0.0500 -0.0054
  537loPI   GL1 8581   2.383   6.689  10.596 -0.2589 -0.3232 -0.0101
  537loPI   GL2 8582   2.677   6.679  10.498 -0.1344  0.1769 -0.3604
  537loPI   C1A 8583   2.373   6.983  10.206  0.0280 -0.0734 -0.0804
  537loPI   C2A 8584   2.293   6.909   9.771  0.1408 -0.0665  0.1050
  537loPI   C3A 8585   2.228   6.856   9.272  0.0088 -0.1416  0.1061
  537loPI   C4A 8586   2.156   6.877   8.835  0.1062  0.1144  0.0925
  537loPI   C5A 8587   2.158   6.946   8.446  0.3770 -0.3147 -0.0197
  537loPI   C6A 8588   2.198   7.433   8.130  0.1346 -0.0298  0.1364
  537loPI   C1B 8589   2.632   6.611  10.018 -0.2573 -0.3831  0.0655
  537loPI   C2B 8590   2.583   6.507   9.646 -0.0463 -0.0963 -0.1463
  537loPI   C3B 8591   2.491   6.457   9.137 -0.2973 -0.3913  0.1756
  537loPI   C4B 8592   2.716   6.362   8.738 -0.1200 -0.4108  0.0437
  538loPI    C1 8593   6.134  12.368  11.067  0.1632  0.1751 -0.0812
  538loPI    C2 8594   6.523  12.276  11.063  0.1368  0.0656 -0.2074
  538loPI    C3 8595   6.385  12.553  11.317  0.2002 -0.3229  0.2654
  538loPI   PO4 8596   6.040  12.416  10.854 -0.2916  0.0859 -0.0299
  538loPI   GL1 8597   6.158  12.235  10.436  0.2921  0.0357 -0.1452
  538loPI   GL2 8598   6.489  12.374  10.561 -0.0955 -0.1337  0.0360
  538loPI   C1A 8599   6.111  12.239   9.974  0.1430  0.1012 -0.0282
  538loPI   C2A 8600   6.196  12.238   9.539 -0.3488 -0.2001  0.2171
  538loPI   C3A 8601   6.097  12.238   9.071 -0.1236 -0.0778 -0.2385
  538loPI   C4A 8602   6.035  12.190   8.645 -0.1544  0.1430  0.1473
  538loPI   C5A 8603   5.972  12.026   8.249 -0.2213  0.0084 -0.1731
  538loPI   C6A 8604   6.051  11.907   7.869 -0.1664 -0.2035  0.0457
  538loPI   C1B 8605   6.562  12.351  10.161  0.1184  0.2533  0.0746
  538loPI   C2B 8606   6.663  12.323   9.663 -0.0886 -0.0400  0.2524
  538loPI   C3B 8607   6.609  12.263   9.195  0.0512 -0.2346 -0.1910
  538loPI   C4B 8608   6.668  12.270   8.746  0.1018 -0.0914 -0.0822
  539loPI    C1 8609   2.291  14.476  11.225 -0.2674 -0.0698 -0.0684
  539loPI    C2 8610   2.385  14.124  11.391 -0.3010 -0.1109 -0.1359
  539loPI    C3 8611   2.246  14.422  11.619 -0.0441 -0.0610 -0.0402
  539loPI   PO4 8612   2.370  14.474  11.002  0.1301 -0.0371  0.1894
  539loPI   GL1 8613   2.096  14.651  10.756  0.1260 -0.0285 -0.1084
  539loPI   GL2 8614   1.779  14.701  10.564  0.3207 -0.1854  0.0274
  539loPI   C1A 8615   2.210  14.657  10.342 -0.2782 -0.1854  0.2754
  539loPI   C2A 8616   2.213  14.711   9.977 -0.2401 -0.0185  0.2275
  539loPI   C3A 8617   2.167  14.704   9.553  0.3316  0.0025  0.2046
  539loPI   C4A 8618   2.229  14.556   9.200  0.0178  0.2058  0.0750
  539loPI   C5A 8619   2.409  14.598   8.834  0.0277  0.1317 -0.4071
  539loPI   C6A 8620   2.507  14.756   8.473  0.2263  0.0113 -0.1782
  539loPI   C1B 8621   1.754  14.654  10.092 -0.1877 -0.2611 -0.1317
  539loPI   C2B 8622   1.717  14.589   9.746  0.0476  0.2420 -0.0603
  539loPI   C3B 8623   1.621  14.631   9.292 -0.0691 -0.1790 -0.2378
  539loPI   C4B 8624   1.816  14.607   8.889 -0.0732 -0.0625 -0.0831
  540loPI    C1 8625   8.116  13.921  11.040  0.0490 -0.0932 -0.2615
  540loPI    C2 8626   8.168  14.138  11.372  0.4456  0.0490 -0.4113
  540loPI    C3 8627   8.137  13.740  11.397 -0.1546  0.1017 -0.1479
  540loPI   PO4 8628   8.296  13.971  10.878  0.1122  0.0524  0.1430
  540loPI   GL1 8629   8.234  14.122  10.451  0.0490  0.2260  0.1421
  540loPI   GL2 8630   8.520  14.265  10.431  0.0473 -0.2086  0.0029
  540loPI   C1A 8631   8.090  14.188  10.038  0.1158 -0.1875 -0.2955
  540loPI   C2A 8632   7.974  14.159   9.628  0.1705 -0.0332 -0.1850
  540loPI   C3A 8633   7.919  14.160   9.213  0.2227  0.1107  0.2338
  540loPI   C4A 8634   7.923  14.166   8.763 -0.5617  0.1602 -0.2113
  540loPI   C5A 8635   8.012  14.431   8.468  0.1015 -0.2263 -0.4170
  540loPI   C6A 8636   8.024  14.683   8.117 -0.1129 -0.3206  0.2874
  540loPI   C1B 8637   8.598  14.238  10.046  0.1235 -0.0082 -0.1026
  540loPI   C2B 8638   8.498  14.271   9.561  0.0045 -0.1245  0.1119
  540loPI   C3B 8639   8.465  14.243   9.068 -0.2896  0.1025 -0.0853
  540loPI   C4B 8640   8.457  14.196   8.594  0.1235  0.2453 -0.2044
  541loPI    C1 8641  15.523   0.260  10.921  0.0673  0.2706  0.0010
  541loPI    C2 8642  15.323   0.015  11.166 -0.0155  0.0625 -0.2692
  541loPI    C3 8643  15.634   0.225  11.303  0.1024 -0.2485 -0.0487
  541loPI   PO4 8644  15.596   0.154  10.679  0.0772  0.0719 -0.3235
  541loPI   GL1 8645  15.689   0.300  10.323 -0.1168  0.0536 -0.1327
  541loPI   GL2 8646  15.586  -0.040  10.231  0.0233 -0.3170 -0.1010
  541loPI   C1A 8647  15.684   0.440   9.931  0.0646 -0.2766  0.1618
  541loPI   C2A 8648  15.699   0.507   9.483 -0.2906  0.0802  0.1827
  541loPI   C3A 8649  15.736   0.583   9.083 -0.1225  0.1515 -0.1758
  541loPI   C4A 8650  15.718   0.649   8.693 -0.1522  0.0044  0.4522
  541loPI   C5A 8651  15.848   0.526   8.294  0.0927 -0.4374  0.0060
  541loPI   C6A 8652  16.216   0.256   8.316  0.2965  0.1066  0.0567
  541loPI   C1B 8653  15.485  -0.079   9.837  0.1180 -0.0280  0.3732
  541loPI   C2B 8654  15.461  -0.086   9.416  0.0685 -0.3519  0.3401
  541loPI   C3B 8655  15.454   0.108   9.017  0.1405 -0.1118  0.2057
  541loPI   C4B 8656  15.476   0.251   8.596  0.0275  0.0234 -0.0510
  542loPI    C1 8657   9.635  17.662  11.006  0.1300 -0.0334 -0.1484
  542loPI    C2 8658   9.817  17.824  11.323  0.3032 -0.0770 -0.2247
  542loPI    C3 8659   9.807  17.426  11.279 -0.1779 -0.0955 -0.0039
  542loPI   PO4 8660   9.652  17.836  10.795  0.0551 -0.1765  0.0875
  542loPI   GL1 8661   9.790  17.687  10.473 -0.2580  0.0390  0.0051
  542loPI   GL2 8662  10.001  17.829  10.440  0.1702  0.1799 -0.1812
  542loPI   C1A 8663   9.471  17.675  10.197  0.2715 -0.2602 -0.0912
  542loPI   C2A 8664   9.279  17.617   9.797 -0.0832  0.2827 -0.0676
  542loPI   C3A 8665   9.460  17.672   9.324  0.1497 -0.2309 -0.2336
  542loPI   C4A 8666   9.528  17.558   9.001  0.0501  0.0557  0.3933
  542loPI   C5A 8667   9.491  17.616   8.558  0.2717  0.0932  0.0349
  542loPI   C6A 8668   9.699  17.522   8.243 -0.1725  0.1845  0.1787
  542loPI   C1B 8669  10.038  17.731   9.992 -0.1938  0.0824  0.2166
  542loPI   C2B 8670  10.108  17.751   9.530  0.0145  0.0531  0.1238
  542loPI   C3B 8671  10.014  17.710   9.169  0.1293 -0.0602 -0.0296
  542loPI   C4B 8672   9.996  17.580   8.743 -0.0126  0.1036 -0.0962
  543loPI    C1 8673  12.045  15.609  11.288 -0.2231 -0.3838 -0.1730
  543loPI    C2 8674  11.702  15.770  11.418  0.0579  0.0545  0.0494
  543loPI    C3 8675  11.889  15.492  11.638  0.0606  0.1233  0.1344
  543loPI   PO4 8676  11.978  15.534  10.888 -0.1141 -0.0794 -0.0819
  543loPI   GL1 8677  11.893  15.333  10.571 -0.1287 -0.1541 -0.0390
  543loPI   GL2 8678  11.933  15.055  10.710  0.0434  0.1915 -0.0876
  543loPI   C1A 8679  11.816  15.174  10.201 -0.1893 -0.1506  0.0162
  543loPI   C2A 8680  11.815  15.159   9.766  0.0494 -0.1881  0.2176
  543loPI   C3A 8681  11.772  15.060   9.377 -0.4028 -0.2491  0.0102
  543loPI   C4A 8682  11.901  15.008   8.959 -0.0976  0.1754  0.0027
  543loPI   C5A 8683  11.798  14.889   8.500 -0.1108  0.0107  0.0612
  543loPI   C6A 8684  12.055  15.067   8.072 -0.1018  0.0026  0.1720
  543loPI   C1B 8685  12.114  14.837  10.385  0.0341  0.0565  0.1112
  543loPI   C2B 8686  12.120  14.770   9.964 -0.0129  0.1301  0.2059
  543loPI   C3B 8687  12.099  14.625   9.598 -0.4993 -0.1011 -0.2248
  543loPI   C4B 8688  12.151  14.604   9.125 -0.0564  0.0146 -0.1682
  544loPI    C1 8689   8.852   7.488  11.167  0.0789 -0.1817  0.0608
  544loPI    C2 8690   8.923   7.849  11.009 -0.0676 -0.2133 -0.0802
  544loPI    C3 8691   9.164   7.704  11.293  0.0904 -0.0764 -0.1426
  544loPI   PO4 8692   8.829   7.354  10.991 -0.1124  0.0938  0.0350
  544loPI   GL1 8693   8.770   7.427  10.614 -0.2805 -0.0908  0.0511
  544loPI   GL2 8694   8.461   7.504  10.403 -0.1059 -0.0416  0.0543
  544loPI   C1A 8695   8.815   7.110  10.262 -0.0656 -0.0455  0.0988
  544loPI   C2A 8696   8.877   7.001   9.839  0.2245  0.1295  0.3203
  544loPI   C3A 8697   8.809   7.094   9.472 -0.1634 -0.0019  0.2656
  544loPI   C4A 8698   8.713   7.105   9.009 -0.2341  0.0181  0.0448
  544loPI   C5A 8699   8.766   7.108   8.543  0.0731 -0.0511 -0.0768
  544loPI   C6A 8700   8.652   7.283   8.107 -0.0270 -0.3836  0.2869
  544loPI   C1B 8701   8.434   7.532  10.007  0.1145 -0.0049 -0.3211
  544loPI   C2B 8702   8.524   7.506   9.537 -0.1485 -0.2439 -0.1380
  544loPI   C3B 8703   8.489   7.547   9.201 -0.1041  0.0577  0.0173
  544loPI   C4B 8704   8.403   7.525   8.719  0.0140  0.0219  0.4475
  545loPI    C1 8705  16.250   0.948  11.325  0.2326 -0.2193 -0.0195
  545loPI    C2 8706  15.936   0.790  11.517 -0.1625  0.4197 -0.1081
  545loPI    C3 8707  16.267   0.887  11.720 -0.0947 -0.0605  0.0231
  545loPI   PO4 8708  16.131   1.000  11.116 -0.3120 -0.1260 -0.1336
  545loPI   GL1 8709  16.257   1.016  10.669 -0.2171 -0.2829  0.2660
  545loPI   GL2 8710  16.130   0.712  10.700  0.5294  0.0540  0.0539
  545loPI   C1A 8711  16.379   0.978  10.205 -0.1214  0.0967  0.0157
  545loPI   C2A 8712  16.439   1.030   9.746  0.3176  0.3104  0.2048
  545loPI   C3A 8713  16.447   0.968   9.306 -0.1993  0.2442 -0.3463
  545loPI   C4A 8714  16.389   1.171   8.930  0.0562  0.1962 -0.3384
  545loPI   C5A 8715  16.574   1.234   8.470  0.0116 -0.3517  0.2062
  545loPI   C6A 8716  16.983   0.984   8.303 -0.0423  0.1189  0.1428
  545loPI   C1B 8717  15.861   0.791  10.448  0.1294  0.2575  0.1629
  545loPI   C2B 8718  15.921   0.945   9.989  0.1988  0.2062 -0.0436
  545loPI   C3B 8719  15.876   0.983   9.563  0.1139  0.1052  0.2757
  545loPI   C4B 8720  15.963   1.041   9.187 -0.1794 -0.1184  0.2063
  546loPI    C1 8721   3.112   2.894  11.434  0.1920  0.0573 -0.2127
  546loPI    C2 8722   3.469   2.742  11.535  0.1512  0.1675  0.1107
  546loPI    C3 8723   3.161   2.713  11.788 -0.0843  0.0337 -0.1848
  546loPI   PO4 8724   2.960   2.817  11.208 -0.0892  0.0248  0.1236
  546loPI   GL1 8725   2.820   2.689  10.804  0.1081 -0.0204 -0.2061
  546loPI   GL2 8726   2.928   2.437  10.917  0.0671 -0.1566 -0.0690
  546loPI   C1A 8727   2.872   2.853  10.305  0.0567  0.2755  0.1927
  546loPI   C2A 8728   2.853   2.834   9.859  0.0488  0.0313  0.1048
  546loPI   C3A 8729   2.933   2.802   9.467 -0.0844  0.4502  0.1028
  546loPI   C4A 8730   2.897   2.842   9.060 -0.0235 -0.1802 -0.1403
  546loPI   C5A 8731   2.954   2.798   8.595 -0.0851  0.0835 -0.0099
  546loPI   C6A 8732   3.153   2.770   8.217  0.2612 -0.0690 -0.0792
  546loPI   C1B 8733   3.128   2.386  10.528  0.1854 -0.0524 -0.0060
  546loPI   C2B 8734   3.232   2.421  10.065  0.0168 -0.1461 -0.0994
  546loPI   C3B 8735   3.170   2.439   9.677 -0.3455 -0.0000  0.2491
  546loPI   C4B 8736   3.188   2.383   9.204  0.3652 -0.0271 -0.1599
  547loPI    C1 8737  17.371  15.930  11.463 -0.1563 -0.1617 -0.2687
  547loPI    C2 8738  17.251  15.562  11.561 -0.0435 -0.1523 -0.0910
  547loPI    C3 8739  16.990  15.864  11.564 -0.1588 -0.2472 -0.3330
  547loPI   PO4 8740  17.585  15.864  11.309 -0.1039 -0.1321  0.0072
  547loPI   GL1 8741  17.663  15.857  10.889 -0.0630 -0.0499 -0.1637
  547loPI   GL2 8742  17.640  16.141  10.693 -0.1743  0.0312 -0.0231
  547loPI   C1A 8743  17.515  15.744  10.457  0.0315  0.1432 -0.1865
  547loPI   C2A 8744  17.505  15.726  10.043  0.1615  0.3328 -0.0379
  547loPI   C3A 8745  17.506  15.730   9.648  0.0424 -0.2102 -0.0956
  547loPI   C4A 8746  17.601  15.828   9.202 -0.1600 -0.0879  0.3324
  547loPI   C5A 8747  17.621  15.689   8.752  0.0776 -0.1121  0.0768
  547loPI   C6A 8748  17.241  15.687   8.418  0.0422 -0.1797 -0.0676
  547loPI   C1B 8749  17.733  16.199  10.253 -0.0627  0.0280  0.2161
  547loPI   C2B 8750  17.672  16.194   9.862  0.2354 -0.1536 -0.0375
  547loPI   C3B 8751  17.766  16.255   9.499 -0.0946  0.4577 -0.0744
  547loPI   C4B 8752  17.823  16.219   8.994  0.5761  0.2223  0.1089
  548loPI    C1 8753   2.200  15.602  11.280 -0.3123  0.2978 -0.0096
  548loPI    C2 8754   2.426  15.853  11.494 -0.0283  0.1714 -0.1564
  548loPI    C3 8755   2.170  15.608  11.679  0.2186  0.0582  0.0424
  548loPI   PO4 8756   2.078  15.771  11.086 -0.2398  0.2364  0.0933
  548loPI   GL1 8757   2.069  15.872  10.644  0.3883 -0.2179  0.0495
  548loPI   GL2 8758   2.339  15.940  10.564 -0.0183  0.3502 -0.2130
  548loPI   C1A 8759   2.098  15.588  10.261 -0.4183 -0.0025  0.0883
  548loPI   C2A 8760   2.097  15.542   9.779 -0.1335 -0.2311 -0.0549
  548loPI   C3A 8761   2.215  15.547   9.400 -0.1333 -0.1918  0.0269
  548loPI   C4A 8762   2.174  15.644   8.951  0.0864 -0.0438  0.2487
  548loPI   C5A 8763   2.226  15.486   8.572  0.3236 -0.1831 -0.1816
  548loPI   C6A 8764   2.190  15.446   8.170  0.0618  0.1864 -0.0426
  548loPI   C1B 8765   2.361  15.997  10.081 -0.0154 -0.0406 -0.0295
  548loPI   C2B 8766   2.325  16.004   9.604  0.0861  0.0887 -0.0447
  548loPI   C3B 8767   2.353  16.050   9.194  0.0446  0.0012 -0.0556
  548loPI   C4B 8768   2.498  16.053   8.761  0.2044 -0.0764  0.1197
  549loPI    C1 8769   8.340   8.825  11.165 -0.0209  0.0651  0.0447
  549loPI    C2 8770   8.460   8.550  11.431 -0.0388  0.2200  0.2152
  549loPI    C3 8771   8.073   8.650  11.407 -0.0545  0.1233  0.0497
  549loPI   PO4 8772   8.342   8.707  10.958  0.0537  0.0904 -0.1897
  549loPI   GL1 8773   8.506   8.416  10.529 -0.0186 -0.0914  0.1431
  549loPI   GL2 8774   8.657   8.715  10.594 -0.1583  0.0171 -0.4483
  549loPI   C1A 8775   8.407   8.433  10.071  0.2179  0.0649  0.0651
  549loPI   C2A 8776   8.401   8.312   9.654 -0.0807  0.3104 -0.1877
  549loPI   C3A 8777   8.309   8.307   9.217  0.1616 -0.0575  0.0555
  549loPI   C4A 8778   8.297   8.327   8.813  0.0326  0.6185  0.1983
  549loPI   C5A 8779   8.598   8.422   8.501 -0.1372  0.0823 -0.0773
  549loPI   C6A 8780   8.788   8.677   8.183 -0.1666 -0.1594  0.1009
  549loPI   C1B 8781   8.616   8.847  10.116  0.1117  0.1782  0.0821
  549loPI   C2B 8782   8.615   8.862   9.659 -0.0608 -0.0023 -0.1968
  549loPI   C3B 8783   8.514   8.795   9.192 -0.3287 -0.1064  0.0180
  549loPI   C4B 8784   8.468   8.830   8.806  0.0433  0.2008 -0.0912
  550loPI    C1 8785   0.627  16.259  11.437  0.1012  0.0208  0.3454
  550loPI    C2 8786   0.978  16.353  11.604  0.1116  0.0821  0.2893
  550loPI    C3 8787   0.749  16.069  11.768  0.2219 -0.0111  0.2833
  550loPI   PO4 8788   0.665  16.189  11.191 -0.0653  0.1651 -0.0071
  550loPI   GL1 8789   0.418  16.055  10.873 -0.0470  0.1826 -0.4083
  550loPI   GL2 8790   0.665  15.781  10.807 -0.2228 -0.1668 -0.1751
  550loPI   C1A 8791   0.255  15.842  10.494 -0.1053 -0.3139  0.0092
  550loPI   C2A 8792   0.261  15.811  10.017 -0.1761 -0.0027  0.1731
  550loPI   C3A 8793   0.278  15.781   9.637 -0.0852  0.0185 -0.5348
  550loPI   C4A 8794   0.324  15.798   9.209  0.3391  0.1965  0.4518
  550loPI   C5A 8795   0.433  15.865   8.866 -0.0179  0.3616  0.1809
  550loPI   C6A 8796   0.166  16.034   8.578  0.3480  0.0493  0.2035
  550loPI   C1B 8797   0.765  15.834  10.327 -0.2241  0.0704 -0.2977
  550loPI   C2B 8798   0.829  15.840   9.935  0.4887  0.0755  0.2899
  550loPI   C3B 8799   0.782  15.888   9.493 -0.0065 -0.0340  0.0117
  550loPI   C4B 8800   0.887  15.897   9.055  0.0833  0.2615 -0.2549
  551loPI    C1 8801  12.171  12.976  11.331  0.0196  0.0580 -0.2528
  551loPI    C2 8802  12.041  13.297  11.531 -0.1415 -0.1403 -0.0349
  551loPI    C3 8803  12.213  12.994  11.728 -0.1221 -0.2520 -0.2215
  551loPI   PO4 8804  12.164  13.146  11.065  0.1656 -0.0872  0.1032
  551loPI   GL1 8805  12.228  13.029  10.673  0.1794 -0.0601 -0.2419
  551loPI   GL2 8806  12.455  13.257  10.566 -0.1493  0.1868  0.1716
  551loPI   C1A 8807  12.312  12.949  10.226 -0.1239 -0.1375 -0.1249
  551loPI   C2A 8808  12.276  12.835   9.826  0.1557  0.0768 -0.1833
  551loPI   C3A 8809  12.259  12.836   9.361 -0.0650 -0.1397 -0.0477
  551loPI   C4A 8810  12.283  12.920   8.974  0.0762  0.0817 -0.2556
  551loPI   C5A 8811  11.955  13.010   8.699  0.1109  0.1662  0.1281
  551loPI   C6A 8812  11.879  12.865   8.297  0.1962 -0.2735  0.0506
  551loPI   C1B 8813  12.557  13.432  10.104  0.1133 -0.1013  0.1847
  551loPI   C2B 8814  12.543  13.342   9.582  0.4472 -0.0170 -0.1449
  551loPI   C3B 8815  12.530  13.315   9.119 -0.0610 -0.1907  0.0957
  551loPI   C4B 8816  12.478  13.359   8.791  0.0114  0.2787 -0.1978
  552loPI    C1 8817  17.612   4.807  11.306  0.0305  0.0508  0.3081
  552loPI    C2 8818  17.264   4.798  11.503 -0.0923 -0.3183  0.0863
  552loPI    C3 8819  17.476   4.462  11.456  0.1155 -0.1652 -0.0970
  552loPI   PO4 8820  17.586   4.876  11.023  0.2604  0.1207 -0.0886
  552loPI   GL1 8821  17.255   4.770  10.688  0.0484  0.2040  0.1692
  552loPI   GL2 8822  17.312   4.530  10.601  0.0472 -0.2475  0.0439
  552loPI   C1A 8823  17.163   4.863  10.287 -0.1094 -0.1349 -0.1543
  552loPI   C2A 8824  17.090   4.838   9.801 -0.2971 -0.1228  0.1530
  552loPI   C3A 8825  17.032   4.759   9.371  0.1374  0.0228  0.1287
  552loPI   C4A 8826  17.028   4.757   8.984 -0.0886 -0.2176  0.0149
  552loPI   C5A 8827  16.971   4.741   8.587  0.0065 -0.2836 -0.0253
  552loPI   C6A 8828  16.723   4.545   8.250 -0.0689 -0.0772 -0.0027
  552loPI   C1B 8829  17.327   4.476  10.001 -0.0112 -0.0297 -0.0824
  552loPI   C2B 8830  17.359   4.384   9.576  0.1919  0.3341  0.0539
  552loPI   C3B 8831  17.366   4.401   9.135  0.0296 -0.1627 -0.1743
  552loPI   C4B 8832  17.337   4.230   8.696 -0.0191 -0.1566  0.0067
  553loPI    C1 8833   5.073  14.305  11.175 -0.1628  0.0807  0.1230
  553loPI    C2 8834   5.281  14.073  11.427 -0.0429 -0.1358 -0.1699
  553loPI    C3 8835   5.169  14.440  11.540  0.2388 -0.1292  0.1014
  553loPI   PO4 8836   5.138  14.179  10.929 -0.0357 -0.2963 -0.1626
  553loPI   GL1 8837   5.081  14.346  10.592 -0.0966  0.2117 -0.0119
  553loPI   GL2 8838   5.347  14.145  10.446 -0.2881 -0.0177 -0.0761
  553loPI   C1A 8839   5.056  14.458  10.124  0.1694  0.0857 -0.1103
  553loPI   C2A 8840   5.090  14.394   9.693  0.0961  0.1566 -0.0822
  553loPI   C3A 8841   5.153  14.337   9.239 -0.0245  0.0321  0.1445
  553loPI   C4A 8842   5.160  14.601   8.777  0.1731  0.2658  0.1885
  553loPI   C5A 8843   4.815  14.647   8.422 -0.1833  0.0116  0.0591
  553loPI   C6A 8844   4.506  14.860   8.029  0.3205 -0.0545  0.2053
  553loPI   C1B 8845   5.348  14.129   9.997 -0.2400 -0.2274  0.3258
  553loPI   C2B 8846   5.374  14.028   9.532  0.0995  0.1276  0.0414
  553loPI   C3B 8847   5.414  13.913   9.141  0.3179 -0.2479 -0.2981
  553loPI   C4B 8848   5.536  13.806   8.715 -0.0874 -0.3250  0.1918
  554loPI    C1 8849  15.151   5.715  11.296  0.1431 -0.1657 -0.1695
  554loPI    C2 8850  15.506   5.579  11.418  0.0024 -0.2563  0.1479
  554loPI    C3 8851  15.170   5.403  11.546 -0.1641 -0.0151  0.0486
  554loPI   PO4 8852  15.210   5.803  11.065 -0.2251  0.0684 -0.1468
  554loPI   GL1 8853  15.268   5.899  10.601  0.3224 -0.3064  0.0646
  554loPI   GL2 8854  15.386   5.584  10.517  0.2800  0.0014 -0.2999
  554loPI   C1A 8855  15.189   5.918  10.184  0.2016  0.2147 -0.1428
  554loPI   C2A 8856  15.145   5.899   9.799  0.1752  0.1908 -0.0705
  554loPI   C3A 8857  15.086   6.047   9.377  0.1494 -0.0361  0.1137
  554loPI   C4A 8858  15.035   5.932   8.893 -0.1741  0.1425 -0.0279
  554loPI   C5A 8859  15.098   5.885   8.417 -0.1856  0.0231  0.4380
  554loPI   C6A 8860  14.887   6.060   8.008 -0.0804 -0.1772  0.2390
  554loPI   C1B 8861  15.355   5.454  10.073  0.0129 -0.2613 -0.0464
  554loPI   C2B 8862  15.444   5.509   9.618  0.2416  0.0597  0.2271
  554loPI   C3B 8863  15.351   5.590   9.232 -0.1596  0.3394  0.2217
  554loPI   C4B 8864  15.328   5.544   8.791  0.0719 -0.0126  0.1034
  555loPI    C1 8865   4.339   7.386  10.668 -0.3006 -0.0674  0.1409
  555loPI    C2 8866   4.292   7.593  11.007 -0.1655  0.1038  0.0566
  555loPI    C3 8867   4.408   7.211  11.021  0.0479  0.1712  0.1968
  555loPI   PO4 8868   4.370   7.515  10.514  0.0994 -0.1889  0.1672
  555loPI   GL1 8869   4.380   7.432  10.065  0.0306 -0.0912 -0.0750
  555loPI   GL2 8870   4.608   7.409   9.905  0.2233  0.0038  0.0991
  555loPI   C1A 8871   4.102   7.406   9.792 -0.1544 -0.2930  0.2236
  555loPI   C2A 8872   4.000   7.342   9.443  0.3438  0.1062 -0.0073
  555loPI   C3A 8873   3.974   7.432   9.059 -0.1427  0.0789  0.1892
  555loPI   C4A 8874   3.897   7.407   8.694 -0.0665 -0.0107  0.0651
  555loPI   C5A 8875   3.751   7.583   8.378 -0.3042  0.0008  0.0039
  555loPI   C6A 8876   3.991   7.713   8.012 -0.0656  0.1381  0.1479
  555loPI   C1B 8877   4.544   7.483   9.551  0.2187  0.1666  0.2160
  555loPI   C2B 8878   4.503   7.505   9.198 -0.2511  0.2367 -0.2116
  555loPI   C3B 8879   4.514   7.519   8.778  0.1426  0.2291  0.2566
  555loPI   C4B 8880   4.367   7.471   8.301 -0.0649  0.0432  0.1699
  556loPI    C1 8881   6.408  14.616  11.346 -0.1011  0.4643 -0.0017
  556loPI    C2 8882   6.127  14.473  11.593  0.0279  0.2350  0.0154
  556loPI    C3 8883   6.418  14.708  11.735 -0.0643  0.3434  0.0264
  556loPI   PO4 8884   6.358  14.778  11.165  0.0478  0.0866  0.3336
  556loPI   GL1 8885   6.309  14.729  10.752  0.0046  0.0257 -0.0548
  556loPI   GL2 8886   6.365  14.976  10.592 -0.0366 -0.2539  0.2365
  556loPI   C1A 8887   6.171  14.579  10.309  0.0403  0.0397  0.0685
  556loPI   C2A 8888   6.195  14.494   9.876 -0.1421  0.1419 -0.0622
  556loPI   C3A 8889   6.133  14.479   9.461  0.3054  0.1602 -0.0722
  556loPI   C4A 8890   6.178  14.481   9.011 -0.0217  0.2218 -0.0938
  556loPI   C5A 8891   5.978  14.433   8.631 -0.1273  0.2785  0.2827
  556loPI   C6A 8892   5.596  14.428   8.383  0.1108  0.2147  0.2829
  556loPI   C1B 8893   6.370  15.033  10.125  0.0361  0.0358  0.2149
  556loPI   C2B 8894   6.379  14.933   9.694  0.2399  0.1322 -0.0392
  556loPI   C3B 8895   6.299  14.931   9.263  0.0555  0.1191 -0.0826
  556loPI   C4B 8896   6.267  14.987   8.806 -0.3377  0.1972  0.0981
  557loPI    C1 8897  14.030   8.483  10.778  0.0576  0.1622  0.0932
  557loPI    C2 8898  14.288   8.751  10.924  0.0957  0.0530  0.2284
  557loPI    C3 8899  14.275   8.382  11.078 -0.0035 -0.0024  0.0888
  557loPI   PO4 8900  14.047   8.412  10.516  0.0985 -0.0956 -0.3240
  557loPI   GL1 8901  13.785   8.271  10.172 -0.0008 -0.1890 -0.0107
  557loPI   GL2 8902  13.694   8.015   9.953 -0.2648  0.1691  0.1567
  557loPI   C1A 8903  13.728   8.542   9.738  0.0011 -0.2782 -0.1669
  557loPI   C2A 8904  13.695   8.601   9.323 -0.1348 -0.3459 -0.0974
  557loPI   C3A 8905  13.751   8.632   8.878  0.0024  0.0962  0.0634
  557loPI   C4A 8906  13.735   8.653   8.488 -0.3107  0.0803 -0.2251
  557loPI   C5A 8907  13.662   8.705   8.075 -0.1106 -0.1455  0.3088
  557loPI   C6A 8908  13.430   8.923   7.660 -0.2313 -0.1434 -0.0783
  557loPI   C1B 8909  13.586   8.094   9.488  0.0061  0.0803 -0.1841
  557loPI   C2B 8910  13.582   8.108   9.090 -0.0957 -0.0633  0.0977
  557loPI   C3B 8911  13.511   8.140   8.629  0.0473  0.4195 -0.2576
  557loPI   C4B 8912  13.777   8.236   8.227  0.0791 -0.1096  0.0491
  558loPI    C1 8913  17.164   6.805  11.125 -0.0120  0.4176  0.1022
  558loPI    C2 8914  17.342   6.838  11.482  0.3897 -0.1227 -0.0355
  558loPI    C3 8915  17.062   6.558  11.422  0.2366  0.0447 -0.1141
  558loPI   PO4 8916  17.349   6.692  10.921  0.1826 -0.3812 -0.1345
  558loPI   GL1 8917  17.312   6.531  10.489  0.0624  0.1088  0.2202
  558loPI   GL2 8918  16.998   6.667  10.462 -0.1609  0.1515 -0.3209
  558loPI   C1A 8919  17.458   6.663  10.074  0.0267 -0.1396 -0.3638
  558loPI   C2A 8920  17.468   6.593   9.538  0.5999  0.3666  0.1487
  558loPI   C3A 8921  17.357   6.656   9.109  0.0886 -0.3127 -0.1079
  558loPI   C4A 8922  17.595   6.656   8.722 -0.0159 -0.1591  0.1682
  558loPI   C5A 8923  17.934   6.334   8.469  0.2676 -0.1027 -0.3530
  558loPI   C6A 8924  18.162   6.007   8.346  0.0176  0.3387 -0.0553
  558loPI   C1B 8925  16.963   6.546  10.049 -0.0251 -0.0146  0.0165
  558loPI   C2B 8926  16.865   6.593   9.512  0.0943  0.1622  0.1174
  558loPI   C3B 8927  16.854   6.592   9.062 -0.2917  0.0953 -0.0170
  558loPI   C4B 8928  17.008   6.512   8.636 -0.2107  0.0253 -0.2765
  559loPI    C1 8929   6.683   3.366  11.135 -0.0908  0.0616  0.0483
  559loPI    C2 8930   6.605   3.466  11.515 -0.1992 -0.0665  0.0604
  559loPI    C3 8931   6.432   3.144  11.353 -0.0438 -0.0935 -0.0543
  559loPI   PO4 8932   6.593   3.502  10.948 -0.1522 -0.0595  0.1204
  559loPI   GL1 8933   6.582   3.538  10.536  0.0746  0.1707  0.0064
  559loPI   GL2 8934   6.536   3.267  10.332 -0.0915  0.1358 -0.1246
  559loPI   C1A 8935   6.790   3.704  10.206  0.2521  0.0345  0.2085
  559loPI   C2A 8936   6.807   3.789   9.773 -0.1199  0.0334 -0.0734
  559loPI   C3A 8937   6.858   3.637   9.378  0.2405  0.1426 -0.0914
  559loPI   C4A 8938   6.938   3.717   8.972 -0.1765  0.0684  0.1622
  559loPI   C5A 8939   6.743   3.694   8.542  0.1000  0.0495 -0.1829
  559loPI   C6A 8940   6.838   3.991   8.182 -0.0664 -0.0591  0.0650
  559loPI   C1B 8941   6.536   3.308   9.867  0.1623 -0.0499  0.0834
  559loPI   C2B 8942   6.576   3.180   9.409  0.1796  0.0857 -0.1448
  559loPI   C3B 8943   6.655   3.286   8.968  0.3140  0.2080  0.2427
  559loPI   C4B 8944   6.640   3.209   8.529  0.5050 -0.1882  0.0050
  560loPI    C1 8945   2.034   4.125  11.489  0.1476 -0.0581  0.0003
  560loPI    C2 8946   2.424   4.160  11.571  0.0723  0.2341  0.2547
  560loPI    C3 8947   2.152   4.271  11.842 -0.1906  0.0048  0.0911
  560loPI   PO4 8948   2.019   4.199  11.257  0.0680 -0.3572  0.0109
  560loPI   GL1 8949   2.088   3.897  10.947  0.0788 -0.0406 -0.1104
  560loPI   GL2 8950   1.815   3.723  10.832  0.0566  0.0125  0.1151
  560loPI   C1A 8951   1.974   4.078  10.441  0.1681  0.2193  0.2795
  560loPI   C2A 8952   1.970   4.088   9.988 -0.3038 -0.0735  0.1950
  560loPI   C3A 8953   1.995   4.106   9.572 -0.0303  0.0870 -0.0623
  560loPI   C4A 8954   1.967   4.188   9.208  0.0720 -0.0058  0.1108
  560loPI   C5A 8955   1.873   3.981   8.801  0.2460  0.0906  0.2376
  560loPI   C6A 8956   1.673   3.656   8.581  0.0510 -0.1583 -0.0896
  560loPI   C1B 8957   1.709   3.612  10.396  0.1398  0.2447  0.0412
  560loPI   C2B 8958   1.795   3.643  10.023  0.1539  0.2069 -0.0836
  560loPI   C3B 8959   1.774   3.567   9.637 -0.0347  0.1882  0.0238
  560loPI   C4B 8960   1.770   3.638   9.131 -0.1046 -0.0646  0.1491
  561loPI    C1 8961   5.156   3.520  11.358 -0.1126  0.1138 -0.1249
  561loPI    C2 8962   5.110   3.911  11.431 -0.2142  0.1109 -0.1722
  561loPI    C3 8963   5.270   3.673  11.710 -0.3791  0.1427 -0.0489
  561loPI   PO4 8964   5.271   3.517  11.108  0.1285 -0.2216 -0.0012
  561loPI   GL1 8965   5.110   3.650  10.696 -0.0560  0.3676 -0.1901
  561loPI   GL2 8966   5.181   3.756  10.496 -0.0574 -0.1908  0.3511
  561loPI   C1A 8967   4.763   3.522  10.376 -0.2410  0.0476 -0.0750
  561loPI   C2A 8968   4.656   3.413   9.957 -0.0712 -0.0185 -0.2757
  561loPI   C3A 8969   4.556   3.517   9.572  0.1427 -0.0271 -0.2597
  561loPI   C4A 8970   4.737   3.382   9.154  0.0608  0.3533  0.0602
  561loPI   C5A 8971   4.728   3.507   8.714  0.2779 -0.1394 -0.0887
  561loPI   C6A 8972   4.836   3.186   8.415 -0.1899 -0.0247  0.3194
  561loPI   C1B 8973   5.233   3.479  10.132  0.2146 -0.2570  0.0654
  561loPI   C2B 8974   5.045   3.517   9.744  0.0744 -0.2549  0.3853
  561loPI   C3B 8975   5.220   3.494   9.357 -0.0858  0.2087 -0.1473
  561loPI   C4B 8976   5.235   3.464   8.866 -0.1229  0.1670 -0.1639
  562loPI    C1 8977   1.132  10.193  11.316  0.0731  0.1345  0.0328
  562loPI    C2 8978   1.454   9.967  11.389 -0.0357 -0.1180 -0.2465
  562loPI    C3 8979   1.470  10.363  11.448  0.1287 -0.2011  0.3395
  562loPI   PO4 8980   0.932  10.093  11.116  0.1021  0.0777 -0.0488
  562loPI   GL1 8981   0.838  10.094  10.725 -0.0835  0.0845  0.0865
  562loPI   GL2 8982   1.107   9.920  10.651 -0.1806  0.3437 -0.1454
  562loPI   C1A 8983   0.408  10.092  10.382 -0.0280  0.0500  0.0739
  562loPI   C2A 8984   0.359  10.323   9.979  0.0482 -0.2082  0.0958
  562loPI   C3A 8985   0.369  10.362   9.519 -0.0327  0.1814 -0.0935
  562loPI   C4A 8986   0.282  10.472   9.065  0.2478  0.0815  0.0463
  562loPI   C5A 8987   0.473  10.575   8.647 -0.1096  0.3048  0.0442
  562loPI   C6A 8988   0.676  10.768   8.374  0.0388 -0.0041  0.2353
  562loPI   C1B 8989   1.194  10.070  10.209  0.2004  0.2081 -0.2668
  562loPI   C2B 8990   1.216   9.939   9.803 -0.1220  0.4163  0.1093
  562loPI   C3B 8991   1.169  10.033   9.323  0.1036  0.1828 -0.1333
  562loPI   C4B 8992   1.072   9.981   8.944  0.0048  0.2398 -0.1982
  563loPI    C1 8993  17.724  10.335  11.264  0.0522 -0.1939 -0.0514
  563loPI    C2 8994  18.047  10.460  11.465  0.0094  0.1872 -0.2110
  563loPI    C3 8995  17.709  10.376  11.662  0.2127 -0.2555 -0.0385
  563loPI   PO4 8996  17.795  10.436  11.021  0.0863  0.1047  0.1802
  563loPI   GL1 8997  17.704  10.290  10.589  0.2576 -0.0503  0.1154
  563loPI   GL2 8998  17.857  10.517  10.487  0.1994  0.2491 -0.0897
  563loPI   C1A 8999  17.519  10.214  10.267  0.1579  0.0080  0.4573
  563loPI   C2A 9000  17.477  10.190   9.884 -0.0568 -0.0207 -0.0392
  563loPI   C3A 9001  17.507  10.300   9.495 -0.0518  0.0445 -0.1380
  563loPI   C4A 9002  17.539  10.346   9.006 -0.1344  0.2675 -0.1656
  563loPI   C5A 9003  17.442  10.332   8.564 -0.1277 -0.0659 -0.0813
  563loPI   C6A 9004  17.146  10.083   8.301 -0.0414 -0.1520  0.0477
  563loPI   C1B 9005  17.723  10.600   9.979 -0.0113  0.1668  0.0071
  563loPI   C2B 9006  17.751  10.740   9.587 -0.1036  0.2938  0.2595
  563loPI   C3B 9007  17.713  10.835   9.154 -0.0238 -0.0413  0.1402
  563loPI   C4B 9008  17.705  10.727   8.695 -0.0989 -0.2214 -0.2008
  564loPI    C1 9009   4.285   9.015  11.071 -0.0216  0.0170  0.0803
  564loPI    C2 9010   4.601   9.110  11.297  0.0504 -0.0618  0.0134
  564loPI    C3 9011   4.267   9.330  11.317  0.0537 -0.0720  0.2011
  564loPI   PO4 9012   4.397   9.010  10.849  0.0808  0.2886 -0.1359
  564loPI   GL1 9013   4.436   9.223  10.519  0.2607 -0.0701 -0.0768
  564loPI   GL2 9014   4.377   8.940  10.267 -0.1367  0.1060 -0.2359
  564loPI   C1A 9015   4.428   9.347  10.049  0.1154  0.1021 -0.1865
  564loPI   C2A 9016   4.312   9.320   9.593 -0.0843  0.0910  0.0388
  564loPI   C3A 9017   4.173   9.374   9.204 -0.1726  0.1590  0.0665
  564loPI   C4A 9018   4.272   9.258   8.827 -0.0437  0.2554 -0.1496
  564loPI   C5A 9019   4.381   9.362   8.467 -0.0311  0.0142 -0.1584
  564loPI   C6A 9020   4.169   9.568   8.086  0.2187 -0.0347  0.0295
  564loPI   C1B 9021   4.263   8.904   9.868  0.1142  0.1089 -0.1981
  564loPI   C2B 9022   4.063   8.887   9.323 -0.2211  0.3130  0.0618
  564loPI   C3B 9023   4.094   8.735   8.840 -0.5210 -0.3074 -0.0921
  564loPI   C4B 9024   4.025   8.618   8.321  0.1044  0.0965 -0.0173
  565loPI    C1 9025   6.974   0.095  10.865  0.0624 -0.2354 -0.2431
  565loPI    C2 9026   6.583   0.098  10.949  0.0974  0.0682 -0.0791
  565loPI    C3 9027   6.849   0.032  11.240  0.1835  0.2655 -0.1115
  565loPI   PO4 9028   7.067  -0.004  10.612 -0.0291  0.1427  0.2858
  565loPI   GL1 9029   7.358   0.120  10.290  0.3535  0.1580 -0.0413
  565loPI   GL2 9030   7.028   0.221  10.141  0.0646  0.0581 -0.1025
  565loPI   C1A 9031   7.595   0.195   9.939 -0.0572 -0.1021 -0.0242
  565loPI   C2A 9032   7.572   0.244   9.536 -0.0467  0.0594 -0.0479
  565loPI   C3A 9033   7.616   0.186   9.196  0.1636 -0.1350 -0.1990
  565loPI   C4A 9034   7.523   0.098   8.834  0.1294  0.0494  0.2120
  565loPI   C5A 9035   7.685  -0.102   8.461  0.0508 -0.0400 -0.0530
  565loPI   C6A 9036   7.448  -0.371   8.209 -0.0550 -0.0125  0.3095
  565loPI   C1B 9037   7.055   0.254   9.723 -0.0430 -0.0794  0.1088
  565loPI   C2B 9038   7.005   0.168   9.274 -0.0121  0.0423  0.0432
  565loPI   C3B 9039   7.020   0.161   8.854  0.2532 -0.0885 -0.1948
  565loPI   C4B 9040   7.041  -0.078   8.497 -0.0094  0.3918 -0.0622
  566loPI    C1 9041   3.634   8.386  10.708  0.2181  0.0743 -0.2012
  566loPI    C2 9042   3.799   8.188  10.402  0.3320  0.0476 -0.1230
  566loPI    C3 9043   3.947   8.145  10.771 -0.0353 -0.2113  0.0004
  566loPI   PO4 9044   3.523   8.614  10.550 -0.2127 -0.1579 -0.1661
  566loPI   GL1 9045   3.361   8.647  10.236  0.0683 -0.1654  0.2305
  566loPI   GL2 9046   3.522   8.399  10.078 -0.3183  0.0092  0.0410
  566loPI   C1A 9047   3.154   8.828   9.957 -0.1813 -0.1238  0.1986
  566loPI   C2A 9048   3.120   8.800   9.615  0.2175  0.0673 -0.1863
  566loPI   C3A 9049   3.028   8.767   9.206  0.0639  0.1353  0.0320
  566loPI   C4A 9050   3.091   8.704   8.715 -0.0471  0.1822 -0.0939
  566loPI   C5A 9051   2.783   8.741   8.451  0.1347 -0.1842 -0.3447
  566loPI   C6A 9052   2.299   8.888   8.584  0.1409 -0.0273 -0.0675
  566loPI   C1B 9053   3.452   8.371   9.643 -0.2848 -0.3315  0.1731
  566loPI   C2B 9054   3.343   8.288   9.201  0.2752  0.1890  0.3017
  566loPI   C3B 9055   3.361   8.200   8.762 -0.2453  0.1461 -0.2134
  566loPI   C4B 9056   3.594   8.146   8.348 -0.0857  0.2851  0.0118
  567loPI    C1 9057   8.357  14.938  11.247  0.0629  0.0019 -0.0153
  567loPI    C2 9058   8.629  15.200  11.380 -0.0465  0.1987 -0.1723
  567loPI    C3 9059   8.373  15.030  11.636  0.0040  0.2700 -0.0738
  567loPI   PO4 9060   8.260  14.969  11.014 -0.0877  0.1976  0.2502
  567loPI   GL1 9061   8.299  15.039  10.572 -0.2614 -0.1558  0.0298
  567loPI   GL2 9062   8.447  14.743  10.603  0.0451 -0.3241 -0.1710
  567loPI   C1A 9063   8.392  15.111  10.103 -0.1319 -0.0671 -0.1148
  567loPI   C2A 9064   8.397  15.134   9.714  0.0318  0.3603  0.0683
  567loPI   C3A 9065   8.345  15.077   9.335  0.0280 -0.1813 -0.3485
  567loPI   C4A 9066   8.226  15.128   8.896  0.0102 -0.1551  0.0029
  567loPI   C5A 9067   8.295  15.051   8.462  0.0625 -0.1934 -0.2218
  567loPI   C6A 9068   8.497  14.704   8.248  0.0333 -0.2331 -0.0397
  567loPI   C1B 9069   8.258  14.633  10.211  0.0728  0.0025  0.4412
  567loPI   C2B 9070   8.225  14.681   9.758 -0.0108 -0.0406 -0.0632
  567loPI   C3B 9071   8.140  14.634   9.268  0.4313 -0.2409  0.1612
  567loPI   C4B 9072   8.194  14.654   8.871  0.0783 -0.1278 -0.1236
  568loPI    C1 9073   7.646   2.917  11.428 -0.0592 -0.2624 -0.0810
  568loPI    C2 9074   7.384   3.093  11.674  0.0095 -0.1246 -0.1057
  568loPI    C3 9075   7.576   2.762  11.790 -0.1615 -0.2162 -0.0807
  568loPI   PO4 9076   7.484   2.918  11.232  0.1964 -0.0754 -0.2342
  568loPI   GL1 9077   7.336   2.878  10.845  0.1136  0.0804  0.0451
  568loPI   GL2 9078   7.636   2.871  10.630 -0.0588 -0.1033  0.3054
  568loPI   C1A 9079   7.247   2.768  10.380 -0.1764 -0.1789  0.0467
  568loPI   C2A 9080   7.372   2.873   9.821  0.1481  0.0636 -0.1545
  568loPI   C3A 9081   7.354   2.863   9.330 -0.2865 -0.0885  0.0341
  568loPI   C4A 9082   7.364   2.838   8.884 -0.1193 -0.3303 -0.1543
  568loPI   C5A 9083   7.530   2.863   8.342  0.3588 -0.2127  0.2915
  568loPI   C6A 9084   7.550   2.557   7.943 -0.1631  0.0595 -0.2969
  568loPI   C1B 9085   7.890   2.916  10.215  0.2287 -0.2100 -0.1092
  568loPI   C2B 9086   7.901   2.927   9.798 -0.4245  0.1720  0.0443
  568loPI   C3B 9087   7.817   2.923   9.483  0.0308  0.0444  0.1029
  568loPI   C4B 9088   7.859   2.841   9.043  0.2277 -0.4449 -0.0001
  569loPI    C1 9089   2.028  14.066  11.015  0.0065 -0.0950  0.1408
  569loPI    C2 9090   1.891  14.226  11.356 -0.0360  0.0057  0.0768
  569loPI    C3 9091   1.780  13.856  11.249 -0.1142  0.0178  0.1151
  569loPI   PO4 9092   1.990  14.163  10.817  0.0269 -0.0619 -0.1242
  569loPI   GL1 9093   2.365  14.231  10.404  0.3120 -0.0671 -0.5260
  569loPI   GL2 9094   2.020  14.216  10.331 -0.5215  0.1622  0.5268
  569loPI   C1A 9095   2.491  14.275  10.105 -0.2146  0.0750 -0.0720
  569loPI   C2A 9096   2.536  14.200   9.647  0.0074  0.1718  0.3179
  569loPI   C3A 9097   2.560  14.173   9.188  0.2175 -0.1641 -0.0791
  569loPI   C4A 9098   2.697  14.236   8.678  0.1705 -0.0321  0.0525
  569loPI   C5A 9099   2.711  14.292   8.317 -0.1092  0.1393 -0.1308
  569loPI   C6A 9100   2.982  14.146   8.034  0.0087 -0.5658  0.0911
  569loPI   C1B 9101   2.025  14.242   9.951 -0.0627  0.0559 -0.1683
  569loPI   C2B 9102   1.995  14.131   9.601 -0.2246  0.2847  0.1763
  569loPI   C3B 9103   1.905  14.237   9.220  0.3119  0.0997 -0.2237
  569loPI   C4B 9104   1.929  14.094   8.758  0.1858 -0.0492  0.0492
  570loPI    C1 9105   3.607   2.223  11.416 -0.1206  0.2633 -0.0670
  570loPI    C2 9106   3.564   2.340  11.796 -0.1263  0.1667 -0.0378
  570loPI    C3 9107   3.414   1.989  11.676 -0.0223  0.1435 -0.1009
  570loPI   PO4 9108   3.788   2.252  11.248 -0.1794  0.1668 -0.0633
  570loPI   GL1 9109   3.849   2.468  10.907  0.1118 -0.1979 -0.1519
  570loPI   GL2 9110   4.255   2.454  10.880  0.0197 -0.0916  0.0898
  570loPI   C1A 9111   3.733   2.530  10.476  0.1684  0.3732 -0.0494
  570loPI   C2A 9112   3.817   2.482  10.043  0.0569  0.2379 -0.0642
  570loPI   C3A 9113   3.778   2.449   9.651 -0.2229 -0.0624  0.0087
  570loPI   C4A 9114   3.710   2.482   9.193  0.1272  0.3839  0.1590
  570loPI   C5A 9115   3.818   2.604   8.735  0.2675  0.0979 -0.0755
  570loPI   C6A 9116   3.637   2.613   8.418 -0.1354  0.2886  0.2383
  570loPI   C1B 9117   4.207   2.555  10.390 -0.0784 -0.0386 -0.0035
  570loPI   C2B 9118   4.268   2.540   9.881 -0.1212  0.1898  0.0158
  570loPI   C3B 9119   4.276   2.496   9.416  0.1679  0.1380 -0.1708
  570loPI   C4B 9120   4.265   2.566   9.015 -0.0033 -0.1925 -0.1393
  571loPI    C1 9121   8.428   7.624  11.390 -0.1524  0.1435  0.1279
  571loPI    C2 9122   8.719   7.626  11.663 -0.0996  0.2992  0.0717
  571loPI    C3 9123   8.360   7.475  11.755  0.0130  0.0591  0.1247
  571loPI   PO4 9124   8.435   7.849  11.153  0.0827  0.0714 -0.1805
  571loPI   GL1 9125   8.342   7.930  10.754  0.0853  0.1559  0.0539
  571loPI   GL2 9126   8.537   7.912  10.689 -0.1488  0.0162 -0.1831
  571loPI   C1A 9127   8.180   8.021  10.357  0.1145 -0.0766  0.0253
  571loPI   C2A 9128   8.128   7.942   9.937  0.2294  0.0869 -0.1424
  571loPI   C3A 9129   8.172   7.880   9.504 -0.0338  0.2744  0.2512
  571loPI   C4A 9130   8.092   7.873   9.073 -0.0294 -0.2250 -0.0337
  571loPI   C5A 9131   8.067   7.904   8.660 -0.1201 -0.1263  0.0986
  571loPI   C6A 9132   7.972   8.019   8.204  0.3176 -0.2603  0.1939
  571loPI   C1B 9133   8.683   7.954  10.217  0.3535 -0.0526  0.4160
  571loPI   C2B 9134   8.679   7.919   9.748 -0.0356 -0.2366 -0.2751
  571loPI   C3B 9135   8.672   7.994   9.356  0.1130 -0.1308  0.2926
  571loPI   C4B 9136   8.615   7.928   8.917  0.2398 -0.1293  0.1142
  572loPI    C1 9137   6.349   4.291  11.162 -0.0652 -0.0499 -0.0038
  572loPI    C2 9138   6.117   4.514  11.399 -0.0961 -0.0390 -0.0441
  572loPI    C3 9139   6.064   4.118  11.382  0.1956 -0.0983  0.3031
  572loPI   PO4 9140   6.472   4.448  11.028  0.0512 -0.0615 -0.2278
  572loPI   GL1 9141   6.625   4.623  10.589 -0.1984 -0.2009  0.3510
  572loPI   GL2 9142   6.311   4.583  10.472 -0.0026  0.1054  0.0485
  572loPI   C1A 9143   6.706   4.598  10.205  0.0850  0.1116 -0.1996
  572loPI   C2A 9144   6.625   4.598   9.803  0.1420  0.2735  0.1365
  572loPI   C3A 9145   6.696   4.640   9.365 -0.0759  0.3598 -0.3135
  572loPI   C4A 9146   6.660   4.647   8.965  0.3407  0.0539  0.0521
  572loPI   C5A 9147   6.709   4.668   8.545 -0.0440  0.0571 -0.1716
  572loPI   C6A 9148   6.556   4.966   8.264  0.0395  0.3957 -0.1030
  572loPI   C1B 9149   6.199   4.519  10.060  0.0821 -0.0594  0.2309
  572loPI   C2B 9150   6.198   4.565   9.569 -0.3396 -0.0146 -0.0184
  572loPI   C3B 9151   6.171   4.583   9.107 -0.1676  0.4401 -0.1057
  572loPI   C4B 9152   6.041   4.553   8.676  0.0363  0.1650  0.2232
  573loPI    C1 9153   1.739   6.049  11.171  0.1518  0.0739  0.0018
  573loPI    C2 9154   1.802   6.297  11.479  0.1824 -0.0354  0.0843
  573loPI    C3 9155   1.819   5.901  11.534  0.2148 -0.0553 -0.0641
  573loPI   PO4 9156   1.907   6.121  10.987 -0.0983 -0.1822 -0.0771
  573loPI   GL1 9157   1.978   6.022  10.621  0.0057  0.1085  0.2403
  573loPI   GL2 9158   2.095   6.271  10.484  0.0875 -0.2716 -0.3062
  573loPI   C1A 9159   1.835   5.877  10.130  0.1477 -0.0584  0.0845
  573loPI   C2A 9160   1.816   5.903   9.618  0.2032 -0.3980  0.2039
  573loPI   C3A 9161   1.837   5.948   9.091 -0.0557 -0.0426 -0.1720
  573loPI   C4A 9162   1.787   5.990   8.653 -0.0796 -0.3518 -0.0077
  573loPI   C5A 9163   1.538   6.325   8.412 -0.0742  0.1295  0.3457
  573loPI   C6A 9164   1.741   6.654   8.252 -0.0972 -0.1678  0.1438
  573loPI   C1B 9165   2.115   6.305  10.054 -0.0017  0.0628 -0.0768
  573loPI   C2B 9166   2.105   6.381   9.561 -0.0292 -0.0227  0.2496
  573loPI   C3B 9167   2.004   6.390   9.116  0.0756 -0.0364 -0.3156
  573loPI   C4B 9168   1.951   6.473   8.704  0.0955  0.0423  0.0170
  574loPI    C1 9169   4.081   9.756  11.043  0.1975 -0.0174 -0.0117
  574loPI    C2 9170   4.068   9.968  11.382  0.0718 -0.1024  0.0375
  574loPI    C3 9171   4.416   9.819  11.252  0.1390  0.0253  0.0696
  574loPI   PO4 9172   4.000   9.860  10.910  0.3432  0.4157 -0.0778
  574loPI   GL1 9173   3.916   9.960  10.573 -0.1576 -0.0872 -0.2010
  574loPI   GL2 9174   4.127   9.747  10.428  0.2016  0.0245 -0.1116
  574loPI   C1A 9175   3.954  10.205  10.262 -0.1167 -0.3026 -0.0132
  574loPI   C2A 9176   3.724  10.149   9.884 -0.0566  0.2631  0.0947
  574loPI   C3A 9177   3.694  10.209   9.368 -0.1911 -0.1376  0.1713
  574loPI   C4A 9178   3.614  10.185   8.913  0.0895  0.2448  0.0413
  574loPI   C5A 9179   3.661  10.078   8.436  0.1707 -0.0611  0.1537
  574loPI   C6A 9180   3.942   9.944   8.257  0.2609 -0.1508  0.2048
  574loPI   C1B 9181   4.124   9.750   9.990 -0.0224 -0.3627  0.0628
  574loPI   C2B 9182   4.043   9.789   9.520  0.1873 -0.0721 -0.0660
  574loPI   C3B 9183   3.955   9.849   9.077  0.1800  0.0676 -0.0258
  574loPI   C4B 9184   3.975   9.597   8.648 -0.1115 -0.1504 -0.0005
  575loPI    C1 9185   7.263   6.207  11.196 -0.4606 -0.0770  0.1816
  575loPI    C2 9186   7.531   5.945  11.336  0.0520  0.1918 -0.2601
  575loPI    C3 9187   7.146   5.912  11.439  0.2293 -0.2650  0.3069
  575loPI   PO4 9188   7.326   6.236  10.886  0.2193 -0.1060  0.0364
  575loPI   GL1 9189   7.079   6.249  10.569  0.1674  0.0195  0.3642
  575loPI   GL2 9190   7.115   6.430  10.210 -0.0158  0.2292 -0.1035
  575loPI   C1A 9191   7.265   5.944  10.313 -0.1738 -0.1210  0.1371
  575loPI   C2A 9192   7.400   6.018   9.895  0.4348  0.0492  0.0562
  575loPI   C3A 9193   7.357   6.054   9.482  0.1081  0.2486  0.1653
  575loPI   C4A 9194   7.267   6.010   9.061 -0.4107 -0.0335 -0.0095
  575loPI   C5A 9195   7.455   5.919   8.642 -0.0522  0.1607 -0.0379
  575loPI   C6A 9196   7.447   5.714   8.222 -0.2655  0.0364 -0.1887
  575loPI   C1B 9197   7.069   6.340   9.791  0.1147  0.0840  0.0252
  575loPI   C2B 9198   7.081   6.519   9.362  0.0662  0.4383 -0.1185
  575loPI   C3B 9199   7.065   6.595   8.881 -0.1142  0.2714  0.0277
  575loPI   C4B 9200   7.227   6.345   8.518 -0.0249  0.0681 -0.0376
  576loPI    C1 9201  11.722  16.489  11.000 -0.2689 -0.2010 -0.1153
  576loPI    C2 9202  11.561  16.237  11.265 -0.2104 -0.1381 -0.0195
  576loPI    C3 9203  11.464  16.626  11.273  0.1517 -0.0480  0.2157
  576loPI   PO4 9204  11.709  16.332  10.703 -0.0626 -0.0763 -0.2776
  576loPI   GL1 9205  11.788  16.180  10.341  0.1823 -0.1400  0.0252
  576loPI   GL2 9206  11.810  15.798  10.397 -0.3000  0.1389  0.2441
  576loPI   C1A 9207  11.632  16.059   9.929  0.2516  0.2042  0.1796
  576loPI   C2A 9208  11.728  16.021   9.489  0.1514  0.2583 -0.2147
  576loPI   C3A 9209  11.756  15.949   9.100 -0.1716 -0.0209  0.0935
  576loPI   C4A 9210  11.730  16.037   8.649 -0.1217  0.3332  0.0311
  576loPI   C5A 9211  11.722  16.348   8.346 -0.0312  0.1618  0.2207
  576loPI   C6A 9212  12.072  16.667   8.371  0.3344  0.1170  0.0255
  576loPI   C1B 9213  11.981  15.666  10.073 -0.0796 -0.0344 -0.1858
  576loPI   C2B 9214  12.084  15.597   9.612  0.1129  0.0416  0.3836
  576loPI   C3B 9215  12.055  15.528   9.247  0.2708  0.0440 -0.4194
  576loPI   C4B 9216  11.994  15.563   8.812 -0.1941  0.3184 -0.3535
  577loPI    C1 9217   7.122   0.474  11.126 -0.1383 -0.0473 -0.2857
  577loPI    C2 9218   7.500   0.590  11.184 -0.1943  0.0028 -0.0072
  577loPI    C3 9219   7.407   0.201  11.191 -0.1429 -0.0120 -0.1137
  577loPI   PO4 9220   7.039   0.644  10.945 -0.0616 -0.2467 -0.0114
  577loPI   GL1 9221   6.994   0.644  10.468 -0.1999  0.2693  0.0839
  577loPI   GL2 9222   6.743   0.460  10.480 -0.1292 -0.0108  0.2366
  577loPI   C1A 9223   7.265   0.693  10.164 -0.2769 -0.0821 -0.1055
  577loPI   C2A 9224   7.387   0.676   9.778  0.1376 -0.1488 -0.0783
  577loPI   C3A 9225   7.267   0.583   9.333 -0.0054 -0.1055  0.2000
  577loPI   C4A 9226   7.305   0.545   8.968  0.1852  0.1940 -0.0398
  577loPI   C5A 9227   7.281   0.385   8.481  0.2808 -0.1698  0.2753
  577loPI   C6A 9228   7.375   0.119   8.190 -0.0347  0.0226  0.3374
  577loPI   C1B 9229   6.739   0.579  10.013 -0.0772 -0.1889 -0.3643
  577loPI   C2B 9230   6.754   0.524   9.517 -0.0582  0.1075 -0.2640
  577loPI   C3B 9231   6.770   0.575   9.063 -0.0123 -0.1470 -0.0487
  577loPI   C4B 9232   6.845   0.574   8.633 -0.3959 -0.1567 -0.3378
  578loPI    C1 9233   2.900   7.000  11.125  0.0191 -0.1553 -0.0601
  578loPI    C2 9234   3.229   6.818  11.261  0.0845 -0.0606 -0.0906
  578loPI    C3 9235   2.888   6.796  11.469  0.2076  0.1642  0.1416
  578loPI   PO4 9236   2.934   6.929  10.850 -0.1307  0.1987 -0.1777
  578loPI   GL1 9237   3.136   7.077  10.493  0.2138 -0.2132 -0.0909
  578loPI   GL2 9238   3.451   7.006  10.330  0.1786  0.1596  0.1320
  578loPI   C1A 9239   2.841   7.035  10.147  0.1357  0.1529 -0.0228
  578loPI   C2A 9240   2.829   6.933   9.687  0.2439 -0.2738 -0.1054
  578loPI   C3A 9241   2.774   6.927   9.246 -0.1034  0.2677  0.0232
  578loPI   C4A 9242   2.615   6.919   8.760  0.0642 -0.2094 -0.0207
  578loPI   C5A 9243   2.589   6.755   8.404 -0.0526  0.0251  0.0491
  578loPI   C6A 9244   2.293   6.534   8.154 -0.0745  0.3908 -0.0616
  578loPI   C1B 9245   3.322   6.996   9.891  0.0112 -0.4169 -0.3117
  578loPI   C2B 9246   3.275   6.938   9.461 -0.1609  0.2379 -0.1245
  578loPI   C3B 9247   3.300   6.969   9.009  0.3501  0.0328 -0.2674
  578loPI   C4B 9248   3.170   6.986   8.633  0.3232  0.1675  0.1569
  579loPI    C1 9249  12.791   3.939  11.099 -0.2298  0.0984 -0.1595
  579loPI    C2 9250  12.889   4.318  11.015  0.1318  0.0097 -0.1530
  579loPI    C3 9251  13.174   4.039  11.044 -0.1296 -0.2614 -0.1388
  579loPI   PO4 9252  12.520   3.922  11.069  0.0396  0.1680  0.0252
  579loPI   GL1 9253  12.375   3.934  10.653  0.2463  0.0225  0.2185
  579loPI   GL2 9254  12.676   4.013  10.619 -0.3080  0.0213  0.2315
  579loPI   C1A 9255  12.193   3.781  10.304  0.0287 -0.1267  0.0365
  579loPI   C2A 9256  12.280   3.726   9.932  0.1014 -0.1150 -0.2340
  579loPI   C3A 9257  12.310   3.695   9.485 -0.2144 -0.0528 -0.0960
  579loPI   C4A 9258  12.205   3.822   8.986 -0.2350 -0.1158 -0.2012
  579loPI   C5A 9259  12.173   3.823   8.566  0.0830 -0.1650  0.1554
  579loPI   C6A 9260  12.130   3.592   8.185 -0.0347  0.2083 -0.0535
  579loPI   C1B 9261  12.687   3.837  10.257 -0.2762  0.0495 -0.0171
  579loPI   C2B 9262  12.741   3.812   9.760 -0.1533 -0.4702 -0.0422
  579loPI   C3B 9263  12.777   3.853   9.324  0.1379 -0.2494 -0.0289
  579loPI   C4B 9264  12.695   3.964   8.853  0.2709 -0.2034  0.1814
  580loPI    C1 9265  13.263   5.187  11.458  0.1510  0.0381  0.1793
  580loPI    C2 9266  13.533   5.203  11.753  0.2470  0.1935  0.0849
  580loPI    C3 9267  13.239   5.474  11.736 -0.2068 -0.2545  0.4599
  580loPI   PO4 9268  13.458   5.054  11.269  0.1493  0.1296  0.0487
  580loPI   GL1 9269  13.403   4.941  10.869  0.1120 -0.1453  0.0514
  580loPI   GL2 9270  13.581   5.037  10.725 -0.0439 -0.1082  0.1375
  580loPI   C1A 9271  13.200   4.801  10.436  0.0819 -0.1074  0.2185
  580loPI   C2A 9272  13.157   4.830  10.014 -0.2286  0.2429  0.0794
  580loPI   C3A 9273  13.199   4.762   9.516  0.2708 -0.1922 -0.1833
  580loPI   C4A 9274  13.196   4.853   9.150  0.1172  0.1079 -0.0097
  580loPI   C5A 9275  13.367   4.985   8.816  0.0364 -0.3657  0.1876
  580loPI   C6A 9276  13.017   4.825   8.627 -0.1191 -0.0559  0.1754
  580loPI   C1B 9277  13.471   5.329  10.424 -0.1702 -0.2378 -0.0092
  580loPI   C2B 9278  13.403   5.335   9.972  0.0118  0.0144 -0.1195
  580loPI   C3B 9279  13.373   5.233   9.497  0.2599 -0.0852 -0.0261
  580loPI   C4B 9280  13.372   5.363   9.145 -0.1442  0.0884  0.1372
  581loPI    C1 9281   0.371   4.057  11.178 -0.0983 -0.2878  0.1728
  581loPI    C2 9282   0.028   4.075  11.384 -0.1325 -0.4040  0.1271
  581loPI    C3 9283   0.376   4.040  11.577 -0.1185  0.0179  0.1887
  581loPI   PO4 9284   0.290   4.043  10.952  0.2297 -0.1841 -0.1803
  581loPI   GL1 9285   0.362   3.995  10.610 -0.1979  0.0227 -0.0960
  581loPI   GL2 9286   0.331   3.672  10.543  0.0314  0.0436 -0.2185
  581loPI   C1A 9287   0.330   4.012  10.209 -0.2873 -0.0615 -0.1393
  581loPI   C2A 9288   0.356   3.898   9.808 -0.2154 -0.2133 -0.1026
  581loPI   C3A 9289   0.373   3.957   9.445 -0.0256 -0.2947 -0.2178
  581loPI   C4A 9290   0.412   3.895   9.017 -0.1869  0.1674  0.0055
  581loPI   C5A 9291   0.273   3.916   8.559 -0.1605  0.1156 -0.1270
  581loPI   C6A 9292   0.313   3.712   8.213 -0.3306  0.0767  0.1926
  581loPI   C1B 9293   0.271   3.487  10.172 -0.0587  0.1588  0.1269
  581loPI   C2B 9294   0.223   3.437   9.778  0.1503  0.0181  0.1310
  581loPI   C3B 9295   0.216   3.454   9.369  0.1433 -0.1883 -0.0194
  581loPI   C4B 9296   0.238   3.440   9.030  0.3892 -0.0528  0.2124
  582loPI    C1 9297   4.831   1.758  11.377 -0.1837  0.0267 -0.0348
  582loPI    C2 9298   4.903   1.410  11.561  0.0052 -0.0659 -0.2774
  582loPI    C3 9299   4.964   1.755  11.754 -0.0054 -0.1637 -0.0973
  582loPI   PO4 9300   4.674   1.729  11.285  0.0115  0.0520 -0.2923
  582loPI   GL1 9301   4.598   1.973  10.825 -0.0450  0.0136  0.2826
  582loPI   GL2 9302   4.459   1.704  10.834  0.1880 -0.0049 -0.1122
  582loPI   C1A 9303   4.474   2.134  10.438 -0.0136  0.0088 -0.0127
  582loPI   C2A 9304   4.598   2.154  10.002  0.3098  0.1599 -0.0696
  582loPI   C3A 9305   4.631   2.133   9.520 -0.2795 -0.1759 -0.4276
  582loPI   C4A 9306   4.486   2.024   9.085 -0.2867 -0.0087 -0.0341
  582loPI   C5A 9307   4.275   1.735   8.671 -0.2645 -0.3422 -0.0184
  582loPI   C6A 9308   3.850   1.784   8.508 -0.3946  0.3127  0.1000
  582loPI   C1B 9309   4.334   1.681  10.469 -0.2157  0.0490  0.2424
  582loPI   C2B 9310   4.356   1.692  10.000 -0.1488 -0.1399  0.0585
  582loPI   C3B 9311   4.411   1.647   9.536  0.0963 -0.2084  0.0314
  582loPI   C4B 9312   4.372   1.569   9.126 -0.2269  0.0199 -0.4252
  583loPI    C1 9313   6.094   0.740  11.034  0.0840 -0.0960 -0.1321
  583loPI    C2 9314   5.916   0.866  11.369  0.3148 -0.0046 -0.0415
  583loPI    C3 9315   6.313   0.821  11.358  0.3043 -0.0535 -0.2890
  583loPI   PO4 9316   5.983   0.841  10.839  0.1622  0.1589 -0.0899
  583loPI   GL1 9317   5.740   1.120  10.556 -0.1427 -0.1868 -0.0540
  583loPI   GL2 9318   5.431   1.022  10.540 -0.1311  0.1743  0.1029
  583loPI   C1A 9319   5.619   1.306  10.183 -0.0818 -0.1321  0.4840
  583loPI   C2A 9320   5.606   1.329   9.838  0.0220  0.1265 -0.1922
  583loPI   C3A 9321   5.641   1.348   9.385  0.3451  0.2925  0.0242
  583loPI   C4A 9322   5.693   1.288   8.946 -0.0249  0.0088  0.3026
  583loPI   C5A 9323   5.683   1.279   8.543  0.1875 -0.0299 -0.1124
  583loPI   C6A 9324   5.510   0.954   8.279  0.1778 -0.0106  0.2932
  583loPI   C1B 9325   5.441   0.835  10.188 -0.0755 -0.0824 -0.0245
  583loPI   C2B 9326   5.320   0.917   9.735 -0.1455 -0.0481  0.0114
  583loPI   C3B 9327   5.453   0.812   9.247  0.0857 -0.0348  0.4020
  583loPI   C4B 9328   5.514   0.809   8.822  0.0834  0.0063 -0.0971
  584loPI    C1 9329   9.662   3.900  11.259  0.1255 -0.0760  0.1158
  584loPI    C2 9330   9.980   3.914  11.502  0.1138  0.2277  0.1169
  584loPI    C3 9331   9.612   3.878  11.655  0.1045  0.4414  0.1481
  584loPI   PO4 9332   9.632   3.787  11.052 -0.4519 -0.2256 -0.1413
  584loPI   GL1 9333   9.771   3.704  10.708 -0.0681 -0.1395 -0.2259
  584loPI   GL2 9334   9.835   4.002  10.469  0.0897 -0.3697 -0.0669
  584loPI   C1A 9335   9.673   3.494  10.312 -0.0635  0.0401  0.0955
  584loPI   C2A 9336   9.513   3.489   9.867  0.1783  0.2867 -0.0949
  584loPI   C3A 9337   9.626   3.494   9.484 -0.1607 -0.2642  0.2544
  584loPI   C4A 9338   9.698   3.652   9.080  0.1119  0.1596 -0.3588
  584loPI   C5A 9339   9.579   3.612   8.692  0.1346 -0.0517 -0.1515
  584loPI   C6A 9340   9.776   3.369   8.450 -0.1410  0.3550 -0.0813
  584loPI   C1B 9341   9.850   3.953   9.979 -0.0307  0.1292 -0.0361
  584loPI   C2B 9342   9.845   3.917   9.516  0.0350  0.0080  0.0462
  584loPI   C3B 9343   9.882   4.117   9.076 -0.0221  0.5432 -0.0205
  584loPI   C4B 9344   9.847   4.073   8.639 -0.1580  0.0908  0.0154
  585loPI    C1 9345  10.315  15.879  10.930  0.1555 -0.0204 -0.0372
  585loPI    C2 9346  10.079  15.825  11.248  0.1008 -0.0626 -0.0846
  585loPI    C3 9347  10.469  15.898  11.299  0.0849 -0.0300 -0.0071
  585loPI   PO4 9348  10.296  16.056  10.794  0.0463 -0.2351 -0.1677
  585loPI   GL1 9349  10.417  16.094  10.370  0.2259 -0.0771  0.1500
  585loPI   GL2 9350  10.463  16.404  10.484  0.2484 -0.2641 -0.2344
  585loPI   C1A 9351  10.624  15.874  10.031 -0.1801  0.1339  0.0622
  585loPI   C2A 9352  10.714  15.880   9.634 -0.2621  0.2165 -0.3613
  585loPI   C3A 9353  10.719  15.830   9.119 -0.0143  0.1325 -0.2239
  585loPI   C4A 9354  10.689  15.872   8.725  0.0411  0.5403 -0.1413
  585loPI   C5A 9355  10.516  15.969   8.303 -0.0555  0.0675  0.1242
  585loPI   C6A 9356  10.581  15.899   7.890  0.0316  0.0326 -0.2456
  585loPI   C1B 9357  10.460  16.391   9.951  0.1786  0.2021 -0.0162
  585loPI   C2B 9358  10.415  16.355   9.557 -0.0026  0.5039 -0.1063
  585loPI   C3B 9359  10.492  16.408   9.124 -0.0842 -0.0675  0.1699
  585loPI   C4B 9360  10.405  16.261   8.734 -0.1310  0.0479 -0.0727
  586loPI    C1 9361  11.763   6.691  11.300  0.1126 -0.2511 -0.1745
  586loPI    C2 9362  12.112   6.803  11.460 -0.1209  0.2022  0.0371
  586loPI    C3 9363  11.789   6.763  11.693 -0.2873  0.1060 -0.2065
  586loPI   PO4 9364  11.696   6.792  11.071  0.0567 -0.1765 -0.1270
  586loPI   GL1 9365  11.642   6.747  10.626 -0.2325  0.2135 -0.1916
  586loPI   GL2 9366  11.571   6.938  10.421  0.2531 -0.0594 -0.0142
  586loPI   C1A 9367  11.996   6.529  10.364 -0.1103 -0.0998 -0.2817
  586loPI   C2A 9368  11.932   6.452   9.976  0.1186  0.0789 -0.0587
  586loPI   C3A 9369  11.946   6.500   9.567  0.1261 -0.0718  0.2110
  586loPI   C4A 9370  11.951   6.484   9.192 -0.0917  0.0553 -0.0732
  586loPI   C5A 9371  12.016   6.542   8.746 -0.1017 -0.0845  0.0725
  586loPI   C6A 9372  11.989   6.632   8.311 -0.2739 -0.2619  0.0037
  586loPI   C1B 9373  11.699   6.914  10.078  0.0708 -0.0197 -0.0031
  586loPI   C2B 9374  11.657   6.942   9.582  0.4037  0.1086  0.0312
  586loPI   C3B 9375  11.686   6.910   9.143 -0.1797  0.0760 -0.1172
  586loPI   C4B 9376  11.710   6.961   8.735 -0.0809  0.1960 -0.3526
  587loPI    C1 9377  10.153   3.698  11.104 -0.2404  0.0303 -0.0521
  587loPI    C2 9378  10.196   3.301  11.128 -0.0659  0.0467 -0.0842
  587loPI    C3 9379  10.329   3.535  11.424 -0.0041  0.0931 -0.1481
  587loPI   PO4 9380  10.208   3.779  10.878 -0.3592  0.0962 -0.1795
  587loPI   GL1 9381  10.350   3.533  10.547 -0.1792  0.0822 -0.1689
  587loPI   GL2 9382  10.132   3.354  10.626 -0.0229 -0.4300  0.0927
  587loPI   C1A 9383  10.180   3.588  10.164  0.1459  0.0972  0.3339
  587loPI   C2A 9384  10.068   3.495   9.744 -0.0482 -0.0755 -0.3378
  587loPI   C3A 9385  10.154   3.562   9.274 -0.2556 -0.0213  0.2981
  587loPI   C4A 9386  10.121   3.682   8.780  0.0762 -0.0426  0.1049
  587loPI   C5A 9387  10.394   3.955   8.570 -0.1802 -0.2287 -0.1064
  587loPI   C6A 9388  10.477   4.320   8.544 -0.3738 -0.1012 -0.0178
  587loPI   C1B 9389  10.007   3.106  10.282  0.0175  0.0768 -0.0077
  587loPI   C2B 9390   9.994   3.028   9.808  0.0513  0.0517 -0.0812
  587loPI   C3B 9391   9.916   3.090   9.414  0.1325  0.1937  0.2895
  587loPI   C4B 9392   9.910   3.069   8.974  0.1808  0.0391  0.0622
  588loPI    C1 9393  16.905  17.326  11.351  0.2087  0.1253  0.0062
  588loPI    C2 9394  16.591  17.146  11.520  0.1717  0.1557 -0.0300
  588loPI    C3 9395  16.931  17.190  11.726  0.0516  0.4014  0.1200
  588loPI   PO4 9396  16.896  17.257  11.057  0.5306 -0.1589  0.2480
  588loPI   GL1 9397  16.762  17.057  10.661  0.0678  0.1629  0.1526
  588loPI   GL2 9398  17.127  16.976  10.449  0.0751  0.0084  0.2733
  588loPI   C1A 9399  16.652  16.954  10.182 -0.2239 -0.3087 -0.0475
  588loPI   C2A 9400  16.616  16.859   9.677 -0.0297  0.0052 -0.1638
  588loPI   C3A 9401  16.561  17.062   9.308  0.1248 -0.1913 -0.0818
  588loPI   C4A 9402  16.647  17.000   8.853 -0.1088 -0.2068  0.0387
  588loPI   C5A 9403  17.003  16.931   8.535  0.0235  0.2365  0.0768
  588loPI   C6A 9404  17.268  16.867   8.255  0.0296  0.0830 -0.4909
  588loPI   C1B 9405  17.125  17.033  10.097  0.2407  0.1628 -0.3442
  588loPI   C2B 9406  17.134  16.988   9.692 -0.2194 -0.0793 -0.0444
  588loPI   C3B 9407  17.263  17.045   9.311  0.1976 -0.0615  0.2381
  588loPI   C4B 9408  17.187  17.148   8.908  0.1733  0.0646  0.2294
  589loPI    C1 9409   5.049  14.915  11.422  0.0222  0.2482  0.0210
  589loPI    C2 9410   4.820  15.062  11.715  0.1675 -0.2052  0.3740
  589loPI    C3 9411   5.160  14.871  11.804  0.2798 -0.2397 -0.1017
  589loPI   PO4 9412   4.845  14.840  11.240  0.0555  0.0632 -0.1021
  589loPI   GL1 9413   4.769  14.649  10.866  0.4466 -0.1123 -0.3886
  589loPI   GL2 9414   4.878  14.803  10.673  0.3079  0.0041  0.0276
  589loPI   C1A 9415   4.555  14.319  10.532  0.3969  0.3765  0.0933
  589loPI   C2A 9416   4.483  14.321  10.093 -0.0039  0.2428 -0.1899
  589loPI   C3A 9417   4.546  14.385   9.705 -0.0531  0.0263  0.1252
  589loPI   C4A 9418   4.680  14.364   9.228 -0.1687 -0.0542  0.2117
  589loPI   C5A 9419   4.713  14.361   8.808  0.2104  0.0977 -0.3534
  589loPI   C6A 9420   4.641  14.070   8.417  0.1874 -0.0629  0.0277
  589loPI   C1B 9421   4.738  14.777  10.298 -0.0626  0.0435 -0.1838
  589loPI   C2B 9422   4.737  14.839   9.908 -0.0778  0.1699 -0.2730
  589loPI   C3B 9423   4.839  14.747   9.501  0.0990 -0.0953  0.1532
  589loPI   C4B 9424   4.827  14.852   9.092 -0.2738 -0.1717 -0.0593
  590loPI    C1 9425   2.385   9.529  11.305 -0.0828  0.1748 -0.2336
  590loPI    C2 9426   2.778   9.544  11.229 -0.0696  0.1137 -0.1782
  590loPI    C3 9427   2.638   9.671  11.581 -0.0499 -0.2646 -0.0293
  590loPI   PO4 9428   2.251   9.352  11.114  0.1350 -0.0897 -0.1147
  590loPI   GL1 9429   2.113   9.209  10.832 -0.0936 -0.0654 -0.0956
  590loPI   GL2 9430   2.312   9.393  10.649 -0.1426  0.2146  0.3258
  590loPI   C1A 9431   1.788   9.202  10.468 -0.0378  0.0042 -0.0427
  590loPI   C2A 9432   1.783   9.216  10.092 -0.0381 -0.0119 -0.0130
  590loPI   C3A 9433   1.820   9.085   9.641  0.1649 -0.0157 -0.2166
  590loPI   C4A 9434   1.755   9.092   9.254 -0.0915 -0.4614  0.0947
  590loPI   C5A 9435   1.750   9.265   8.741  0.1186 -0.2978 -0.1822
  590loPI   C6A 9436   1.744   9.210   8.343 -0.0746 -0.0254  0.2144
  590loPI   C1B 9437   2.294   9.261  10.228 -0.0614 -0.0835  0.2811
  590loPI   C2B 9438   2.349   9.174   9.723 -0.1620  0.2679  0.0910
  590loPI   C3B 9439   2.250   9.186   9.316  0.1490  0.1156  0.0271
  590loPI   C4B 9440   2.235   9.164   8.968 -0.1695 -0.1225 -0.2186
  591loPI    C1 9441   2.531  17.278  10.971 -0.0809  0.0609 -0.0739
  591loPI    C2 9442   2.280  17.395  10.682 -0.1659 -0.0975 -0.0654
  591loPI    C3 9443   2.256  17.558  11.047 -0.2291 -0.0827 -0.0761
  591loPI   PO4 9444   2.741  17.245  10.786  0.0084  0.1191  0.1304
  591loPI   GL1 9445   3.132  17.369  10.600  0.3426 -0.0162 -0.0798
  591loPI   GL2 9446   3.176  17.645  10.676 -0.0025  0.1163  0.0873
  591loPI   C1A 9447   3.101  17.421  10.184 -0.1267  0.1667  0.1908
  591loPI   C2A 9448   2.947  17.413   9.811 -0.2318  0.0726 -0.3207
  591loPI   C3A 9449   3.062  17.435   9.443  0.1066  0.0564 -0.3831
  591loPI   C4A 9450   2.944  17.399   9.061 -0.2144  0.3147  0.2106
  591loPI   C5A 9451   3.125  17.305   8.609 -0.1066 -0.0211  0.0467
  591loPI   C6A 9452   3.681  17.268   8.515  0.3047 -0.2946  0.3446
  591loPI   C1B 9453   3.206  17.910  10.378 -0.2696 -0.1821  0.0110
  591loPI   C2B 9454   3.132  17.893  10.060  0.0804 -0.2101  0.3718
  591loPI   C3B 9455   3.189  17.869   9.573 -0.0233  0.1108 -0.0978
  591loPI   C4B 9456   3.186  17.946   9.156  0.1000  0.1513 -0.2492
  592loPI    C1 9457   1.067   7.777  11.103  0.0090  0.0146  0.1293
  592loPI    C2 9458   0.944   8.148  11.019 -0.1523 -0.0391  0.1236
  592loPI    C3 9459   0.799   7.957  11.338 -0.1378 -0.1311  0.0757
  592loPI   PO4 9460   1.129   7.704  10.854 -0.2151 -0.1075 -0.1160
  592loPI   GL1 9461   1.200   7.474  10.485 -0.3703  0.0196  0.0291
  592loPI   GL2 9462   1.164   7.276  10.524  0.0590 -0.0062  0.2326
  592loPI   C1A 9463   1.264   7.696  10.156  0.1787  0.2964  0.1534
  592loPI   C2A 9464   1.292   7.714   9.711  0.1158 -0.0435  0.0476
  592loPI   C3A 9465   1.158   7.776   9.331  0.0613  0.0569  0.2490
  592loPI   C4A 9466   1.009   7.757   8.915 -0.1588  0.0928  0.0477
  592loPI   C5A 9467   1.011   7.976   8.533 -0.1029  0.1541 -0.3738
  592loPI   C6A 9468   0.882   8.164   8.002 -0.0101  0.1841  0.0527
  592loPI   C1B 9469   1.045   7.203  10.013  0.0454  0.0153 -0.2030
  592loPI   C2B 9470   0.997   7.317   9.519 -0.2074  0.1473 -0.1098
  592loPI   C3B 9471   0.941   7.195   9.165 -0.1511  0.0133 -0.3157
  592loPI   C4B 9472   1.245   7.264   8.812 -0.1592 -0.0627  0.1638
  593loPI    C1 9473   7.703  11.925  11.254  0.1061 -0.0555 -0.1622
  593loPI    C2 9474   7.565  12.279  11.378  0.1293 -0.0897 -0.0374
  593loPI    C3 9475   7.317  11.965  11.351  0.1457 -0.1080  0.0219
  593loPI   PO4 9476   7.827  11.970  11.050 -0.3185 -0.1851 -0.0350
  593loPI   GL1 9477   7.771  11.926  10.580  0.1534  0.0304 -0.3703
  593loPI   GL2 9478   7.538  12.037  10.390  0.0719  0.1839 -0.4050
  593loPI   C1A 9479   7.823  11.550  10.325 -0.0082  0.1571  0.0407
  593loPI   C2A 9480   7.870  11.483   9.913 -0.0683 -0.1821 -0.3816
  593loPI   C3A 9481   7.704  11.515   9.531  0.0356  0.1756 -0.1236
  593loPI   C4A 9482   7.793  11.466   9.019 -0.0082 -0.1642  0.0434
  593loPI   C5A 9483   7.819  11.461   8.630  0.2217 -0.1632 -0.1170
  593loPI   C6A 9484   8.082  11.577   8.334 -0.1970 -0.1118  0.3001
  593loPI   C1B 9485   7.696  12.387  10.186  0.0964  0.2704  0.1766
  593loPI   C2B 9486   7.727  12.393   9.802 -0.1753  0.1916 -0.0902
  593loPI   C3B 9487   7.689  12.385   9.400  0.1657  0.1853 -0.1409
  593loPI   C4B 9488   7.637  12.348   9.002 -0.2290  0.4253 -0.1424
  594loPI    C1 9489  10.977  11.561  11.195 -0.0089  0.0161 -0.1244
  594loPI    C2 9490  10.669  11.580  11.450  0.0670  0.1092 -0.0384
  594loPI    C3 9491  11.044  11.585  11.589  0.1083  0.0670 -0.1471
  594loPI   PO4 9492  10.830  11.715  10.956 -0.0419  0.0897  0.0644
  594loPI   GL1 9493  10.913  11.711  10.567 -0.0404 -0.0407 -0.1256
  594loPI   GL2 9494  11.162  11.760  10.502  0.1576  0.4456 -0.2204
  594loPI   C1A 9495  10.922  11.856  10.090 -0.0210 -0.0853 -0.1361
  594loPI   C2A 9496  10.849  11.869   9.649  0.0371  0.1119 -0.0386
  594loPI   C3A 9497  10.859  11.790   9.201 -0.0966  0.0840  0.1087
  594loPI   C4A 9498  10.783  11.674   8.731 -0.2096  0.3842 -0.0176
  594loPI   C5A 9499  11.117  11.830   8.412  0.2834  0.0393  0.2030
  594loPI   C6A 9500  11.360  11.907   7.979 -0.0107  0.0642  0.0961
  594loPI   C1B 9501  11.412  11.853  10.229 -0.0652 -0.1759 -0.3068
  594loPI   C2B 9502  11.384  11.944   9.821 -0.0151 -0.0582  0.1229
  594loPI   C3B 9503  11.383  11.844   9.404 -0.0086 -0.0615 -0.2526
  594loPI   C4B 9504  11.331  11.805   8.920 -0.1916  0.0264  0.1161
  595loPI    C1 9505  11.269   6.641  11.419 -0.0845  0.0842 -0.2066
  595loPI    C2 9506  11.034   6.340  11.301  0.0714 -0.1215 -0.0015
  595loPI    C3 9507  11.414   6.269  11.403  0.1533  0.1699 -0.0927
  595loPI   PO4 9508  11.167   6.811  11.121  0.1855  0.0478  0.0486
  595loPI   GL1 9509  11.136   6.841  10.660  0.3902 -0.2363 -0.0308
  595loPI   GL2 9510  10.859   6.762  10.470  0.2436  0.3288 -0.0830
  595loPI   C1A 9511  11.118   6.880  10.132 -0.2083 -0.0840 -0.0288
  595loPI   C2A 9512  11.219   6.867   9.733  0.0483  0.0311 -0.0882
  595loPI   C3A 9513  11.149   6.862   9.349  0.0011 -0.2278 -0.1596
  595loPI   C4A 9514  11.160   6.993   8.879 -0.1354  0.3257 -0.0735
  595loPI   C5A 9515  11.231   6.944   8.481  0.2654  0.3327  0.3250
  595loPI   C6A 9516  11.483   7.156   8.176 -0.2738 -0.0216 -0.2599
  595loPI   C1B 9517  10.677   6.766   9.984 -0.1130 -0.1203  0.1678
  595loPI   C2B 9518  10.609   6.879   9.507  0.1101 -0.2170 -0.4360
  595loPI   C3B 9519  10.723   6.909   9.118 -0.0704 -0.0254  0.0448
  595loPI   C4B 9520  10.633   6.865   8.780  0.1179  0.0904 -0.2540
  596loPI    C1 9521  13.271   3.556  10.999 -0.0830  0.0590  0.0402
  596loPI    C2 9522  13.176   3.284  11.276 -0.0491  0.0286  0.0220
  596loPI    C3 9523  13.177   3.673  11.370 -0.1246  0.0245  0.0406
  596loPI   PO4 9524  13.307   3.409  10.814 -0.6196  0.2661  0.1373
  596loPI   GL1 9525  13.404   3.606  10.444  0.0191 -0.0183 -0.2748
  596loPI   GL2 9526  13.134   3.846  10.477 -0.1120 -0.0641 -0.2906
  596loPI   C1A 9527  13.629   3.493  10.090 -0.0210 -0.1411  0.1368
  596loPI   C2A 9528  13.589   3.445   9.602 -0.2176  0.1325 -0.0268
  596loPI   C3A 9529  13.513   3.406   9.153  0.1030 -0.0120  0.0255
  596loPI   C4A 9530  13.493   3.618   8.807  0.1769 -0.0051 -0.3706
  596loPI   C5A 9531  13.306   3.595   8.409 -0.3119 -0.0815  0.0422
  596loPI   C6A 9532  13.083   3.400   8.060 -0.1071  0.1431 -0.2330
  596loPI   C1B 9533  13.154   3.892  10.058 -0.0387 -0.1806 -0.3057
  596loPI   C2B 9534  13.248   3.842   9.713  0.3209  0.2393 -0.0458
  596loPI   C3B 9535  13.292   3.886   9.312 -0.0537  0.0506 -0.0396
  596loPI   C4B 9536  13.202   4.029   8.885  0.3308  0.1198 -0.0299
  597loPI    C1 9537   5.584   4.618  11.218 -0.2032 -0.2011 -0.0253
  597loPI    C2 9538   5.383   4.815  11.502 -0.0962 -0.0519 -0.0524
  597loPI    C3 9539   5.671   4.558  11.603  0.0263  0.0937 -0.0282
  597loPI   PO4 9540   5.370   4.532  11.057 -0.0901  0.2795  0.0156
  597loPI   GL1 9541   5.517   4.434  10.698  0.1175 -0.0994  0.1733
  597loPI   GL2 9542   5.743   4.530  10.438  0.0204  0.0504 -0.0794
  597loPI   C1A 9543   5.250   4.456  10.336  0.2338 -0.1947  0.2516
  597loPI   C2A 9544   5.122   4.448   9.972 -0.1870  0.1799 -0.1224
  597loPI   C3A 9545   5.199   4.419   9.537  0.2431  0.1350 -0.2056
  597loPI   C4A 9546   5.090   4.471   9.031  0.0644 -0.1329 -0.2565
  597loPI   C5A 9547   4.948   4.467   8.662 -0.0922 -0.0066  0.1375
  597loPI   C6A 9548   4.555   4.249   8.571  0.2201 -0.1206 -0.3538
  597loPI   C1B 9549   5.699   4.462  10.013 -0.2486 -0.0658 -0.0805
  597loPI   C2B 9550   5.701   4.441   9.515  0.0025  0.1895  0.0373
  597loPI   C3B 9551   5.628   4.521   9.047  0.1794 -0.1963  0.1322
  597loPI   C4B 9552   5.458   4.432   8.669 -0.1413 -0.1046  0.0259
  598loPI    C1 9553  16.316  13.044  11.090  0.0671  0.0113  0.2342
  598loPI    C2 9554  16.532  13.307  11.300  0.1110 -0.0346  0.2466
  598loPI    C3 9555  16.156  13.223  11.409  0.0963  0.0248  0.2413
  598loPI   PO4 9556  16.443  13.119  10.806  0.1714  0.1027  0.3485
  598loPI   GL1 9557  16.611  13.489  10.489  0.0439 -0.1788 -0.1438
  598loPI   GL2 9558  16.562  13.329  10.190 -0.3019 -0.1465  0.0560
  598loPI   C1A 9559  16.673  13.794  10.236 -0.1788  0.2945 -0.0228
  598loPI   C2A 9560  16.633  13.906   9.693  0.1916  0.1656 -0.1609
  598loPI   C3A 9561  16.574  13.851   9.293 -0.0980  0.1330 -0.2324
  598loPI   C4A 9562  16.553  13.896   8.903 -0.0650  0.0028 -0.1105
  598loPI   C5A 9563  16.555  13.758   8.503 -0.1558 -0.1702  0.0038
  598loPI   C6A 9564  16.388  13.980   8.055  0.2615 -0.1361 -0.0691
  598loPI   C1B 9565  16.403  13.443   9.919 -0.1080  0.0033  0.0554
  598loPI   C2B 9566  16.432  13.409   9.515 -0.1306 -0.2688  0.1270
  598loPI   C3B 9567  16.392  13.430   9.087 -0.0412 -0.0711  0.0876
  598loPI   C4B 9568  16.377  13.289   8.708 -0.0255  0.0469 -0.1183
  599loPI    C1 9569   0.840   6.399  11.105 -0.1113  0.0722  0.1180
  599loPI    C2 9570   0.794   6.668  11.397 -0.0662 -0.0217  0.2117
  599loPI    C3 9571   0.475   6.481  11.246 -0.0848 -0.0078  0.2337
  599loPI   PO4 9572   1.048   6.258  11.099 -0.0403  0.2929 -0.1475
  599loPI   GL1 9573   1.267   6.072  10.733 -0.1666  0.0918 -0.0722
  599loPI   GL2 9574   1.516   6.236  10.691 -0.1154 -0.1220  0.1182
  599loPI   C1A 9575   1.408   5.827  10.299 -0.1052 -0.0274  0.1139
  599loPI   C2A 9576   1.382   5.831   9.900  0.1844 -0.3886 -0.3748
  599loPI   C3A 9577   1.344   5.878   9.436 -0.3195  0.1133  0.0989
  599loPI   C4A 9578   1.343   5.768   9.004  0.3854 -0.0448 -0.0328
  599loPI   C5A 9579   1.382   5.671   8.475 -0.3285 -0.0814 -0.1013
  599loPI   C6A 9580   1.729   5.630   8.310 -0.1656  0.0204  0.1887
  599loPI   C1B 9581   1.554   6.402  10.312 -0.0694  0.1124  0.2061
  599loPI   C2B 9582   1.630   6.310   9.872  0.0409  0.2978 -0.0865
  599loPI   C3B 9583   1.595   6.354   9.434  0.3013  0.0977  0.0679
  599loPI   C4B 9584   1.527   6.354   8.976 -0.0032 -0.0364  0.2426
  600loPI    C1 9585   0.572  16.900  11.268 -0.1263  0.0650 -0.1418
  600loPI    C2 9586   0.381  16.970  11.613  0.0094  0.0265 -0.0583
  600loPI    C3 9587   0.752  17.110  11.557  0.0653 -0.1395 -0.1098
  600loPI   PO4 9588   0.419  16.661  11.187 -0.0139  0.0360 -0.1925
  600loPI   GL1 9589   0.436  16.549  10.837 -0.1680 -0.0999  0.2359
  600loPI   GL2 9590   0.428  16.985  10.804 -0.0545 -0.0971  0.0595
  600loPI   C1A 9591   0.502  16.226  10.445  0.2417  0.0742  0.0819
  600loPI   C2A 9592   0.486  16.248   9.895  0.1866 -0.0215 -0.2893
  600loPI   C3A 9593   0.548  16.262   9.413  0.0593 -0.0818 -0.2921
  600loPI   C4A 9594   0.595  16.331   9.013  0.0352 -0.1605 -0.0079
  600loPI   C5A 9595   0.559  16.355   8.571 -0.0404 -0.0576  0.1825
  600loPI   C6A 9596   0.706  16.372   8.181 -0.0748 -0.0354  0.0379
  600loPI   C1B 9597   0.460  17.201  10.346  0.2417 -0.2236 -0.1858
  600loPI   C2B 9598   0.365  17.232   9.850 -0.0475  0.1538 -0.1301
  600loPI   C3B 9599   0.417  17.214   9.362 -0.1038  0.4525  0.2761
  600loPI   C4B 9600   0.505  17.082   9.015 -0.1678  0.2161  0.1111
  601loPI    C1 9601  12.875   7.450  11.011  0.1752 -0.1775 -0.1748
  601loPI    C2 9602  12.980   7.792  11.191  0.0920 -0.1266 -0.2221
  601loPI    C3 9603  13.258   7.518  11.102  0.1575 -0.0756 -0.1749
  601loPI   PO4 9604  12.773   7.530  10.827  0.0982 -0.2892  0.2483
  601loPI   GL1 9605  12.940   7.655  10.488  0.2422  0.1640 -0.1432
  601loPI   GL2 9606  13.026   7.489  10.244 -0.0408  0.1277  0.3480
  601loPI   C1A 9607  12.637   7.879  10.121  0.1244  0.0446  0.3571
  601loPI   C2A 9608  12.611   7.876   9.730  0.0993 -0.2288 -0.1695
  601loPI   C3A 9609  12.519   7.899   9.288 -0.0911 -0.2681 -0.2317
  601loPI   C4A 9610  12.501   8.007   8.805 -0.0528  0.1983  0.0391
  601loPI   C5A 9611  12.374   7.990   8.435  0.1443 -0.0618  0.0296
  601loPI   C6A 9612  12.304   7.697   8.230  0.0020 -0.0498  0.0512
  601loPI   C1B 9613  12.872   7.453   9.827 -0.2053  0.0509  0.4745
  601loPI   C2B 9614  12.918   7.498   9.359 -0.2420 -0.3778  0.1486
  601loPI   C3B 9615  12.864   7.553   8.888  0.3695 -0.0002  0.1064
  601loPI   C4B 9616  12.742   7.416   8.469 -0.3822 -0.2674 -0.0231
  602loPI    C1 9617  14.830   4.674  11.235 -0.1487  0.1083 -0.0565
  602loPI    C2 9618  14.711   4.292  11.238 -0.0621  0.0814 -0.0155
  602loPI    C3 9619  14.941   4.432  11.534 -0.1885  0.1960  0.0296
  602loPI   PO4 9620  14.715   4.807  10.994  0.0569  0.3480 -0.0312
  602loPI   GL1 9621  14.744   4.836  10.592 -0.0006 -0.0375 -0.0527
  602loPI   GL2 9622  15.038   5.039  10.489  0.0682  0.3215  0.2010
  602loPI   C1A 9623  14.694   4.953  10.117  0.1491 -0.0662  0.2695
  602loPI   C2A 9624  14.676   4.969   9.641  0.1820 -0.4049  0.0008
  602loPI   C3A 9625  14.664   5.052   9.248 -0.1375 -0.2272  0.0329
  602loPI   C4A 9626  14.691   4.909   8.785  0.1129  0.3686 -0.0599
  602loPI   C5A 9627  14.854   4.963   8.308 -0.0484  0.2027 -0.0074
  602loPI   C6A 9628  15.260   4.985   8.297 -0.0637 -0.3269 -0.0418
  602loPI   C1B 9629  15.263   4.942  10.091 -0.2196  0.1791 -0.1910
  602loPI   C2B 9630  15.137   5.083   9.722 -0.2138  0.2100  0.0786
  602loPI   C3B 9631  15.147   5.163   9.252  0.0154  0.5043  0.2165
  602loPI   C4B 9632  15.178   5.071   8.814 -0.6273 -0.0359 -0.0963
  603loPI    C1 9633   1.265  11.752  11.223  0.3106 -0.1432 -0.3570
  603loPI    C2 9634   1.462  12.074  11.353  0.0313 -0.0507 -0.1523
  603loPI    C3 9635   1.422  11.755  11.591  0.0320 -0.1130 -0.2354
  603loPI   PO4 9636   1.344  11.708  10.954  0.1787  0.2983 -0.1442
  603loPI   GL1 9637   1.088  11.887  10.663  0.1736  0.0682 -0.3570
  603loPI   GL2 9638   1.414  11.903  10.369  0.0939 -0.3178 -0.1364
  603loPI   C1A 9639   0.961  11.822  10.258 -0.1253 -0.1900  0.2615
  603loPI   C2A 9640   0.881  11.781   9.884 -0.1178  0.0539  0.1636
  603loPI   C3A 9641   0.873  11.783   9.445 -0.5082 -0.1602 -0.0320
  603loPI   C4A 9642   0.865  11.822   8.941 -0.0417 -0.0231 -0.0043
  603loPI   C5A 9643   0.996  11.857   8.558 -0.4207 -0.1196  0.2316
  603loPI   C6A 9644   1.001  12.150   8.184 -0.0346 -0.2525 -0.1856
  603loPI   C1B 9645   1.423  11.848   9.884  0.1312 -0.0328 -0.0217
  603loPI   C2B 9646   1.484  11.751   9.504  0.4857  0.1721  0.1214
  603loPI   C3B 9647   1.376  11.889   9.093 -0.1002 -0.0737  0.2157
  603loPI   C4B 9648   1.497  11.724   8.696  0.0274 -0.2301 -0.1541
  604loPI    C1 9649  10.223  13.674  11.213  0.0084 -0.0022  0.2370
  604loPI    C2 9650  10.191  14.052  11.087  0.3482  0.0031  0.1594
  604loPI    C3 9651   9.970  13.925  11.395 -0.0375  0.1607 -0.0459
  604loPI   PO4 9652  10.186  13.512  10.944  0.1789  0.2848  0.0785
  604loPI   GL1 9653  10.375  13.297  10.693  0.0093 -0.0647  0.1392
  604loPI   GL2 9654  10.609  13.564  10.761 -0.0121  0.3224 -0.1805
  604loPI   C1A 9655  10.525  13.128  10.329  0.2226  0.3440 -0.1760
  604loPI   C2A 9656  10.519  13.152   9.925 -0.1036 -0.3388 -0.1491
  604loPI   C3A 9657  10.516  13.109   9.465 -0.0974  0.0512  0.0147
  604loPI   C4A 9658  10.511  13.104   9.046  0.3828 -0.0656 -0.0070
  604loPI   C5A 9659  10.507  13.331   8.595  0.0058 -0.0565  0.0860
  604loPI   C6A 9660  10.772  13.318   8.203 -0.0100  0.0396 -0.3458
  604loPI   C1B 9661  10.750  13.614  10.410 -0.0891  0.2071 -0.1001
  604loPI   C2B 9662  10.705  13.589  10.009  0.0470 -0.2561  0.1910
  604loPI   C3B 9663  10.755  13.648   9.594  0.0104  0.2204 -0.0423
  604loPI   C4B 9664  10.765  13.520   9.129  0.4513  0.0036  0.0732
  605loPI    C1 9665   6.856  13.700  11.422  0.0974 -0.0356 -0.0670
  605loPI    C2 9666   6.945  14.047  11.246 -0.0190 -0.0126 -0.0813
  605loPI    C3 9667   6.952  14.018  11.645 -0.0333  0.0126 -0.0791
  605loPI   PO4 9668   6.844  13.523  11.160 -0.0638 -0.1374 -0.0416
  605loPI   GL1 9669   7.105  13.684  10.937  0.3131  0.0775  0.2417
  605loPI   GL2 9670   7.313  13.911  10.853  0.2236  0.0821 -0.1230
  605loPI   C1A 9671   7.106  13.567  10.506  0.2299  0.0732  0.1189
  605loPI   C2A 9672   7.254  13.686  10.107 -0.0164 -0.0598  0.0280
  605loPI   C3A 9673   7.316  13.655   9.646  0.0980 -0.0075 -0.0049
  605loPI   C4A 9674   7.316  13.687   9.235 -0.2020  0.0031 -0.4429
  605loPI   C5A 9675   7.190  13.691   8.823  0.0311  0.1433 -0.0603
  605loPI   C6A 9676   6.788  13.824   8.577 -0.3081  0.0367  0.1111
  605loPI   C1B 9677   7.446  14.172  10.346  0.1497  0.1215 -0.3499
  605loPI   C2B 9678   7.553  14.118   9.930  0.2859  0.1994 -0.0138
  605loPI   C3B 9679   7.469  14.127   9.523 -0.0081 -0.0245  0.1026
  605loPI   C4B 9680   7.461  14.150   9.032  0.1612 -0.2639  0.0041
  606loPI    C1 9681   9.064   1.472  11.082  0.0849 -0.1640  0.0949
  606loPI    C2 9682   9.234   1.688  11.372  0.0737 -0.0221 -0.0034
  606loPI    C3 9683   8.850   1.582  11.401  0.0719 -0.0059  0.0324
  606loPI   PO4 9684   9.175   1.321  10.882 -0.1572  0.2539 -0.1320
  606loPI   GL1 9685   9.270   1.373  10.509 -0.1426  0.2740  0.3901
  606loPI   GL2 9686   9.612   1.475  10.607 -0.0045  0.0653 -0.0628
  606loPI   C1A 9687   9.118   1.286  10.114  0.1946 -0.0305  0.2692
  606loPI   C2A 9688   9.069   1.326   9.656  0.0612  0.1893 -0.0009
  606loPI   C3A 9689   9.020   1.186   9.220  0.2635 -0.0232 -0.3191
  606loPI   C4A 9690   9.053   1.122   8.801  0.1548 -0.0297 -0.2969
  606loPI   C5A 9691   9.259   0.889   8.512  0.0598  0.3540  0.0112
  606loPI   C6A 9692   9.689   0.794   8.506 -0.0468  0.1306 -0.0410
  606loPI   C1B 9693   9.624   1.286  10.063 -0.2750  0.2761  0.0410
  606loPI   C2B 9694   9.713   1.290   9.580 -0.1090 -0.0350 -0.3498
  606loPI   C3B 9695   9.547   1.223   9.214 -0.1231 -0.1394  0.2548
  606loPI   C4B 9696   9.565   1.187   8.791 -0.1257 -0.0489  0.0363
  607loPI    C1 9697  11.837  11.804  11.195  0.0001  0.0305 -0.0131
  607loPI    C2 9698  11.485  11.756  11.380  0.0501  0.0059  0.0763
  607loPI    C3 9699  11.825  11.742  11.590  0.1079 -0.0287 -0.0187
  607loPI   PO4 9700  11.902  11.673  10.978  0.3853  0.1813  0.3611
  607loPI   GL1 9701  11.858  11.753  10.512  0.2464 -0.3159 -0.2458
  607loPI   GL2 9702  11.682  11.516  10.547 -0.3758  0.2440  0.1257
  607loPI   C1A 9703  11.952  12.006  10.189  0.3067 -0.5482  0.1627
  607loPI   C2A 9704  11.891  11.964   9.782 -0.0101  0.0752  0.1305
  607loPI   C3A 9705  11.871  11.913   9.393 -0.1153 -0.1881 -0.0099
  607loPI   C4A 9706  11.843  11.910   8.922  0.0001  0.0683  0.2511
  607loPI   C5A 9707  11.721  11.985   8.574  0.0779 -0.0820 -0.3687
  607loPI   C6A 9708  11.410  12.228   8.350  0.1929 -0.2190 -0.0059
  607loPI   C1B 9709  11.772  11.492  10.076  0.2337  0.2806 -0.3167
  607loPI   C2B 9710  11.660  11.499   9.668 -0.0800  0.2051 -0.1360
  607loPI   C3B 9711  11.576  11.416   9.213  0.1352  0.3094 -0.1855
  607loPI   C4B 9712  11.617  11.363   8.844  0.1535  0.3758  0.2317
  608loPI    C1 9713   8.963  13.980  11.192 -0.1153  0.1229  0.3216
  608loPI    C2 9714   8.955  13.606  11.334  0.0131  0.0113  0.0419
  608loPI    C3 9715   8.613  13.794  11.247 -0.0390 -0.2478 -0.3386
  608loPI   PO4 9716   9.185  13.937  11.011  0.2221 -0.2798 -0.0386
  608loPI   GL1 9717   9.325  13.777  10.652  0.0546  0.0782 -0.1221
  608loPI   GL2 9718   9.218  13.569  10.576  0.1763 -0.3452 -0.2631
  608loPI   C1A 9719   9.358  13.897  10.186 -0.0301 -0.1614  0.0314
  608loPI   C2A 9720   9.382  13.916   9.730 -0.1622 -0.0575 -0.1572
  608loPI   C3A 9721   9.366  13.900   9.276 -0.3314 -0.3847  0.0236
  608loPI   C4A 9722   9.287  13.902   8.805  0.1514  0.0244  0.0091
  608loPI   C5A 9723   9.107  13.804   8.455 -0.1998 -0.0446 -0.1182
  608loPI   C6A 9724   8.892  13.400   8.167  0.1807  0.3242 -0.0362
  608loPI   C1B 9725   9.210  13.446  10.149 -0.0937  0.1615 -0.0145
  608loPI   C2B 9726   9.288  13.441   9.677 -0.1181  0.5204 -0.2561
  608loPI   C3B 9727   9.131  13.465   9.289 -0.0337 -0.2471  0.2222
  608loPI   C4B 9728   9.159  13.395   8.838  0.1657 -0.2728  0.0638
  609POPI    C1 9729  11.044  17.672  11.354 -0.0147 -0.1056 -0.1122
  609POPI    C2 9730  10.695  17.705  11.161 -0.1297 -0.0751  0.0975
  609POPI    C3 9731  10.824  18.005  11.392  0.0042 -0.1126  0.0720
  609POPI   PO4 9732  11.213  17.633  11.131  0.0635 -0.0182 -0.1170
  609POPI   GL1 9733  11.276  17.682  10.672  0.1242  0.1361 -0.1413
  609POPI   GL2 9734  11.008  17.597  10.575 -0.0775 -0.0673 -0.1220
  609POPI   C1A 9735  11.530  17.807  10.385  0.1107  0.0676 -0.1180
  609POPI   D2A 9736  11.678  17.856   9.897  0.0178  0.1263 -0.1561
  609POPI   C3A 9737  11.609  17.765   9.494  0.0486  0.0547 -0.1759
  609POPI   C4A 9738  11.593  17.822   9.035  0.1917 -0.0925  0.1257
  609POPI   C1B 9739  11.027  17.800  10.145 -0.3974  0.2246 -0.1562
  609POPI   C2B 9740  11.149  17.786   9.699  0.4835 -0.1786  0.0765
  609POPI   C3B 9741  11.096  17.712   9.280 -0.0486 -0.0066 -0.1327
  609POPI   C4B 9742  10.994  17.799   8.857 -0.1225 -0.4210  0.3572
  610POPI    C1 9743   5.008  15.244  10.976  0.0626  0.0683  0.0155
  610POPI    C2 9744   4.768  15.519  11.140 -0.2177 -0.2242  0.1050
  610POPI    C3 9745   5.100  15.404  11.331 -0.1981 -0.0866  0.1552
  610POPI   PO4 9746   5.024  15.262  10.784 -0.1386  0.0761 -0.1566
  610POPI   GL1 9747   4.939  15.256  10.395  0.2414 -0.1567 -0.2367
  610POPI   GL2 9748   4.578  15.210  10.287  0.1251 -0.3502  0.3550
  610POPI   C1A 9749   5.011  15.322   9.926  0.2644  0.1809  0.1641
  610POPI   D2A 9750   5.040  15.268   9.471  0.0032 -0.0653 -0.0648
  610POPI   C3A 9751   5.055  15.303   9.038 -0.2225 -0.2500  0.2256
  610POPI   C4A 9752   5.142  15.089   8.659 -0.0242  0.4173  0.1930
  610POPI   C1B 9753   4.473  15.259   9.969  0.0317 -0.1165  0.2602
  610POPI   C2B 9754   4.532  15.169   9.533 -0.2247  0.1752 -0.1513
  610POPI   C3B 9755   4.555  15.261   9.076 -0.3605  0.2019  0.0031
  610POPI   C4B 9756   4.614  15.152   8.666 -0.1360 -0.1699 -0.0675
  611POPI    C1 9757   8.887  12.219  10.992 -0.0569 -0.0481 -0.0053
  611POPI    C2 9758   8.989  12.406  11.331 -0.2173 -0.0422  0.0407
  611POPI    C3 9759   8.797  12.056  11.347  0.0803 -0.2129 -0.0448
  611POPI   PO4 9760   9.108  12.296  10.856  0.2613 -0.0998  0.1693
  611POPI   GL1 9761   9.179  12.571  10.482  0.0548  0.2210 -0.1321
  611POPI   GL2 9762   8.805  12.477  10.501  0.1043  0.1453  0.2474
  611POPI   C1A 9763   9.282  12.623  10.063 -0.2147 -0.1881 -0.1767
  611POPI   D2A 9764   9.293  12.536   9.662 -0.1199 -0.4357 -0.2622
  611POPI   C3A 9765   9.186  12.621   9.308 -0.0896 -0.2243 -0.2248
  611POPI   C4A 9766   9.098  12.486   8.832  0.0122 -0.1967  0.2140
  611POPI   C1B 9767   8.831  12.526   9.956  0.1652  0.0218  0.0573
  611POPI   C2B 9768   8.767  12.526   9.548  0.1362 -0.0018 -0.0020
  611POPI   C3B 9769   8.681  12.502   9.123  0.1248  0.0324 -0.0927
  611POPI   C4B 9770   8.532  12.536   8.700 -0.0900  0.0455 -0.0683
  612POPI    C1 9771   7.241  16.421  11.049  0.0545  0.0150 -0.0128
  612POPI    C2 9772   7.162  16.578  11.408 -0.2167 -0.1497  0.0022
  612POPI    C3 9773   7.375  16.241  11.380 -0.0551 -0.0484 -0.0026
  612POPI   PO4 9774   7.071  16.379  10.874  0.2801 -0.2925 -0.0228
  612POPI   GL1 9775   6.888  16.594  10.648 -0.2453 -0.1039  0.0369
  612POPI   GL2 9776   6.829  16.909  10.523  0.0360 -0.1350 -0.3481
  612POPI   C1A 9777   6.965  16.486  10.255 -0.0893  0.2387  0.0583
  612POPI   D2A 9778   7.085  16.342   9.873 -0.0592  0.1726 -0.2199
  612POPI   C3A 9779   6.943  16.509   9.564  0.0002  0.5536 -0.0346
  612POPI   C4A 9780   6.949  16.357   9.051 -0.0572 -0.0200  0.2479
  612POPI   C1B 9781   6.678  16.909  10.157 -0.1036 -0.1267  0.1298
  612POPI   C2B 9782   6.578  16.842   9.685 -0.0304 -0.1834 -0.1428
  612POPI   C3B 9783   6.608  16.825   9.221 -0.1458 -0.1400 -0.1792
  612POPI   C4B 9784   6.726  16.765   8.806 -0.0059 -0.0346  0.2357
  613POPI    C1 9785  14.084   2.824  11.109 -0.0121 -0.1346  0.0206
  613POPI    C2 9786  14.035   2.909  11.496 -0.0218  0.0377 -0.0175
  613POPI    C3 9787  14.396   2.807  11.358 -0.0232 -0.0476  0.0409
  613POPI   PO4 9788  13.986   3.023  10.963  0.0888  0.1593  0.0917
  613POPI   GL1 9789  14.093   3.042  10.504  0.1071 -0.0513  0.1134
  613POPI   GL2 9790  14.130   2.777  10.529  0.0658 -0.0766  0.1547
  613POPI   C1A 9791  13.855   3.038  10.064  0.0122  0.1193  0.0270
  613POPI   D2A 9792  13.914   3.042   9.731 -0.0636  0.1422  0.0491
  613POPI   C3A 9793  13.844   3.097   9.316  0.0111  0.0962 -0.2012
  613POPI   C4A 9794  13.774   3.009   8.934  0.0517 -0.1343 -0.0754
  613POPI   C1B 9795  14.215   2.679   9.993  0.0294 -0.2637 -0.1643
  613POPI   C2B 9796  14.184   2.620   9.617 -0.0110  0.0961 -0.0242
  613POPI   C3B 9797  14.143   2.558   9.115 -0.0956 -0.3183 -0.2003
  613POPI   C4B 9798  14.105   2.710   8.695 -0.2635 -0.2912 -0.4595
  614POPI    C1 9799  17.372   1.458  10.870  0.0213 -0.1363  0.0788
  614POPI    C2 9800  17.206   1.696  11.145  0.2144  0.1099 -0.0137
  614POPI    C3 9801  17.256   1.828  10.771  0.2219 -0.1179 -0.0943
  614POPI   PO4 9802  17.561   1.401  10.854  0.1722 -0.0696  0.0721
  614POPI   GL1 9803  17.773   1.680  10.588  0.2842 -0.3064 -0.0139
  614POPI   GL2 9804  17.568   1.550  10.382 -0.0767  0.0369 -0.1268
  614POPI   C1A 9805  17.995   1.682  10.172  0.0807  0.0738  0.2050
  614POPI   D2A 9806  18.171   1.636   9.729 -0.2489  0.0296 -0.3175
  614POPI   C3A 9807  18.255   1.739   9.233  0.0694  0.1407 -0.0229
  614POPI   C4A 9808  18.316   1.732   8.747 -0.1192 -0.0906  0.0110
  614POPI   C1B 9809  17.652   1.522   9.882 -0.1462  0.0638 -0.1216
  614POPI   C2B 9810  17.680   1.643   9.399  0.1175  0.0581 -0.3088
  614POPI   C3B 9811  17.740   1.640   8.971  0.0500  0.0550 -0.2382
  614POPI   C4B 9812  17.633   1.589   8.512 -0.0596  0.2186 -0.1553
  615POPI    C1 9813  13.835  16.516  11.118 -0.0503  0.0067 -0.1946
  615POPI    C2 9814  13.488  16.317  11.123  0.1038 -0.2644 -0.0520
  615POPI    C3 9815  13.545  16.627  11.370  0.0214 -0.3215  0.0386
  615POPI   PO4 9816  13.918  16.555  10.845 -0.2160  0.0171 -0.0114
  615POPI   GL1 9817  14.212  16.396  10.509 -0.0974  0.1667 -0.1371
  615POPI   GL2 9818  14.191  16.698  10.462 -0.2066 -0.0692 -0.4433
  615POPI   C1A 9819  14.360  16.323  10.102  0.1738  0.1802 -0.2479
  615POPI   D2A 9820  14.332  16.200   9.615 -0.2628 -0.0358  0.1751
  615POPI   C3A 9821  14.248  16.246   9.257  0.1882  0.2529  0.1344
  615POPI   C4A 9822  14.237  16.355   8.808  0.0703 -0.0046  0.0292
  615POPI   C1B 9823  14.035  16.761  10.073 -0.0142  0.0200 -0.0839
  615POPI   C2B 9824  14.053  16.672   9.553  0.0779 -0.0494 -0.2385
  615POPI   C3B 9825  13.959  16.666   9.090 -0.0121 -0.2347 -0.2727
  615POPI   C4B 9826  13.918  16.772   8.591  0.3362 -0.0970  0.4646
  616POPI    C1 9827   5.704   4.193  11.068 -0.1230 -0.0769  0.1210
  616POPI    C2 9828   5.681   3.832  11.239 -0.2121 -0.0057  0.2609
  616POPI    C3 9829   5.546   4.155  11.433  0.0247  0.1274  0.2083
  616POPI   PO4 9830   5.926   4.199  10.843 -0.1576  0.2510  0.0555
  616POPI   GL1 9831   6.061   4.090  10.517 -0.2541  0.1559  0.1655
  616POPI   GL2 9832   6.136   3.783  10.539 -0.0403  0.1515 -0.1852
  616POPI   C1A 9833   5.989   4.059  10.086  0.0419 -0.0544 -0.1034
  616POPI   D2A 9834   6.000   4.119   9.675 -0.1738 -0.0000 -0.1754
  616POPI   C3A 9835   5.909   3.952   9.339 -0.1225  0.0095 -0.1524
  616POPI   C4A 9836   5.914   4.132   8.979 -0.4603 -0.0209  0.2574
  616POPI   C1B 9837   6.289   3.621  10.147  0.1743  0.2657  0.2181
  616POPI   C2B 9838   6.261   3.696   9.749  0.1389  0.0799 -0.1216
  616POPI   C3B 9839   6.241   3.519   9.512  0.2663 -0.1155 -0.2413
  616POPI   C4B 9840   6.152   3.588   9.040 -0.1851 -0.1870 -0.3486
  617POPI    C1 9841   1.958   0.230  11.040 -0.1136  0.1887  0.1613
  617POPI    C2 9842   2.217   0.190  10.738 -0.2082  0.2518  0.0715
  617POPI    C3 9843   2.319   0.401  11.062 -0.1759  0.3441  0.0019
  617POPI   PO4 9844   1.702   0.126  10.899  0.0980 -0.2567 -0.4136
  617POPI   GL1 9845   1.729  -0.075  10.579  0.0105 -0.3192  0.6318
  617POPI   GL2 9846   1.497   0.024  10.477  0.1494  0.1366  0.0826
  617POPI   C1A 9847   2.180   0.009  10.291 -0.0438 -0.0371  0.1360
  617POPI   D2A 9848   2.183   0.124   9.809  0.2550 -0.1491 -0.0414
  617POPI   C3A 9849   2.195   0.072   9.373 -0.0952 -0.3584 -0.2826
  617POPI   C4A 9850   2.293   0.064   8.911 -0.2030 -0.1218 -0.0640
  617POPI   C1B 9851   1.658   0.059  10.053 -0.0120  0.0829  0.0606
  617POPI   C2B 9852   1.657  -0.020   9.698  0.2997  0.1738  0.0111
  617POPI   C3B 9853   1.685   0.047   9.291  0.0174 -0.0002 -0.1410
  617POPI   C4B 9854   1.663  -0.060   8.866  0.2487 -0.4149  0.1376
  618POPI    C1 9855   8.999  10.270  11.113 -0.0302  0.1967 -0.1525
  618POPI    C2 9856   9.311  10.393  11.331  0.0341 -0.1428 -0.0466
  618POPI    C3 9857   9.025  10.171  11.500 -0.1377 -0.0447 -0.2052
  618POPI   PO4 9858   9.125  10.296  10.897 -0.0248 -0.0310 -0.1604
  618POPI   GL1 9859   9.161  10.276  10.545  0.0072 -0.0241 -0.0169
  618POPI   GL2 9860   9.421  10.197  10.393 -0.1174 -0.1787 -0.2039
  618POPI   C1A 9861   8.770  10.271  10.366  0.5039  0.2702  0.0073
  618POPI   D2A 9862   8.803  10.168   9.879  0.2670  0.1435 -0.1981
  618POPI   C3A 9863   8.616  10.199   9.457  0.2465 -0.2208  0.3302
  618POPI   C4A 9864   8.671  10.169   9.041 -0.0282 -0.3922  0.0375
  618POPI   C1B 9865   9.301  10.273  10.008 -0.0963 -0.3908 -0.0985
  618POPI   C2B 9866   9.167  10.210   9.579 -0.0317 -0.0902  0.1022
  618POPI   C3B 9867   9.176  10.348   9.077  0.1545 -0.2058 -0.1332
  618POPI   C4B 9868   8.995  10.268   8.612 -0.2571 -0.2552 -0.0526
  619POPI    C1 9869  16.484   4.907  11.045 -0.1453 -0.0396  0.0162
  619POPI    C2 9870  16.775   4.866  11.316 -0.1598  0.3962  0.1059
  619POPI    C3 9871  16.459   4.622  11.323  0.1746 -0.0529  0.0353
  619POPI   PO4 9872  16.667   4.850  10.796 -0.2041 -0.0084  0.3137
  619POPI   GL1 9873  16.783   4.661  10.538 -0.1678  0.4169 -0.0892
  619POPI   GL2 9874  16.477   4.741  10.326 -0.1453  0.3261  0.1699
  619POPI   C1A 9875  16.839   4.529  10.056 -0.0209 -0.0540  0.0882
  619POPI   D2A 9876  16.826   4.325   9.690 -0.2611  0.0060 -0.3051
  619POPI   C3A 9877  16.813   4.293   9.228 -0.0240  0.1879 -0.0282
  619POPI   C4A 9878  16.775   4.267   8.781 -0.0334 -0.1570 -0.0699
  619POPI   C1B 9879  16.489   4.786   9.852  0.0057 -0.0878 -0.0894
  619POPI   C2B 9880  16.489   4.726   9.406 -0.2848  0.1244 -0.1226
  619POPI   C3B 9881  16.532   4.680   8.909 -0.2874  0.6086 -0.3889
  619POPI   C4B 9882  16.370   4.557   8.618 -0.1251  0.0240  0.1289
  620POPI    C1 9883  16.563  10.290  11.115  0.0703  0.1224 -0.0257
  620POPI    C2 9884  16.904  10.087  11.171 -0.1099 -0.1727  0.0219
  620POPI    C3 9885  16.773  10.339  11.452  0.2478  0.2140 -0.1480
  620POPI   PO4 9886  16.594  10.304  10.828 -0.0207 -0.0867  0.2032
  620POPI   GL1 9887  16.605  10.343  10.412 -0.1254  0.0962  0.1549
  620POPI   GL2 9888  16.292  10.388  10.350 -0.2038 -0.3087 -0.2589
  620POPI   C1A 9889  16.435  10.077  10.035  0.3055  0.0103 -0.0333
  620POPI   D2A 9890  16.495  10.123   9.710 -0.0444  0.1710 -0.0385
  620POPI   C3A 9891  16.429  10.149   9.355 -0.2421 -0.0312 -0.0466
  620POPI   C4A 9892  16.557  10.169   8.965  0.3789  0.2573  0.1689
  620POPI   C1B 9893  16.224  10.537   9.938 -0.0326 -0.0545  0.0299
  620POPI   C2B 9894  16.170  10.541   9.568 -0.1257 -0.0341  0.4276
  620POPI   C3B 9895  16.178  10.691   9.200 -0.1945  0.1730 -0.0534
  620POPI   C4B 9896  16.280  10.655   8.881  0.2079  0.1764 -0.2644
  621POPI    C1 9897   2.256   1.338  11.275 -0.0199 -0.0364  0.0699
  621POPI    C2 9898   2.115   1.659  11.467  0.0986  0.0248  0.0561
  621POPI    C3 9899   2.496   1.549  11.517  0.1016 -0.0199 -0.0635
  621POPI   PO4 9900   2.176   1.313  11.109  0.0134  0.0941  0.2722
  621POPI   GL1 9901   2.204   1.352  10.746 -0.2504 -0.2865  0.0078
  621POPI   GL2 9902   1.933   1.195  10.643  0.3138  0.0081  0.0567
  621POPI   C1A 9903   2.253   1.396  10.346  0.1733  0.0840  0.0161
  621POPI   D2A 9904   2.159   1.354  10.055  0.3179  0.1792 -0.0013
  621POPI   C3A 9905   2.274   1.423   9.655 -0.0066 -0.2132  0.0628
  621POPI   C4A 9906   2.331   1.354   9.239  0.1647  0.0928 -0.0232
  621POPI   C1B 9907   2.056   0.925  10.233 -0.0504 -0.0856 -0.0018
  621POPI   C2B 9908   2.021   0.870   9.776 -0.5911 -0.1993  0.1431
  621POPI   C3B 9909   2.096   0.883   9.392  0.2741 -0.0511  0.2033
  621POPI   C4B 9910   2.228   0.974   8.961  0.1642 -0.3640 -0.0790
  622POPI    C1 9911   0.002   9.837  11.139 -0.0285 -0.0136 -0.0178
  622POPI    C2 9912   0.117   9.540  11.380 -0.1166 -0.0206  0.0160
  622POPI    C3 9913   0.114   9.917  11.514  0.1300  0.0140 -0.0705
  622POPI   PO4 9914   0.068   9.899  10.946 -0.1551 -0.1083 -0.2755
  622POPI   GL1 9915   0.015   9.797  10.498  0.0161 -0.0728  0.0570
  622POPI   GL2 9916   0.046   9.409  10.436  0.2061 -0.1626  0.3932
  622POPI   C1A 9917   0.055   9.807  10.042  0.1389  0.4015 -0.0078
  622POPI   D2A 9918   0.084   9.898   9.644 -0.0427 -0.1030 -0.3425
  622POPI   C3A 9919   0.109   9.915   9.210 -0.2273 -0.0443 -0.0868
  622POPI   C4A 9920   0.108  10.104   8.718 -0.3551  0.3339 -0.2162
  622POPI   C1B 9921  -0.068   9.308  10.023  0.0606 -0.4849  0.2253
  622POPI   C2B 9922  -0.139   9.448   9.574 -0.0877 -0.0824  0.0426
  622POPI   C3B 9923  -0.074   9.400   9.170  0.2817  0.0720  0.0400
  622POPI   C4B 9924  -0.049   9.609   8.756 -0.1127 -0.1904 -0.0171
  623POPI    C1 9925  11.075   4.133  11.231  0.0913 -0.1509 -0.1010
  623POPI    C2 9926  10.807   3.986  11.489 -0.0722 -0.0624 -0.2186
  623POPI    C3 9927  11.196   3.911  11.541 -0.0927  0.0443  0.1150
  623POPI   PO4 9928  10.940   4.153  11.012 -0.0263  0.2363 -0.0670
  623POPI   GL1 9929  11.047   4.502  10.679 -0.0492  0.1851 -0.2433
  623POPI   GL2 9930  11.358   4.409  10.774 -0.0413 -0.1256  0.2242
  623POPI   C1A 9931  11.081   4.621  10.166  0.0198 -0.0660 -0.0742
  623POPI   D2A 9932  11.072   4.633   9.713  0.3360 -0.0353 -0.0735
  623POPI   C3A 9933  11.117   4.652   9.259 -0.0215  0.0635 -0.0577
  623POPI   C4A 9934  11.136   4.678   8.845 -0.0336  0.0111 -0.1085
  623POPI   C1B 9935  11.365   4.262  10.408 -0.1197 -0.1833  0.0464
  623POPI   C2B 9936  11.334   4.160   9.925  0.0099 -0.2441  0.0971
  623POPI   C3B 9937  11.313   4.227   9.530  0.0708 -0.0274 -0.2368
  623POPI   C4B 9938  11.297   4.194   9.096 -0.1301  0.1675 -0.1257
  624POPI    C1 9939   7.335   5.145  11.151  0.3347  0.0240  0.0100
  624POPI    C2 9940   7.260   5.452  11.396 -0.0151  0.0281 -0.0964
  624POPI    C3 9941   7.407   5.110  11.543 -0.0980  0.0750  0.0988
  624POPI   PO4 9942   7.318   5.206  10.887 -0.3288  0.1466  0.0101
  624POPI   GL1 9943   7.379   4.983  10.641 -0.0489  0.2868 -0.0809
  624POPI   GL2 9944   7.638   4.891  10.561 -0.1140 -0.0822  0.1295
  624POPI   C1A 9945   7.351   5.138  10.164 -0.0850 -0.1693  0.1360
  624POPI   D2A 9946   7.361   5.214   9.754 -0.1211 -0.1382  0.1304
  624POPI   C3A 9947   7.394   5.168   9.271 -0.0251 -0.3940  0.1866
  624POPI   C4A 9948   7.389   5.085   8.809 -0.2936 -0.2658 -0.4894
  624POPI   C1B 9949   7.811   5.127  10.293 -0.2190 -0.1392 -0.2833
  624POPI   C2B 9950   7.885   5.176   9.981  0.2015  0.0542  0.0088
  624POPI   C3B 9951   7.872   5.230   9.543  0.1553  0.4121  0.1638
  624POPI   C4B 9952   7.902   5.151   9.182 -0.1467  0.1863 -0.0442
  625DPPI    C1 9953  13.847   5.414  11.089 -0.0682 -0.2803  0.0666
  625DPPI    C2 9954  13.905   5.237  11.443 -0.2345 -0.1815  0.1444
  625DPPI    C3 9955  13.637   5.533  11.408 -0.3873 -0.3462 -0.1134
  625DPPI   PO4 9956  14.014   5.245  10.966 -0.0301  0.0786  0.1982
  625DPPI   GL1 9957  14.150   4.967  10.646 -0.0467 -0.2624 -0.0428
  625DPPI   GL2 9958  14.331   5.219  10.489 -0.0198  0.0870 -0.0698
  625DPPI   C1A 9959  14.175   4.789  10.271 -0.1120  0.4316  0.1255
  625DPPI   C2A 9960  14.196   4.916   9.842  0.1857 -0.2090 -0.0572
  625DPPI   C3A 9961  14.242   4.875   9.380 -0.0874 -0.5168 -0.2361
  625DPPI   C4A 9962  14.199   5.025   8.963  0.1754 -0.2454 -0.2076
  625DPPI   C1B 9963  14.371   5.373  10.051  0.0709  0.1566 -0.0988
  625DPPI   C2B 9964  14.439   5.377   9.583  0.0055 -0.1994  0.1276
  625DPPI   C3B 9965  14.363   5.501   9.075  0.0183  0.0426  0.0096
  625DPPI   C4B 9966  14.288   5.442   8.663 -0.1543  0.1214 -0.0270
  626DPPI    C1 9967  10.464  14.901  11.361  0.1789 -0.0651 -0.1154
  626DPPI    C2 9968  10.477  14.644  11.667  0.1674 -0.3196 -0.3257
  626DPPI    C3 9969  10.453  15.037  11.737  0.4074 -0.3593  0.0011
  626DPPI   PO4 9970  10.570  14.784  11.207 -0.0454 -0.0733 -0.2033
  626DPPI   GL1 9971  10.388  14.546  10.857 -0.2463 -0.0265 -0.1284
  626DPPI   GL2 9972  10.045  14.421  10.793  0.2648 -0.0567 -0.0834
  626DPPI   C1A 9973  10.588  14.497  10.474 -0.0037  0.2264 -0.0254
  626DPPI   C2A 9974  10.601  14.582  10.063  0.3996  0.0091 -0.1345
  626DPPI   C3A 9975  10.624  14.556   9.620  0.0173 -0.1218  0.1161
  626DPPI   C4A 9976  10.633  14.542   9.231 -0.1757  0.1067 -0.0012
  626DPPI   C1B 9977  10.062  14.357  10.402  0.0828 -0.2255 -0.0639
  626DPPI   C2B 9978  10.147  14.442  10.022  0.1692 -0.2219 -0.1260
  626DPPI   C3B 9979  10.032  14.471   9.618  0.0319  0.1393  0.2454
  626DPPI   C4B 9980  10.088  14.408   9.216  0.0716 -0.0179  0.0810
  627DPPI    C1 9981  15.557  15.882  11.266  0.1639  0.0489  0.0352
  627DPPI    C2 9982  15.212  16.048  11.383  0.1212 -0.0230  0.0116
  627DPPI    C3 9983  15.560  16.204  11.503  0.0796  0.0086  0.0915
  627DPPI   PO4 9984  15.568  15.902  11.021 -0.1158 -0.2474  0.3066
  627DPPI   GL1 9985  15.512  16.010  10.581  0.0661  0.0571  0.0400
  627DPPI   GL2 9986  15.166  15.930  10.427 -0.3970 -0.0457  0.0444
  627DPPI   C1A 9987  15.603  15.984  10.128 -0.1891  0.0311 -0.1233
  627DPPI   C2A 9988  15.689  16.047   9.677  0.1048 -0.0530 -0.1902
  627DPPI   C3A 9989  15.618  15.996   9.285 -0.0222 -0.0857 -0.0772
  627DPPI   C4A 9990  15.527  15.942   8.842  0.1853  0.1460 -0.2318
  627DPPI   C1B 9991  15.186  15.956   9.964 -0.0818  0.0320  0.2206
  627DPPI   C2B 9992  15.101  15.908   9.539  0.0786  0.0694 -0.0027
  627DPPI   C3B 9993  15.053  15.995   9.071  0.0188  0.1038 -0.2250
  627DPPI   C4B 9994  15.090  15.929   8.663 -0.1165  0.0136 -0.0830
  628DPPI    C1 9995   1.999   8.349  11.313 -0.1236 -0.0422  0.0270
  628DPPI    C2 9996   1.995   7.996  11.125  0.0665 -0.1037  0.1352
  628DPPI    C3 9997   2.170   8.030  11.483  0.1650  0.1299  0.0668
  628DPPI   PO4 9998   1.845   8.489  11.151  0.0871 -0.2304 -0.1888
  628DPPI   GL1 9999   1.777   8.515  10.753 -0.1010 -0.2747  0.0784
  628DPPI   GL210000   1.761   8.194  10.577 -0.1685  0.1882 -0.2647
  628DPPI   C1A10001   1.591   8.677  10.329  0.1282 -0.1293 -0.0108
  628DPPI   C2A10002   1.570   8.683   9.956 -0.0402  0.2165  0.1964
  628DPPI   C3A10003   1.550   8.654   9.563 -0.1408  0.4691 -0.2021
  628DPPI   C4A10004   1.559   8.633   9.218  0.2657  0.3602  0.2342
  628DPPI   C1B10005   1.986   8.295  10.158  0.0416 -0.1402 -0.5252
  628DPPI   C2B10006   1.976   8.200   9.696 -0.1181  0.0866  0.1161
  628DPPI   C3B10007   1.874   8.226   9.213  0.1315  0.1591  0.0835
  628DPPI   C4B10008   1.837   8.275   8.835  0.1908 -0.3343 -0.1516
  629DPPI    C110009   9.041   6.700  11.186  0.0238  0.0003  0.0063
  629DPPI    C210010   8.775   6.420  11.289  0.2320 -0.2547 -0.1359
  629DPPI    C310011   8.864   6.715  11.544  0.0449 -0.3435  0.0348
  629DPPI   PO410012   9.269   6.592  11.082  0.1269 -0.0260  0.2302
  629DPPI   GL110013   9.316   6.537  10.701  0.0586 -0.0048  0.1182
  629DPPI   GL210014   9.641   6.474  10.623 -0.3396  0.1156  0.1678
  629DPPI   C1A10015   9.071   6.646  10.212 -0.0616  0.3039 -0.0860
  629DPPI   C2A10016   9.093   6.583   9.755  0.3483 -0.2026 -0.0378
  629DPPI   C3A10017   9.073   6.648   9.328 -0.0244  0.0759  0.1567
  629DPPI   C4A10018   9.111   6.559   8.962  0.0520 -0.0212  0.1941
  629DPPI   C1B10019   9.567   6.658  10.234  0.1155  0.0031 -0.0505
  629DPPI   C2B10020   9.582   6.692   9.715  0.2213  0.1297  0.0050
  629DPPI   C3B10021   9.560   6.627   9.332 -0.2189  0.1464 -0.0640
  629DPPI   C4B10022   9.605   6.709   8.925  0.1722 -0.1300 -0.0854
  630DPPI    C110023  15.970  11.961  11.026  0.0409 -0.1467 -0.0164
  630DPPI    C210024  15.686  11.732  11.189  0.2037 -0.2514  0.1241
  630DPPI    C310025  15.920  11.957  11.422  0.0661  0.0370 -0.0104
  630DPPI   PO410026  15.991  11.966  10.746 -0.0371  0.1686 -0.1307
  630DPPI   GL110027  16.157  12.090  10.385  0.0820 -0.1598  0.0311
  630DPPI   GL210028  16.337  11.849  10.320 -0.1544  0.1164 -0.3728
  630DPPI   C1A10029  16.006  12.275  10.125  0.4418  0.1194 -0.2802
  630DPPI   C2A10030  16.048  12.419   9.718 -0.2316 -0.0839  0.1659
  630DPPI   C3A10031  15.950  12.431   9.181  0.0018  0.1361 -0.1710
  630DPPI   C4A10032  15.997  12.388   8.756  0.1432  0.1582  0.1302
  630DPPI   C1B10033  16.452  11.947   9.885 -0.2431 -0.1844  0.1372
  630DPPI   C2B10034  16.369  12.065   9.400 -0.0269 -0.4112  0.0847
  630DPPI   C3B10035  16.282  12.020   9.031 -0.2696  0.2043  0.1279
  630DPPI   C4B10036  16.292  12.025   8.555 -0.1648  0.1655 -0.2135
  631DPPI    C110037   8.138   4.709  11.294 -0.2650  0.1657  0.0244
  631DPPI    C210038   8.420   4.852  11.539 -0.0140 -0.1316 -0.0843
  631DPPI    C310039   8.168   4.569  11.667  0.0537 -0.2162 -0.1361
  631DPPI   PO410040   8.250   4.797  11.064 -0.0089 -0.0553  0.1298
  631DPPI   GL110041   8.119   4.765  10.589  0.0679 -0.1366 -0.1521
  631DPPI   GL210042   8.207   5.086  10.655  0.0607  0.1345  0.2122
  631DPPI   C1A10043   8.182   4.700  10.188  0.1074 -0.2905  0.1036
  631DPPI   C2A10044   8.184   4.785   9.747 -0.3146  0.0269  0.2019
  631DPPI   C3A10045   8.280   4.800   9.368 -0.0348 -0.0067 -0.0647
  631DPPI   C4A10046   8.169   4.686   8.989 -0.0460 -0.1745  0.1984
  631DPPI   C1B10047   8.346   5.229  10.192  0.1186 -0.3096  0.1803
  631DPPI   C2B10048   8.352   5.234   9.762 -0.3865  0.4902  0.0462
  631DPPI   C3B10049   8.454   5.281   9.350 -0.0817 -0.1189 -0.0054
  631DPPI   C4B10050   8.428   5.208   8.879 -0.1366  0.0545 -0.1409
  632DPPI    C110051   3.980  17.536  11.104 -0.3050 -0.0123  0.3429
  632DPPI    C210052   4.270  17.263  11.142 -0.0534  0.2103  0.0780
  632DPPI    C310053   4.176  17.500  11.451  0.0415  0.1325  0.1672
  632DPPI   PO410054   4.092  17.663  10.847  0.0123  0.0285 -0.2752
  632DPPI   GL110055   4.026  17.868  10.476  0.0333 -0.0435  0.1225
  632DPPI   GL210056   4.102  18.073  10.290 -0.1602  0.1094  0.0648
  632DPPI   C1A10057   3.656  17.940  10.182 -0.0417  0.0954  0.0211
  632DPPI   C2A10058   3.692  17.999   9.711  0.1216 -0.0108  0.0513
  632DPPI   C3A10059   3.721  18.031   9.283 -0.1196  0.0504 -0.3515
  632DPPI   C4A10060   3.728  17.894   8.869 -0.0863  0.5193 -0.3813
  632DPPI   C1B10061   4.165  18.119   9.875 -0.3915  0.0388  0.3980
  632DPPI   C2B10062   4.252  18.007   9.416 -0.1396  0.0540  0.1461
  632DPPI   C3B10063   4.253  17.925   9.040  0.1905  0.2423 -0.3089
  632DPPI   C4B10064   4.157  17.890   8.580 -0.0524 -0.0438 -0.0040
  633DPPI    C110065  16.831   6.461  10.976  0.0798  0.0823 -0.0372
  633DPPI    C210066  17.125   6.235  10.825 -0.0311  0.0071 -0.1420
  633DPPI    C310067  16.927   6.114  11.151 -0.1816 -0.1161 -0.2769
  633DPPI   PO410068  16.633   6.549  10.799  0.1488 -0.0466 -0.0427
  633DPPI   GL110069  16.555   6.420  10.425  0.1413 -0.1861  0.3150
  633DPPI   GL210070  16.248   6.159  10.434  0.4510 -0.2104  0.2107
  633DPPI   C1A10071  16.450   6.547   9.985 -0.0134 -0.1572  0.0312
  633DPPI   C2A10072  16.301   6.576   9.583  0.1295 -0.3803 -0.1592
  633DPPI   C3A10073  16.265   6.596   9.146  0.0339 -0.0148  0.0201
  633DPPI   C4A10074  16.308   6.550   8.695 -0.2780  0.1074  0.2726
  633DPPI   C1B10075  16.129   6.112  10.027 -0.2823  0.1398 -0.1144
  633DPPI   C2B10076  16.090   6.089   9.580  0.1493  0.0908  0.1303
  633DPPI   C3B10077  16.098   6.021   9.124 -0.1535 -0.0363 -0.0315
  633DPPI   C4B10078  16.055   6.077   8.733  0.0285  0.2057  0.0502
  634DPPI    C110079  14.657  10.767  10.926  0.3445  0.2341  0.0856
  634DPPI    C210080  14.630  10.385  11.039 -0.0579  0.2175 -0.0486
  634DPPI    C310081  14.533  10.676  11.295 -0.1675  0.2121 -0.0836
  634DPPI   PO410082  14.802  10.730  10.609 -0.2856  0.4319 -0.0330
  634DPPI   GL110083  14.974  10.464  10.297  0.1139 -0.2986  0.3608
  634DPPI   GL210084  14.727  10.308  10.347 -0.0940 -0.0100  0.1125
  634DPPI   C1A10085  15.184  10.408   9.928 -0.0380 -0.0863  0.1070
  634DPPI   C2A10086  15.110  10.513   9.523 -0.0479  0.3561 -0.3305
  634DPPI   C3A10087  15.134  10.520   9.121 -0.1739  0.1696  0.0626
  634DPPI   C4A10088  15.082  10.444   8.709  0.0977 -0.0975  0.0512
  634DPPI   C1B10089  14.655  10.434   9.880 -0.5541 -0.1826 -0.1111
  634DPPI   C2B10090  14.621  10.592   9.447  0.1748 -0.0598  0.2091
  634DPPI   C3B10091  14.585  10.518   8.984 -0.0699 -0.1249  0.1767
  634DPPI   C4B10092  14.610  10.428   8.530  0.2575  0.1168 -0.2343
  635PYPI    C110093  16.332   6.823  11.088 -0.0282 -0.1061  0.0002
  635PYPI    C210094  16.649   6.871  11.328  0.0280 -0.1377 -0.0676
  635PYPI    C310095  16.282   6.848  11.484  0.0521 -0.0295  0.0059
  635PYPI   PO410096  16.366   6.958  10.908 -0.1393  0.2447  0.0346
  635PYPI   GL110097  16.381   6.900  10.470 -0.1532  0.1031  0.0642
  635PYPI   GL210098  16.127   7.070  10.383  0.0963  0.2798 -0.4288
  635PYPI   C1A10099  16.638   6.986  10.148  0.2105  0.2957  0.0461
  635PYPI   C2A10100  16.607   6.991   9.691  0.2366  0.2111  0.0371
  635PYPI   D3A10101  16.489   7.087   9.311  0.1862  0.1733 -0.2169
  635PYPI   C4A10102  16.541   6.968   8.915 -0.1100 -0.3662  0.1371
  635PYPI   C1B10103  16.071   6.913   9.919 -0.0376  0.0481 -0.1931
  635PYPI   C2B10104  16.019   7.024   9.501 -0.1401  0.0294  0.1499
  635PYPI   C3B10105  16.055   7.064   9.037  0.0747 -0.2048  0.0629
  635PYPI   C4B10106  16.076   7.063   8.585 -0.2849 -0.0452  0.4847
  636PYPI    C110107  12.475   7.065  11.145  0.1763 -0.1124  0.1966
  636PYPI    C210108  12.399   7.449  11.227 -0.1277 -0.1071 -0.0897
  636PYPI    C310109  12.483   7.194  11.524 -0.1111  0.1388  0.1207
  636PYPI   PO410110  12.472   7.131  10.842 -0.3636 -0.1359 -0.0231
  636PYPI   GL110111  12.569   7.180  10.434 -0.0834  0.0998  0.2016
  636PYPI   GL210112  12.439   7.454  10.347  0.1678  0.1079  0.0232
  636PYPI   C1A10113  12.663   7.090  10.049  0.1032  0.3693  0.0895
  636PYPI   C2A10114  12.733   6.980   9.648  0.0930  0.0631 -0.2701
  636PYPI   D3A10115  12.618   7.020   9.172  0.4412 -0.2253 -0.0247
  636PYPI   C4A10116  12.636   7.066   8.811  0.1190  0.2605 -0.0318
  636PYPI   C1B10117  12.358   7.383   9.874  0.1999  0.1172  0.1323
  636PYPI   C2B10118  12.463   7.388   9.538  0.4498  0.0317 -0.1267
  636PYPI   C3B10119  12.391   7.488   9.147 -0.0070  0.1472 -0.0440
  636PYPI   C4B10120  12.263   7.533   8.734  0.0177 -0.0227 -0.1352
  637PYPI    C110121   4.827   3.124  11.415  0.1439 -0.2390 -0.3070
  637PYPI    C210122   5.178   3.025  11.577 -0.1205 -0.3856  0.1965
  637PYPI    C310123   4.934   3.278  11.768 -0.3535 -0.3994 -0.0768
  637PYPI   PO410124   4.921   3.140  11.163 -0.1641 -0.2590 -0.0053
  637PYPI   GL110125   4.949   2.962  10.789 -0.1812  0.1616 -0.2078
  637PYPI   GL210126   5.277   2.893  10.687 -0.2235 -0.4199  0.0157
  637PYPI   C1A10127   4.981   3.105  10.320 -0.1783  0.2723  0.2149
  637PYPI   C2A10128   5.042   3.074   9.876  0.1337  0.1021  0.0467
  637PYPI   D3A10129   5.007   3.063   9.407 -0.1606  0.0488 -0.0225
  637PYPI   C4A10130   5.021   3.007   8.840  0.1070  0.1164  0.3213
  637PYPI   C1B10131   5.194   2.646  10.471  0.2162  0.2587  0.0780
  637PYPI   C2B10132   5.249   2.608  10.104 -0.1093  0.1476 -0.1598
  637PYPI   C3B10133   5.298   2.644   9.638  0.2228 -0.0172  0.2563
  637PYPI   C4B10134   5.252   2.645   9.263  0.1518 -0.1596  0.0747
  638PYPI    C110135   3.297  10.403  11.218 -0.0298  0.0365 -0.0223
  638PYPI    C210136   3.044  10.694  11.326 -0.1997 -0.1088 -0.0235
  638PYPI    C310137   3.426  10.706  11.446 -0.2399  0.0407  0.0939
  638PYPI   PO410138   3.165  10.291  10.953  0.0719  0.1411 -0.0194
  638PYPI   GL110139   3.181  10.385  10.475 -0.3687  0.0479  0.0491
  638PYPI   GL210140   3.354  10.050  10.568  0.2937  0.1344  0.1352
  638PYPI   C1A10141   3.025  10.508   9.988  0.1078  0.0374  0.3760
  638PYPI   C2A10142   2.999  10.535   9.609 -0.1716 -0.0332  0.0698
  638PYPI   D3A10143   2.922  10.611   9.124  0.4119  0.0744 -0.2839
  638PYPI   C4A10144   2.561  10.668   8.853  0.1973  0.2182  0.1512
  638PYPI   C1B10145   3.293  10.125  10.074 -0.4336  0.3826  0.0101
  638PYPI   C2B10146   3.283  10.157   9.661  0.1324  0.0566  0.0254
  638PYPI   C3B10147   3.166  10.158   9.197 -0.1901  0.1954  0.5227
  638PYPI   C4B10148   3.145  10.142   8.740  0.1077 -0.0287  0.2310
  639PYPI    C110149  12.253   8.771  11.091  0.1418  0.1776  0.1361
  639PYPI    C210150  12.540   9.037  11.175  0.0644  0.2209  0.2671
  639PYPI    C310151  12.191   9.052  11.369  0.0893 -0.0272  0.3343
  639PYPI   PO410152  12.207   8.786  10.762 -0.1150 -0.0803 -0.3850
  639PYPI   GL110153  12.127   8.585  10.442 -0.1163  0.3032 -0.1058
  639PYPI   GL210154  12.344   8.379  10.291  0.1521  0.6941  0.2884
  639PYPI   C1A10155  11.954   8.653  10.094 -0.3211 -0.0700 -0.0748
  639PYPI   C2A10156  11.865   8.739   9.695 -0.1267  0.2864  0.0701
  639PYPI   D3A10157  11.936   8.812   9.337  0.1455  0.2324  0.0447
  639PYPI   C4A10158  11.947   8.723   8.958  0.1187 -0.1236 -0.1520
  639PYPI   C1B10159  12.286   8.274   9.883 -0.3705 -0.0914 -0.1888
  639PYPI   C2B10160  12.260   8.268   9.561  0.1663 -0.1472  0.2916
  639PYPI   C3B10161  12.219   8.348   9.086  0.0021  0.0789  0.2281
  639PYPI   C4B10162  12.237   8.385   8.703  0.1059  0.0271  0.2985
  640PYPI    C110163  12.544   5.906  11.232  0.2714 -0.0523  0.0039
  640PYPI    C210164  12.379   5.613  11.448 -0.1714  0.1384 -0.0662
  640PYPI    C310165  12.436   5.974  11.611  0.2316  0.0616 -0.0274
  640PYPI   PO410166  12.409   5.976  11.035  0.1537 -0.2304  0.0524
  640PYPI   GL110167  12.480   5.839  10.646 -0.0320 -0.1670  0.2701
  640PYPI   GL210168  12.467   6.177  10.617 -0.0273  0.0156  0.0465
  640PYPI   C1A10169  12.530   5.730  10.162 -0.1369  0.4220  0.1897
  640PYPI   C2A10170  12.495   5.560   9.826  0.1046  0.0938  0.2980
  640PYPI   D3A10171  12.464   5.720   9.474 -0.0351  0.0511  0.1123
  640PYPI   C4A10172  12.560   5.622   9.009 -0.1262  0.3210 -0.0021
  640PYPI   C1B10173  12.178   6.021  10.358 -0.0645 -0.4696 -0.1412
  640PYPI   C2B10174  12.179   5.962   9.930 -0.1394  0.0520 -0.2738
  640PYPI   C3B10175  12.102   6.004   9.544  0.0759  0.3067  0.0113
  640PYPI   C4B10176  12.288   6.141   9.176  0.0469  0.1695  0.0532
  641ERGO   ROH10177  14.920  14.242  10.332 -0.1782  0.0016  0.0309
  641ERGO    R110178  14.983  14.122  10.083 -0.0553 -0.0580  0.0904
  641ERGO    R210179  14.792  14.004   9.922  0.0077 -0.0034 -0.0239
  641ERGO    R310180  14.893  14.173   9.734  0.2044 -0.0703  0.0191
  641ERGO    R410181  14.716  13.992   9.585  0.2818 -0.0635 -0.0865
  641ERGO    R510182  14.925  14.034   9.542  0.3308 -0.1240  0.0765
  641ERGO    C110183  14.766  14.144   9.213  0.6259 -0.1613 -0.0825
  641ERGO    C210184  14.717  14.099   8.960 -0.1840  0.0704 -0.0717
  642ERGO   ROH10185   5.556   4.047  10.396 -0.3381 -0.2421 -0.0294
  642ERGO    R110186   5.521   3.946  10.134 -0.3950 -0.1793 -0.0451
  642ERGO    R210187   5.301   4.006   9.978 -0.2243  0.1990 -0.1369
  642ERGO    R310188   5.490   4.084   9.799 -0.0129 -0.1168 -0.0630
  642ERGO    R410189   5.276   3.968   9.636 -0.0049 -0.0867 -0.1255
  642ERGO    R510190   5.487   3.913   9.632 -0.0339 -0.2750  0.0848
  642ERGO    C110191   5.439   4.019   9.268  0.3212 -0.5496 -0.0493
  642ERGO    C210192   5.435   3.987   8.962 -0.3960  0.1288 -0.0362
  643ERGO   ROH10193  12.404   4.346  10.336  0.1115  0.2411 -0.0410
  643ERGO    R110194  12.440   4.219  10.085  0.0532  0.1422  0.0011
  643ERGO    R210195  12.245   4.218   9.889  0.0540  0.1659  0.0052
  643ERGO    R310196  12.445   4.320   9.736  0.0988  0.0230 -0.0343
  643ERGO    R410197  12.268   4.183   9.546 -0.0175  0.1045  0.0058
  643ERGO    R510198  12.483   4.153   9.569 -0.0289 -0.0266 -0.0184
  643ERGO    C110199  12.469   4.258   9.203 -0.0169 -0.0652 -0.0309
  643ERGO    C210200  12.427   4.377   8.884  0.0107  0.0393  0.1332
  644ERGO   ROH10201  16.508   8.310  10.662  0.2533  0.2039 -0.0646
  644ERGO    R110202  16.609   8.429  10.426  0.1147  0.2038 -0.1249
  644ERGO    R210203  16.761   8.289  10.242  0.1403  0.2458 -0.1315
  644ERGO    R310204  16.572   8.380  10.068  0.0386  0.0934 -0.1033
  644ERGO    R410205  16.797   8.297   9.898  0.0565  0.1966 -0.1419
  644ERGO    R510206  16.698   8.491   9.897 -0.0678  0.1388 -0.1569
  644ERGO    C110207  16.641   8.386   9.535 -0.0878  0.0247 -0.1215
  644ERGO    C210208  16.639   8.388   9.156  0.4732  0.4392  0.0870
  645ERGO   ROH10209   0.520   7.209  10.151 -0.1458 -0.2213 -0.0285
  645ERGO    R110210   0.495   7.094   9.893 -0.3080 -0.1059 -0.0660
  645ERGO    R210211   0.295   7.165   9.717 -0.0698  0.4189 -0.1410
  645ERGO    R310212   0.504   7.212   9.549  0.1261 -0.0362 -0.0370
  645ERGO    R410213   0.280   7.146   9.372  0.1171  0.2601 -0.1418
  645ERGO    R510214   0.476   7.052   9.374 -0.0427 -0.0870  0.0330
  645ERGO    C110215   0.469   7.179   9.014  0.4100 -0.2596 -0.0445
  645ERGO    C210216   0.338   7.269   8.761 -0.1152  0.0064  0.2669
  646ERGO   ROH10217   8.410  10.726  10.584 -0.0789 -0.2051 -0.1667
  646ERGO    R110218   8.516  10.722  10.322 -0.0834 -0.3050 -0.1665
  646ERGO    R210219   8.460  10.521  10.141 -0.3746 -0.1887 -0.2043
  646ERGO    R310220   8.384  10.729   9.983 -0.0763 -0.0449 -0.1672
  646ERGO    R410221   8.419  10.502   9.799 -0.2377 -0.0239 -0.2318
  646ERGO    R510222   8.512  10.699   9.782 -0.0119 -0.1142 -0.1193
  646ERGO    C110223   8.324  10.686   9.451  0.1221  0.2069 -0.2131
  646ERGO    C210224   8.309  10.651   9.106 -0.0251 -0.0984  0.1183
  647ERGO   ROH10225   5.327   0.328  10.406 -0.0252 -0.1665 -0.1776
  647ERGO    R110226   5.184   0.276  10.167 -0.1653  0.1522 -0.1689
  647ERGO    R210227   5.159   0.462   9.965  0.1428  0.2566 -0.1188
  647ERGO    R310228   5.260   0.263   9.811 -0.2440  0.1012 -0.1831
  647ERGO    R410229   5.192   0.476   9.621  0.5394  0.4700 -0.0782
  647ERGO    R510230   5.127   0.268   9.612 -0.0319  0.6446 -0.3249
  647ERGO    C110231   5.306   0.297   9.276  0.4072  0.4483 -0.1151
  647ERGO    C210232   5.312   0.371   8.929 -0.0658  0.0338  0.2311
  648ERGO   ROH10233   0.770  16.690  10.437 -0.1441  0.1584 -0.0715
  648ERGO    R110234   0.692  16.656  10.167 -0.1213  0.1628 -0.0782
  648ERGO    R210235   0.658  16.869   9.995  0.0772  0.1530 -0.1279
  648ERGO    R310236   0.834  16.730   9.840 -0.0034 -0.0167 -0.0698
  648ERGO    R410237   0.678  16.889   9.650  0.2405  0.1780 -0.1182
  648ERGO    R510238   0.709  16.674   9.644  0.0141  0.1406 -0.1299
  648ERGO    C110239   0.854  16.771   9.305  0.2599  0.0331 -0.0581
  648ERGO    C210240   0.830  16.757   8.844 -0.0641 -0.1899 -0.1433
  649ERGO   ROH10241   2.696  13.123  10.668  0.1256  0.1665  0.0303
  649ERGO    R110242   2.574  13.116  10.412  0.0656 -0.0250  0.0622
  649ERGO    R210243   2.569  13.335  10.243 -0.3027 -0.0318  0.0507
  649ERGO    R310244   2.680  13.161  10.067 -0.0866  0.1193  0.0337
  649ERGO    R410245   2.544  13.358   9.899 -0.5047 -0.1462  0.0564
  649ERGO    R510246   2.519  13.142   9.891 -0.1402 -0.1935  0.1137
  649ERGO    C110247   2.634  13.208   9.534 -0.4196 -0.0709  0.0438
  649ERGO    C210248   2.575  13.331   9.237 -0.1112 -0.1680 -0.0116
  650ERGO   ROH10249  13.192  16.191  10.413  0.0521  0.5653 -0.1239
  650ERGO    R110250  13.249  16.262  10.145  0.2310  0.2343 -0.1770
  650ERGO    R210251  13.370  16.088   9.968 -0.0491 -0.1401 -0.0052
  650ERGO    R310252  13.153  16.144   9.814  0.0780  0.1226 -0.0963
  650ERGO    R410253  13.368  16.084   9.622  0.0226 -0.4908 -0.0057
  650ERGO    R510254  13.243  16.263   9.626  0.3560 -0.2326 -0.2076
  650ERGO    C110255  13.162  16.134   9.276  0.1837 -0.4481 -0.0915
  650ERGO    C210256  13.227  16.144   8.907 -0.1923  0.1605 -0.0329
  651ERGO   ROH10257  16.074  13.258  10.320 -0.2288 -0.0813 -0.0829
  651ERGO    R110258  15.943  13.222  10.071 -0.1048 -0.1011 -0.1467
  651ERGO    R210259  15.937  13.417   9.877 -0.1753 -0.0412 -0.0869
  651ERGO    R310260  16.038  13.220   9.720  0.0370  0.0835 -0.1108
  651ERGO    R410261  15.910  13.405   9.532 -0.1585 -0.0279 -0.0884
  651ERGO    R510262  15.874  13.190   9.548  0.0686 -0.0696 -0.1155
  651ERGO    C110263  15.989  13.212   9.185  0.0505  0.0969 -0.1117
  651ERGO    C210264  15.852  13.269   8.839  0.0492 -0.0394 -0.1028
  652ERGO   ROH10265  12.538  10.136  10.411  0.1165 -0.0203 -0.0444
  652ERGO    R110266  12.502  10.216  10.142 -0.0113 -0.0314 -0.0319
  652ERGO    R210267  12.699  10.345   9.997 -0.0927  0.0060 -0.1194
  652ERGO    R310268  12.657  10.142   9.821 -0.1288 -0.0087 -0.0927
  652ERGO    R410269  12.627  10.386   9.661  0.1106 -0.0393 -0.1690
  652ERGO    R510270  12.484  10.223   9.677  0.0018  0.0603 -0.2059
  652ERGO    C110271  12.547  10.219   9.301  0.1953 -0.0795 -0.1730
  652ERGO    C210272  12.584  10.250   9.007 -0.1861  0.2358 -0.0702
  653ERGO   ROH10273   3.770  16.959  10.299  0.1611  0.2984 -0.0251
  653ERGO    R110274   3.827  17.084  10.051  0.0983  0.2060 -0.0871
  653ERGO    R210275   3.959  16.954   9.846  0.1151  0.1514 -0.0470
  653ERGO    R310276   3.741  17.029   9.702  0.0747  0.0243 -0.0523
  653ERGO    R410277   3.954  17.000   9.504  0.1480  0.3739 -0.0186
  653ERGO    R510278   3.828  17.175   9.534 -0.0358  0.2240  0.0648
  653ERGO    C110279   3.747  17.097   9.169  0.1292  0.3845 -0.0070
  653ERGO    C210280   3.893  16.956   8.866  0.0724 -0.0759 -0.0064
  654ERGO   ROH10281   2.751  10.525  10.760 -0.0100  0.2274  0.0132
  654ERGO    R110282   2.618  10.454  10.520 -0.0186  0.2025  0.0250
  654ERGO    R210283   2.428  10.617  10.401  0.0209  0.2191 -0.0178
  654ERGO    R310284   2.590  10.592  10.184  0.0229  0.1332 -0.0068
  654ERGO    R410285   2.319  10.605  10.074  0.0319  0.1755 -0.0200
  654ERGO    R510286   2.467  10.451  10.034 -0.0048  0.1314  0.0185
  654ERGO    C110287   2.407  10.576   9.679  0.0402  0.0695 -0.0109
  654ERGO    C210288   2.496  10.507   9.339  0.1696 -0.0570 -0.3753
  655ERGO   ROH10289   9.820  17.317  10.163  0.1505  0.0682 -0.0164
  655ERGO    R110290   9.717  17.265   9.904  0.1146  0.1324 -0.0154
  655ERGO    R210291   9.802  17.403   9.680  0.2082  0.0712 -0.0202
  655ERGO    R310292   9.850  17.152   9.584  0.0393  0.0356 -0.0125
  655ERGO    R410293   9.765  17.306   9.350  0.3213  0.1317 -0.0507
  655ERGO    R510294   9.680  17.118   9.419  0.1085  0.2031 -0.1187
  655ERGO    C110295   9.788  17.015   9.068  0.2286  0.1339 -0.0613
  655ERGO    C210296   9.693  17.096   8.643 -0.2982 -0.0490  0.1232
  656ERGO   ROH10297   9.898   9.911  10.604 -0.1219  0.1524 -0.0582
  656ERGO    R110298  10.019   9.960  10.353 -0.0297  0.0591 -0.0322
  656ERGO    R210299  10.073   9.759  10.172 -0.1638  0.0197 -0.0252
  656ERGO    R310300   9.929   9.916  10.003  0.0033  0.1470 -0.0530
  656ERGO    R410301  10.098   9.751   9.827 -0.2635 -0.1714 -0.0300
  656ERGO    R510302  10.083   9.969   9.827  0.0367 -0.1429 -0.1204
  656ERGO    C110303   9.977   9.894   9.468 -0.1648 -0.1633 -0.0588
  656ERGO    C210304   9.992   9.920   9.060  0.3296 -0.1848 -0.0947
  657ERGO   ROH10305  17.188   5.872  10.490 -0.1541 -0.1496 -0.0702
  657ERGO    R110306  17.098   6.022  10.268  0.0007  0.0195 -0.0189
  657ERGO    R210307  17.272   6.150  10.095  0.1364 -0.2010 -0.0378
  657ERGO    R310308  17.136   6.009   9.906 -0.1201  0.0301 -0.0348
  657ERGO    R410309  17.279   6.215   9.755  0.2666 -0.2090 -0.0376
  657ERGO    R510310  17.066   6.173   9.747  0.1760  0.1698 -0.0385
  657ERGO    C110311  17.156   6.120   9.381  0.1016  0.0034 -0.0348
  657ERGO    C210312  17.151   6.183   9.104 -0.0471 -0.1082  0.0141
  658ERGO   ROH10313   6.599   1.523  10.335  0.1029 -0.1502  0.0769
  658ERGO    R110314   6.740   1.483  10.092  0.0290 -0.0466  0.0158
  658ERGO    R210315   6.645   1.319   9.890  0.0294 -0.0643  0.0278
  658ERGO    R310316   6.679   1.542   9.739 -0.1384 -0.0240  0.0482
  658ERGO    R410317   6.633   1.327   9.545  0.1719 -0.0660  0.0223
  658ERGO    R510318   6.801   1.466   9.547  0.0253  0.1100  0.0988
  658ERGO    C110319   6.658   1.541   9.202  0.0975 -0.0292  0.0382
  658ERGO    C210320   6.772   1.491   8.894 -0.0516 -0.1082 -0.3718
  659ERGO   ROH10321  11.577   3.150  10.252  0.0080  0.3212 -0.0108
  659ERGO    R110322  11.544   3.270   9.998  0.2197  0.2482 -0.0740
  659ERGO    R210323  11.740   3.260   9.802  0.2003 -0.2160 -0.0778
  659ERGO    R310324  11.538   3.159   9.651  0.0026  0.0710 -0.0158
  659ERGO    R410325  11.701   3.313   9.463  0.2859 -0.3232 -0.1053
  659ERGO    R510326  11.487   3.333   9.495  0.3166  0.0889 -0.1061
  659ERGO    C110327  11.489   3.248   9.123  0.1501 -0.1161 -0.0631
  659ERGO    C210328  11.534   3.150   8.745 -0.1839 -0.2044  0.0035
  660ERGO   ROH10329   4.943  12.397  10.467  0.1495  0.0780  0.0685
  660ERGO    R110330   4.819  12.426  10.215  0.0971  0.1382  0.1015
  660ERGO    R210331   4.844  12.656  10.062  0.2649  0.0808  0.0446
  660ERGO    R310332   4.928  12.481   9.872  0.0404 -0.0399  0.0532
  660ERGO    R410333   4.788  12.691   9.723  0.1140  0.0228  0.0628
  660ERGO    R510334   4.749  12.477   9.712 -0.0490  0.0431  0.1467
  660ERGO    C110335   4.833  12.548   9.347 -0.1846 -0.1244  0.0813
  660ERGO    C210336   4.867  12.543   9.047 -0.2976 -0.4276 -0.2815
  661ERGO   ROH10337   0.740   7.507  10.425  0.0019 -0.2170  0.1068
  661ERGO    R110338   0.647   7.615  10.180 -0.1770 -0.2613  0.1539
  661ERGO    R210339   0.813   7.658   9.963 -0.2227  0.1805  0.1938
  661ERGO    R310340   0.629   7.506   9.833  0.0818 -0.1150  0.0931
  661ERGO    R410341   0.715   7.702   9.634 -0.3506  0.2279  0.2376
  661ERGO    R510342   0.511   7.661   9.694 -0.2633 -0.2547  0.2259
  661ERGO    C110343   0.486   7.585   9.321 -0.1392 -0.0220  0.1685
  661ERGO    C210344   0.584   7.679   9.043 -0.0960 -0.3284  0.0494
  662ERGO   ROH10345   9.547   4.727  10.651 -0.2457  0.1516 -0.1328
  662ERGO    R110346   9.579   4.883  10.417 -0.2443  0.0273 -0.2176
  662ERGO    R210347   9.812   4.882  10.268 -0.1693  0.0936 -0.1086
  662ERGO    R310348   9.642   4.821  10.064 -0.0340 -0.1549 -0.1494
  662ERGO    R410349   9.874   4.942   9.933 -0.1591  0.1493 -0.0957
  662ERGO    R510350   9.666   5.002   9.910 -0.2372 -0.1338 -0.1574
  662ERGO    C110351   9.751   4.920   9.548 -0.0262 -0.0516 -0.1266
  662ERGO    C210352   9.784   4.937   9.319  0.0254 -0.1693  0.3736
  663ERGO   ROH10353   4.609   9.716  10.393  0.1195 -0.2762  0.0204
  663ERGO    R110354   4.586   9.827  10.134  0.0047 -0.1390  0.0865
  663ERGO    R210355   4.776   9.787   9.938  0.0010  0.0918  0.0218
  663ERGO    R310356   4.562   9.702   9.794  0.0249  0.0379  0.0212
  663ERGO    R410357   4.731   9.843   9.600 -0.1627  0.3296  0.0818
  663ERGO    R510358   4.520   9.880   9.639 -0.1743  0.1249  0.1807
  663ERGO    C110359   4.503   9.795   9.267 -0.2358  0.4175  0.1163
  663ERGO    C210360   4.464   9.777   8.841 -0.0385 -0.0129  0.1268
  664ERGO   ROH10361  14.174   0.358  10.539 -0.3375 -0.1089 -0.0232
  664ERGO    R110362  14.076   0.393  10.276 -0.1745 -0.1033 -0.0838
  664ERGO    R210363  14.236   0.482  10.068 -0.0291 -0.1639  0.0023
  664ERGO    R310364  14.148   0.255   9.946 -0.0202 -0.1491 -0.0326
  664ERGO    R410365  14.191   0.446   9.727  0.0966 -0.1536 -0.0160
  664ERGO    R510366  14.008   0.334   9.768  0.0609 -0.1238 -0.0865
  664ERGO    C110367  14.083   0.212   9.415  0.1782 -0.1338 -0.0592
  664ERGO    C210368  14.189   0.314   9.152 -0.0149  0.3289 -0.2252
  665ERGO   ROH10369   2.474  11.815  10.522 -0.2010  0.0077  0.2078
  665ERGO    R110370   2.479  11.957  10.278  0.0723 -0.0256  0.1920
  665ERGO    R210371   2.633  11.878  10.063 -0.0818 -0.3533  0.2013
  665ERGO    R310372   2.396  11.889   9.930 -0.0707  0.0955  0.2000
  665ERGO    R410373   2.600  11.894   9.719 -0.0436 -0.3657  0.1964
  665ERGO    R510374   2.438  12.037   9.746  0.2358 -0.0222  0.1647
  665ERGO    C110375   2.359  11.913   9.394 -0.0108  0.0484  0.1921
  665ERGO    C210376   2.413  11.960   8.995  0.1483  0.2081  0.1342
  666ERGO   ROH10377   6.993  16.086  10.506  0.2172  0.0561 -0.1336
  666ERGO    R110378   6.863  15.928  10.310 -0.0213  0.1289 -0.0386
  666ERGO    R210379   6.692  16.036  10.122 -0.0255  0.2432  0.0224
  666ERGO    R310380   6.857  15.909   9.947 -0.2174  0.0632 -0.0318
  666ERGO    R410381   6.645  16.022   9.780 -0.2633  0.0892  0.0590
  666ERGO    R510382   6.710  15.815   9.784 -0.3774  0.0600  0.1173
  666ERGO    C110383   6.773  15.896   9.416 -0.5820 -0.1693  0.0295
  666ERGO    C210384   6.712  15.885   9.076 -0.0376 -0.2332  0.1128
  667ERGO   ROH10385  12.479   6.668  10.540 -0.1212  0.0279 -0.1132
  667ERGO    R110386  12.586   6.591  10.290 -0.1943 -0.1509 -0.0917
  667ERGO    R210387  12.454   6.420  10.118 -0.4655  0.0903 -0.1397
  667ERGO    R310388  12.491   6.622   9.940 -0.0563  0.0471 -0.1113
  667ERGO    R410389  12.433   6.387   9.774 -0.1622  0.1224 -0.1632
  667ERGO    R510390  12.605   6.520   9.756  0.0066 -0.0789  0.0026
  667ERGO    C110391  12.455   6.559   9.408  0.3986  0.1006 -0.1502
  667ERGO    C210392  12.443   6.586   9.026 -0.2066 -0.0287  0.0487
  668ERGO   ROH10393   2.642   6.170  10.520  0.5122 -0.1098  0.0788
  668ERGO    R110394   2.784   6.220  10.280  0.2161 -0.0336 -0.0840
  668ERGO    R210395   2.892   6.018  10.126  0.1184  0.0243 -0.2252
  668ERGO    R310396   2.747   6.134   9.928 -0.1561 -0.0168 -0.0541
  668ERGO    R410397   2.901   5.923   9.794 -0.0797  0.1672 -0.2734
  668ERGO    R510398   2.894   6.134   9.739 -0.3119  0.1899 -0.1826
  668ERGO    C110399   2.769   5.977   9.414 -0.4526  0.2118 -0.1408
  668ERGO    C210400   2.808   6.008   9.015 -0.1077  0.1096  0.1298
  669ERGO   ROH10401   9.967  16.358  10.510  0.2712  0.0689 -0.0399
  669ERGO    R110402   9.921  16.249  10.253  0.0809  0.1811 -0.0543
  669ERGO    R210403   9.736  16.356  10.078  0.2139  0.4855 -0.0117
  669ERGO    R310404   9.949  16.364   9.909  0.2087  0.2034 -0.0376
  669ERGO    R410405   9.727  16.265   9.744  0.0786  0.3884  0.0167
  669ERGO    R510406   9.922  16.171   9.770 -0.0163  0.1843  0.0251
  669ERGO    C110407   9.922  16.220   9.392 -0.0053  0.0673  0.0088
  669ERGO    C210408   9.860  16.238   9.032 -0.1410 -0.2976 -0.0943
  670ERGO   ROH10409   1.287  14.605  10.426 -0.0004 -0.3063  0.0273
  670ERGO    R110410   1.334  14.528  10.158  0.0058 -0.0858 -0.0363
  670ERGO    R210411   1.136  14.427   9.995  0.0570 -0.1442 -0.0559
  670ERGO    R310412   1.214  14.627   9.829 -0.1513  0.0339  0.0540
  670ERGO    R410413   1.089  14.428   9.652  0.2339 -0.1121 -0.0812
  670ERGO    R510414   1.289  14.514   9.631  0.1273  0.1996  0.0537
  670ERGO    C110415   1.136  14.617   9.297  0.1414  0.0737  0.0073
  670ERGO    C210416   1.205  14.416   8.946 -0.3072  0.0855  0.2761
  671ERGO   ROH10417  15.554  11.261  10.205  0.2459 -0.0117  0.0732
  671ERGO    R110418  15.554  11.451   9.994  0.1439  0.0547  0.1320
  671ERGO    R210419  15.729  11.436   9.780  0.0089  0.0955  0.0194
  671ERGO    R310420  15.500  11.446   9.634 -0.0796  0.1777  0.1613
  671ERGO    R410421  15.715  11.463   9.436 -0.1863  0.1091  0.0275
  671ERGO    R510422  15.548  11.601   9.459 -0.1292  0.1685  0.1356
  671ERGO    C110423  15.492  11.489   9.099 -0.3829  0.1944  0.1655
  671ERGO    C210424  15.499  11.461   8.733 -0.2053  0.0641 -0.0521
  672ERGO   ROH10425   5.152  16.667  10.413  0.1591  0.0639 -0.0089
  672ERGO    R110426   5.131  16.565  10.150  0.0139  0.0616  0.0031
  672ERGO    R210427   4.915  16.619   9.985 -0.0014  0.1886  0.0678
  672ERGO    R310428   5.109  16.702   9.814 -0.0014  0.0556  0.0008
  672ERGO    R410429   4.901  16.590   9.641 -0.1022  0.1123  0.0774
  672ERGO    R510430   5.111  16.536   9.641 -0.1250  0.0100  0.0388
  672ERGO    C110431   5.074  16.652   9.280 -0.1609 -0.0571  0.0202
  672ERGO    C210432   5.191  16.770   8.879 -0.2261  0.2649  0.0143
  673ERGO   ROH10433   1.699   2.334  10.332  0.2027 -0.0774 -0.0524
  673ERGO    R110434   1.742   2.200  10.086 -0.0316 -0.1461 -0.0588
  673ERGO    R210435   1.554   2.196   9.884 -0.1286  0.0080  0.0238
  673ERGO    R310436   1.760   2.292   9.734 -0.1018 -0.1989 -0.0757
  673ERGO    R410437   1.547   2.236   9.540 -0.2713  0.0679  0.0329
  673ERGO    R510438   1.753   2.163   9.533 -0.3559 -0.1603 -0.0926
  673ERGO    C110439   1.737   2.349   9.200 -0.3292 -0.0914 -0.0552
  673ERGO    C210440   1.782   2.344   8.944 -0.1419 -0.0796 -0.0673
  674PSPI    C110441   1.121   7.007   5.606 -0.2284 -0.1864 -0.1177
  674PSPI    C210442   1.476   6.897   5.458 -0.2070 -0.0022 -0.2065
  674PSPI    C310443   1.334   7.264   5.385 -0.2329  0.0660  0.1646
  674PSPI   PO410444   1.102   6.868   5.905  0.0425  0.1801  0.2880
  674PSPI   GL110445   0.876   6.855   6.348 -0.2586  0.1698 -0.0300
  674PSPI   GL210446   0.762   6.997   6.590  0.0519 -0.3069  0.2608
  674PSPI   C1A10447   1.084   6.707   6.736 -0.0844  0.0447  0.0742
  674PSPI   C2A10448   1.043   6.520   7.063  0.0618 -0.0204  0.1991
  674PSPI   C3A10449   1.340   6.813   7.415  0.0061  0.0823 -0.4860
  674PSPI   C4A10450   1.477   6.591   7.771  0.2802 -0.2339  0.0286
  674PSPI   C1B10451   0.525   6.699   6.944 -0.4754 -0.1485 -0.1415
  674PSPI   C2B10452   0.595   6.383   7.233 -0.3937  0.1210 -0.2156
  674PSPI   C3B10453   0.550   6.259   7.785 -0.0701 -0.1376  0.1229
  674PSPI   C4B10454   0.859   6.028   8.048 -0.1178 -0.1469 -0.3278
  675PSPI    C110455  13.092  14.587   6.232 -0.0920  0.2750  0.0971
  675PSPI    C210456  12.774  14.553   5.992  0.0910  0.0424 -0.1178
  675PSPI    C310457  13.115  14.708   5.852  0.1080  0.1875  0.0801
  675PSPI   PO410458  13.024  14.400   6.435  0.1840  0.3350  0.1114
  675PSPI   GL110459  12.843  14.008   6.699  0.2906  0.1117 -0.0491
  675PSPI   GL210460  12.509  13.778   6.579  0.1751 -0.1409  0.0149
  675PSPI   C1A10461  12.969  13.643   6.933  0.2344  0.0970  0.2023
  675PSPI   C2A10462  12.981  13.370   7.287 -0.2312 -0.0371  0.1457
  675PSPI   C3A10463  13.173  13.283   7.562 -0.2207 -0.1169 -0.0277
  675PSPI   C4A10464  13.294  12.914   7.919 -0.3936 -0.1178  0.1815
  675PSPI   C1B10465  12.466  13.387   6.863 -0.1942  0.0776 -0.1239
  675PSPI   C2B10466  12.463  13.254   7.264 -0.1367 -0.0335  0.1829
  675PSPI   C3B10467  12.697  13.102   7.594 -0.2007 -0.3388 -0.1153
  675PSPI   C4B10468  12.746  13.047   8.003 -0.0849 -0.1263  0.3647
  676PSPI    C110469  17.119  15.676   5.636 -0.1470 -0.0077  0.0594
  676PSPI    C210470  16.796  15.509   5.802 -0.0031 -0.3099  0.0417
  676PSPI    C310471  17.068  15.279   5.620  0.1693 -0.0469 -0.0370
  676PSPI   PO410472  17.202  15.838   5.864  0.1290 -0.4314  0.4345
  676PSPI   GL110473  16.991  15.773   6.262  0.1595  0.3409  0.0887
  676PSPI   GL210474  17.242  15.619   6.438  0.1833  0.0575  0.4497
  676PSPI   C1A10475  16.814  15.950   6.565 -0.1229  0.0551 -0.4331
  676PSPI   C2A10476  16.896  16.103   7.029  0.3397  0.2399 -0.1035
  676PSPI   C3A10477  16.968  16.334   7.376  0.2969 -0.0720  0.0152
  676PSPI   C4A10478  17.130  16.311   7.835 -0.0508  0.1127 -0.2039
  676PSPI   C1B10479  17.290  15.989   6.689  0.0204  0.0576 -0.0929
  676PSPI   C2B10480  17.346  16.033   7.156  0.1420  0.0869  0.1792
  676PSPI   C3B10481  17.446  15.963   7.493  0.4221 -0.2038  0.0816
  676PSPI   C4B10482  17.385  15.917   8.013  0.1141  0.0792 -0.1160
  677PSPI    C110483  13.322   3.004   5.777 -0.0375 -0.0413  0.0633
  677PSPI    C210484  13.072   3.316   5.763 -0.1096 -0.0906  0.2233
  677PSPI    C310485  12.998   2.991   5.542 -0.0233  0.0124  0.0407
  677PSPI   PO410486  13.360   3.012   6.038 -0.2031 -0.0030  0.1881
  677PSPI   GL110487  13.294   3.024   6.543  0.0126  0.4041 -0.2468
  677PSPI   GL210488  13.323   3.265   6.771 -0.1034 -0.2746  0.2048
  677PSPI   C1A10489  13.198   2.579   6.708 -0.2447  0.2431  0.0382
  677PSPI   C2A10490  13.356   2.378   7.078 -0.0214 -0.1372  0.0720
  677PSPI   C3A10491  13.164   2.174   7.457  0.1688 -0.1455 -0.0403
  677PSPI   C4A10492  13.067   2.055   7.813  0.0667  0.1941 -0.2983
  677PSPI   C1B10493  13.628   3.502   6.895  0.1780 -0.1343  0.3477
  677PSPI   C2B10494  13.856   3.680   7.223 -0.2340  0.1039  0.1848
  677PSPI   C3B10495  14.044   3.459   7.628  0.0707 -0.2920 -0.0356
  677PSPI   C4B10496  14.131   3.384   8.043 -0.2685 -0.3439  0.1017
  678PSPI    C110497  16.802   0.537   6.066  0.0897  0.1178  0.0686
  678PSPI    C210498  16.707   0.909   5.955 -0.0118  0.0500 -0.0756
  678PSPI    C310499  16.581   0.598   5.738 -0.1157 -0.0801  0.1674
  678PSPI   PO410500  16.722   0.487   6.338 -0.2582  0.1936 -0.2445
  678PSPI   GL110501  16.770   0.685   6.664  0.4482  0.0741 -0.1372
  678PSPI   GL210502  16.914   0.910   6.767  0.3118  0.2219  0.0979
  678PSPI   C1A10503  16.769   0.547   7.056 -0.1208  0.1273  0.0674
  678PSPI   C2A10504  16.714   0.612   7.470 -0.1901  0.2320 -0.1697
  678PSPI   C3A10505  17.014   0.330   7.750 -0.3404  0.2065 -0.0539
  678PSPI   C4A10506  17.249  -0.034   7.762  0.3143  0.2801  0.1315
  678PSPI   C1B10507  16.792   1.016   7.157 -0.2601  0.2466 -0.4553
  678PSPI   C2B10508  16.861   1.189   7.586 -0.2202 -0.0998  0.0747
  678PSPI   C3B10509  16.836   1.363   7.971  0.0987  0.0281  0.0958
  678PSPI   C4B10510  16.691   1.746   8.265 -0.0028 -0.0433 -0.1195
  679PSPI    C110511  16.002   5.913   5.643 -0.0025  0.1555 -0.0486
  679PSPI    C210512  16.303   5.650   5.647 -0.2555 -0.1477 -0.3348
  679PSPI    C310513  16.320   5.968   5.406  0.0586  0.1169  0.0243
  679PSPI   PO410514  16.004   5.997   5.893  0.1619 -0.0045  0.1108
  679PSPI   GL110515  16.201   6.348   6.141  0.0149  0.2252  0.2808
  679PSPI   GL210516  16.505   6.515   6.353  0.0331 -0.0115 -0.1282
  679PSPI   C1A10517  15.774   6.455   6.444 -0.0104 -0.1294  0.0458
  679PSPI   C2A10518  15.535   6.595   6.781  0.1579  0.0086  0.5604
  679PSPI   C3A10519  15.424   6.656   7.249  0.0723  0.3019 -0.2709
  679PSPI   C4A10520  15.289   6.788   7.622 -0.1053 -0.0317 -0.2746
  679PSPI   C1B10521  16.289   6.464   6.779  0.3853 -0.2204 -0.0502
  679PSPI   C2B10522  16.021   6.608   7.097 -0.2392  0.2314  0.0703
  679PSPI   C3B10523  15.899   6.560   7.554 -0.1071  0.3475  0.0320
  679PSPI   C4B10524  15.701   6.389   7.856 -0.0522 -0.1526 -0.1521
  680PSPI    C110525   7.648   8.434   5.721  0.1475 -0.1418 -0.1465
  680PSPI    C210526   7.749   8.053   5.655  0.1660 -0.1052 -0.3334
  680PSPI    C310527   7.372   8.173   5.596  0.0998 -0.1524 -0.0204
  680PSPI   PO410528   7.832   8.464   5.901 -0.2225 -0.3424 -0.2209
  680PSPI   GL110529   8.147   8.394   6.315  0.1938 -0.0979 -0.1135
  680PSPI   GL210530   8.283   8.388   6.645 -0.1054 -0.0768  0.3764
  680PSPI   C1A10531   7.846   8.522   6.765  0.1797  0.1003  0.0860
  680PSPI   C2A10532   7.547   8.332   7.005 -0.0375 -0.0386 -0.0970
  680PSPI   C3A10533   7.320   8.400   7.326  0.1735  0.0476 -0.0275
  680PSPI   C4A10534   7.105   8.405   7.763  0.1206  0.1487  0.1924
  680PSPI   C1B10535   8.254   8.421   7.094 -0.1550 -0.1639 -0.1449
  680PSPI   C2B10536   8.271   8.545   7.586  0.1823 -0.2014  0.1635
  680PSPI   C3B10537   8.387   8.764   7.932 -0.0247 -0.1498  0.1568
  680PSPI   C4B10538   8.371   8.909   8.293 -0.1221  0.0422 -0.0582
  681PSPI    C110539   1.561  13.066   5.992  0.1563 -0.0379  0.0737
  681PSPI    C210540   1.508  13.258   5.645  0.1916  0.1207  0.1546
  681PSPI    C310541   1.195  13.095   5.833  0.1459  0.1847  0.1344
  681PSPI   PO410542   1.758  13.249   6.135 -0.0449 -0.1762  0.0795
  681PSPI   GL110543   1.817  13.233   6.607  0.0668  0.1813 -0.1869
  681PSPI   GL210544   2.226  13.374   6.651 -0.1144  0.0152  0.2299
  681PSPI   C1A10545   1.725  13.072   6.999  0.0934 -0.1177  0.1236
  681PSPI   C2A10546   1.731  12.907   7.535  0.0548 -0.2201  0.1444
  681PSPI   C3A10547   1.749  12.779   7.980  0.1128 -0.0492 -0.0826
  681PSPI   C4A10548   1.791  12.710   8.350 -0.0447  0.1627 -0.2349
  681PSPI   C1B10549   2.217  13.248   6.964  0.2780 -0.4007 -0.0448
  681PSPI   C2B10550   2.079  13.236   7.350 -0.0225  0.0885  0.0236
  681PSPI   C3B10551   2.076  13.163   7.741  0.0579 -0.3577  0.0300
  681PSPI   C4B10552   2.434  13.337   7.948 -0.1791  0.0722 -0.3578
  682PSPI    C110553  11.931   5.922   6.025 -0.0116 -0.0836  0.0656
  682PSPI    C210554  11.574   5.826   5.871  0.0813 -0.1529 -0.1085
  682PSPI    C310555  11.831   6.047   5.658 -0.0556  0.3323  0.2137
  682PSPI   PO410556  11.819   6.013   6.272 -0.2152  0.0204  0.2043
  682PSPI   GL110557  11.634   6.364   6.436  0.0913 -0.0543  0.1563
  682PSPI   GL210558  11.435   6.517   6.552  0.0009 -0.2521 -0.0842
  682PSPI   C1A10559  11.781   6.289   6.876 -0.2381  0.0612 -0.4244
  682PSPI   C2A10560  11.698   6.550   7.250 -0.1251  0.0357  0.0554
  682PSPI   C3A10561  11.513   6.560   7.607 -0.3298 -0.1122 -0.0667
  682PSPI   C4A10562  11.507   6.697   8.027 -0.0977 -0.0391 -0.0627
  682PSPI   C1B10563  11.353   6.697   6.898  0.2740 -0.0563  0.0619
  682PSPI   C2B10564  11.234   6.831   7.310 -0.0390  0.0256  0.1201
  682PSPI   C3B10565  11.300   7.053   7.715 -0.1511 -0.0323 -0.1217
  682PSPI   C4B10566  11.346   7.581   7.770  0.0519 -0.0168  0.3050
  683PSPI    C110567  12.089  14.696   6.419  0.1362 -0.1980  0.0011
  683PSPI    C210568  12.322  14.833   6.124 -0.0621  0.1598  0.0053
  683PSPI    C310569  11.936  14.756   6.054 -0.0314 -0.0802  0.0898
  683PSPI   PO410570  12.123  14.871   6.579  0.1570  0.2197  0.0508
  683PSPI   GL110571  11.839  15.121   6.822  0.0165 -0.0208  0.3243
  683PSPI   GL210572  11.518  15.111   6.965  0.3459 -0.0712  0.0698
  683PSPI   C1A10573  12.083  15.122   7.251 -0.0553 -0.1951 -0.0949
  683PSPI   C2A10574  12.151  15.254   7.640 -0.1866 -0.0868 -0.0249
  683PSPI   C3A10575  12.060  15.561   8.019  0.0952  0.1797  0.0913
  683PSPI   C4A10576  11.850  15.672   8.332  0.0367  0.1937 -0.2172
  683PSPI   C1B10577  11.125  15.234   7.199  0.1437 -0.1663  0.1782
  683PSPI   C2B10578  10.793  15.535   7.388  0.0866  0.0087  0.2934
  683PSPI   C3B10579  10.669  15.417   7.739 -0.0884 -0.1594 -0.0096
  683PSPI   C4B10580  10.572  15.346   8.182  0.0892  0.0402 -0.1282
  684PSPI    C110581  12.254  14.283   6.173 -0.0069  0.0926 -0.1234
  684PSPI    C210582  12.340  14.390   5.797  0.1814  0.0088 -0.1054
  684PSPI    C310583  12.199  14.023   5.874 -0.0149  0.0815 -0.1124
  684PSPI   PO410584  12.467  14.330   6.309  0.0509  0.4440 -0.1550
  684PSPI   GL110585  12.438  14.297   6.743 -0.1763  0.0417  0.1303
  684PSPI   GL210586  12.287  14.528   6.909 -0.1798  0.0118  0.0347
  684PSPI   C1A10587  12.584  14.268   7.171 -0.0378  0.0283 -0.0963
  684PSPI   C2A10588  12.532  14.307   7.599  0.0896  0.0443 -0.1999
  684PSPI   C3A10589  12.819  14.127   7.884 -0.1233  0.1155 -0.0686
  684PSPI   C4A10590  12.915  13.957   8.276 -0.0784  0.1171 -0.0820
  684PSPI   C1B10591  12.380  14.704   7.313 -0.0346 -0.1043 -0.1814
  684PSPI   C2B10592  12.458  14.844   7.709 -0.0207 -0.1887 -0.3520
  684PSPI   C3B10593  12.691  14.971   8.067 -0.0247 -0.0467  0.2551
  684PSPI   C4B10594  13.178  14.921   8.040 -0.0822  0.1357  0.1510
  685PSPI    C110595  13.242   9.022   5.768  0.1327 -0.0797  0.1229
  685PSPI    C210596  12.909   9.241   5.747  0.3176  0.2231  0.2734
  685PSPI    C310597  13.199   9.291   5.476  0.1112 -0.2726 -0.0539
  685PSPI   PO410598  13.227   8.951   6.080  0.1353 -0.0686 -0.0821
  685PSPI   GL110599  12.975   8.834   6.356 -0.0594 -0.2659  0.1135
  685PSPI   GL210600  13.133   8.456   6.424 -0.0285  0.1291  0.0551
  685PSPI   C1A10601  13.216   8.891   6.741  0.0456  0.2064 -0.2893
  685PSPI   C2A10602  13.654   8.964   7.068  0.0516 -0.0447  0.0254
  685PSPI   C3A10603  13.918   8.956   7.406  0.1160 -0.4477 -0.1159
  685PSPI   C4A10604  14.296   8.887   7.576  0.2215  0.4217  0.1510
  685PSPI   C1B10605  13.351   8.008   6.573 -0.4203 -0.1683 -0.0658
  685PSPI   C2B10606  13.720   7.951   6.675 -0.0703  0.2382  0.2014
  685PSPI   C3B10607  13.935   7.598   6.711  0.1381  0.2844 -0.1625
  685PSPI   C4B10608  14.325   7.411   6.598  0.0659  0.0422  0.1298
  686PSPI    C110609   1.153   1.292   6.136  0.1115 -0.0245 -0.0104
  686PSPI    C210610   1.522   1.145   6.088  0.0774 -0.0316 -0.2659
  686PSPI    C310611   1.450   1.532   6.018  0.0772  0.0160 -0.0145
  686PSPI   PO410612   1.055   1.196   6.411  0.1773 -0.0423  0.0825
  686PSPI   GL110613   0.811   1.192   6.712 -0.2812  0.1734 -0.0057
  686PSPI   GL210614   0.537   1.100   6.662  0.0456 -0.0775  0.0549
  686PSPI   C1A10615   0.935   1.343   7.198 -0.0258  0.6108 -0.1797
  686PSPI   C2A10616   1.036   1.742   7.331  0.0747 -0.1652 -0.1426
  686PSPI   C3A10617   0.946   2.009   7.639  0.1961 -0.0505 -0.0036
  686PSPI   C4A10618   1.058   2.161   8.059  0.0027 -0.1262 -0.0959
  686PSPI   C1B10619   0.590   0.964   7.059 -0.1704 -0.0165 -0.2720
  686PSPI   C2B10620   0.476   1.278   7.488  0.1836  0.1299  0.2201
  686PSPI   C3B10621   0.187   1.294   7.779  0.2487 -0.2349 -0.1710
  686PSPI   C4B10622   0.031   1.285   8.156  0.2504 -0.1630 -0.3469
  687PSPI    C110623   3.440   7.996   5.542 -0.1315 -0.0510  0.1825
  687PSPI    C210624   3.783   7.793   5.501 -0.0427  0.1619 -0.1827
  687PSPI    C310625   3.440   7.637   5.367 -0.1053 -0.0778  0.2372
  687PSPI   PO410626   3.481   8.117   5.830  0.2683 -0.1288  0.0902
  687PSPI   GL110627   3.412   8.051   6.250 -0.3584  0.0157  0.1690
  687PSPI   GL210628   3.690   8.164   6.341  0.0282  0.0493  0.0262
  687PSPI   C1A10629   3.153   7.982   6.483 -0.2527 -0.0041 -0.1374
  687PSPI   C2A10630   3.038   7.848   6.978 -0.1306 -0.0035 -0.1659
  687PSPI   C3A10631   2.782   7.704   7.368  0.0030  0.6342  0.1449
  687PSPI   C4A10632   2.625   7.555   7.755  0.2168 -0.1710 -0.1513
  687PSPI   C1B10633   3.765   8.199   6.743  0.0869 -0.1232  0.1918
  687PSPI   C2B10634   3.818   8.139   7.214  0.0498  0.0739  0.0915
  687PSPI   C3B10635   3.757   7.847   7.582  0.0029 -0.1245  0.1821
  687PSPI   C4B10636   3.480   7.722   8.018 -0.0820 -0.2088  0.1224
  688PSPI    C110637   1.973   6.871   5.548  0.0365 -0.1235  0.1547
  688PSPI    C210638   2.337   6.712   5.500 -0.0082 -0.1097 -0.2663
  688PSPI    C310639   2.041   6.614   5.250 -0.2861 -0.0875  0.0467
  688PSPI   PO410640   1.904   6.833   5.758  0.2165 -0.2484 -0.1112
  688PSPI   GL110641   1.810   6.760   6.205 -0.0534 -0.2331  0.1502
  688PSPI   GL210642   2.004   6.925   6.324 -0.4126 -0.1180 -0.1701
  688PSPI   C1A10643   1.553   6.546   6.532 -0.1998  0.0038 -0.1412
  688PSPI   C2A10644   1.277   6.218   6.773 -0.0112 -0.0730  0.0661
  688PSPI   C3A10645   0.952   6.011   7.065  0.4790 -0.1897 -0.0432
  688PSPI   C4A10646   0.591   5.832   7.427  0.2953 -0.0410  0.1855
  688PSPI   C1B10647   1.896   6.825   6.766 -0.0471 -0.2127 -0.0689
  688PSPI   C2B10648   1.661   6.512   7.024  0.4175 -0.0656  0.1689
  688PSPI   C3B10649   1.387   6.285   7.368 -0.1267 -0.2105  0.3542
  688PSPI   C4B10650   0.973   6.506   7.614  0.1075  0.0309  0.2611
  689PSPI    C110651   7.669   0.101   5.955 -0.2843 -0.1224 -0.1092
  689PSPI    C210652   7.671   0.472   5.806  0.1854 -0.0966 -0.0523
  689PSPI    C310653   7.472   0.182   5.616 -0.0985  0.1588 -0.1537
  689PSPI   PO410654   7.683   0.198   6.280 -0.0247 -0.0798  0.3174
  689PSPI   GL110655   7.682  -0.055   6.720 -0.5460  0.0244  0.3069
  689PSPI   GL210656   8.014   0.080   6.709  0.3452 -0.0254  0.0712
  689PSPI   C1A10657   7.632  -0.310   7.114  0.1159  0.2294  0.1361
  689PSPI   C2A10658   7.420  -0.371   7.370 -0.1259 -0.0703 -0.1920
  689PSPI   C3A10659   7.262  -0.414   7.725  0.1471  0.0803 -0.1103
  689PSPI   C4A10660   7.070  -0.077   7.916 -0.1488 -0.1957 -0.1958
  689PSPI   C1B10661   8.056   0.087   7.164 -0.0513 -0.1591  0.0625
  689PSPI   C2B10662   8.222   0.116   7.561 -0.0971  0.2132 -0.0829
  689PSPI   C3B10663   8.580   0.298   7.910  0.2031  0.1564  0.1622
  689PSPI   C4B10664   8.658   0.354   8.310  0.0223 -0.0104  0.0657
  690PSPI    C110665  13.632  12.621   5.792 -0.0027  0.1042  0.0209
  690PSPI    C210666  13.667  13.008   5.693 -0.2901  0.0811 -0.1833
  690PSPI    C310667  13.651  12.729   5.407  0.0278 -0.0955 -0.0346
  690PSPI   PO410668  13.369  12.665   5.975 -0.2757  0.2418  0.2646
  690PSPI   GL110669  13.256  12.977   6.351 -0.1268  0.2159 -0.1121
  690PSPI   GL210670  13.600  12.972   6.371  0.1582  0.3889 -0.2971
  690PSPI   C1A10671  13.287  12.755   6.829  0.1450 -0.0635  0.0120
  690PSPI   C2A10672  13.439  12.684   7.225  0.2150  0.1151  0.0513
  690PSPI   C3A10673  13.745  12.715   7.597 -0.1254 -0.1012  0.1148
  690PSPI   C4A10674  13.760  12.782   8.047 -0.1387 -0.0386 -0.1011
  690PSPI   C1B10675  13.757  12.927   6.785 -0.0463 -0.1196 -0.3390
  690PSPI   C2B10676  13.941  12.820   7.150 -0.0106  0.1250  0.1404
  690PSPI   C3B10677  14.253  12.797   7.533  0.2320 -0.0954  0.0470
  690PSPI   C4B10678  14.356  12.635   7.961 -0.1656  0.2658  0.0491
  691PSPI    C110679  11.323  11.377   5.751 -0.1952 -0.0947 -0.2910
  691PSPI    C210680  11.412  11.717   5.560  0.0242 -0.0052 -0.0362
  691PSPI    C310681  11.037  11.577   5.556 -0.0881  0.2903 -0.0625
  691PSPI   PO410682  11.561  11.411   5.956 -0.0086  0.2442 -0.2991
  691PSPI   GL110683  11.586  11.297   6.326 -0.2629 -0.1958 -0.0742
  691PSPI   GL210684  11.899  11.356   6.392 -0.0624 -0.1686  0.1002
  691PSPI   C1A10685  11.466  11.369   6.750  0.1514 -0.1052 -0.0980
  691PSPI   C2A10686  11.404  11.522   7.189  0.1614  0.3761 -0.0586
  691PSPI   C3A10687  11.168  11.501   7.588 -0.2066  0.2230  0.0391
  691PSPI   C4A10688  11.079  11.467   8.015 -0.0847 -0.1628  0.0527
  691PSPI   C1B10689  12.155  11.484   6.771 -0.2050 -0.1018 -0.1423
  691PSPI   C2B10690  12.263  11.607   7.130  0.2913 -0.0013  0.3867
  691PSPI   C3B10691  12.242  11.525   7.612 -0.2057  0.0710  0.3395
  691PSPI   C4B10692  12.012  11.378   7.996  0.1085 -0.3401  0.6678
  692PSPI    C110693   8.403   4.979   5.946 -0.0667  0.1016  0.2583
  692PSPI    C210694   8.711   5.215   5.850 -0.0848  0.0214 -0.0048
  692PSPI    C310695   8.347   5.292   5.703 -0.1897  0.1066  0.2922
  692PSPI   PO410696   8.649   4.876   6.272 -0.0018  0.0876 -0.1151
  692PSPI   GL110697   8.574   4.852   6.689 -0.1740  0.2248 -0.1907
  692PSPI   GL210698   8.726   4.904   7.016 -0.3279 -0.4199  0.1479
  692PSPI   C1A10699   8.286   4.586   6.878  0.2711  0.0016  0.2262
  692PSPI   C2A10700   8.212   4.582   7.266  0.0691  0.0578  0.1939
  692PSPI   C3A10701   8.028   4.665   7.717  0.0115  0.0549  0.0766
  692PSPI   C4A10702   8.073   4.632   8.107 -0.0939  0.1438 -0.0159
  692PSPI   C1B10703   8.609   4.819   7.443  0.0500  0.0531 -0.2632
  692PSPI   C2B10704   8.474   4.840   7.860 -0.0864 -0.0084 -0.1345
  692PSPI   C3B10705   8.466   4.913   8.265  0.1163 -0.5800 -0.0535
  692PSPI   C4B10706   8.503   4.745   8.646 -0.2464  0.1829 -0.3727
  693POPI    C110707  13.234  13.819   5.583 -0.0164  0.0991  0.0786
  693POPI    C210708  13.565  13.594   5.569  0.0937  0.2533  0.1703
  693POPI    C310709  13.331  13.626   5.246 -0.0058 -0.1130  0.2011
  693POPI   PO410710  13.091  13.677   5.897  0.2755  0.2459 -0.1182
  693POPI   GL110711  13.051  13.505   6.343 -0.1527  0.1731  0.3769
  693POPI   GL210712  12.845  13.334   6.457  0.3498 -0.0005  0.0211
  693POPI   C1A10713  13.397  13.312   6.694 -0.1455 -0.1166  0.0671
  693POPI   D2A10714  13.462  13.213   7.066  0.3018 -0.0999  0.0291
  693POPI   C3A10715  13.768  13.258   7.334  0.1817  0.1814  0.2454
  693POPI   C4A10716  14.097  13.205   7.801  0.0887  0.0567  0.1164
  693POPI   C1B10717  12.881  13.130   6.805 -0.2691  0.2813  0.0447
  693POPI   C2B10718  12.887  12.838   7.159  0.3440 -0.1796  0.0201
  693POPI   C3B10719  13.064  12.641   7.537 -0.0460 -0.1893 -0.0030
  693POPI   C4B10720  13.406  12.378   7.802 -0.0170 -0.0336  0.2149
  694POPI    C110721   9.972  16.856   5.746 -0.1551  0.0555  0.0959
  694POPI    C210722   9.630  17.032   5.639 -0.2209 -0.1628 -0.0602
  694POPI    C310723   9.864  16.865   5.361 -0.0692 -0.1615  0.0654
  694POPI   PO410724  10.026  17.002   6.017  0.0171  0.1013 -0.0432
  694POPI   GL110725  10.070  16.976   6.465 -0.1123  0.0320 -0.1987
  694POPI   GL210726  10.088  16.600   6.566  0.2358  0.1534 -0.1770
  694POPI   C1A10727  10.119  17.255   6.810  0.2428  0.0068 -0.0092
  694POPI   D2A10728  10.248  17.493   7.100 -0.3139  0.3054 -0.0568
  694POPI   C3A10729  10.082  17.626   7.484 -0.0408  0.0690  0.0759
  694POPI   C4A10730  10.073  17.800   7.869 -0.0859  0.0158  0.0008
  694POPI   C1B10731  10.177  16.701   7.012 -0.1257 -0.1149 -0.1590
  694POPI   C2B10732  10.274  16.610   7.459  0.1537  0.0529  0.3370
  694POPI   C3B10733  10.296  16.269   7.699  0.1015  0.1251 -0.0518
  694POPI   C4B10734  10.456  15.877   7.444  0.2803  0.1969 -0.0796
  695POPI    C110735   2.687  13.679   6.083 -0.1351  0.2005  0.0265
  695POPI    C210736   2.337  13.792   5.927 -0.1379  0.1887  0.0242
  695POPI    C310737   2.555  13.511   5.745 -0.1658  0.1375  0.0698
  695POPI   PO410738   2.597  13.604   6.375  0.1061 -0.0960 -0.0603
  695POPI   GL110739   2.823  13.430   6.743  0.2194 -0.0252 -0.0577
  695POPI   GL210740   2.775  13.133   7.017 -0.0485  0.1933  0.0457
  695POPI   C1A10741   2.941  13.596   7.154  0.2761  0.3196  0.2193
  695POPI   D2A10742   2.964  13.818   7.455 -0.3431 -0.2359 -0.1196
  695POPI   C3A10743   3.150  13.729   7.831 -0.2287  0.3303  0.1506
  695POPI   C4A10744   3.212  13.748   8.326  0.0247  0.0434 -0.0896
  695POPI   C1B10745   2.544  13.024   7.344 -0.1124  0.1270 -0.2246
  695POPI   C2B10746   2.502  12.865   7.736 -0.1626 -0.2032 -0.3706
  695POPI   C3B10747   2.525  12.872   8.188 -0.2638 -0.0667 -0.0518
  695POPI   C4B10748   2.621  13.036   8.564 -0.0226 -0.0056  0.1429
  696POPI    C110749   7.361   9.349   5.874  0.2076  0.1390 -0.0386
  696POPI    C210750   7.457   9.735   5.842  0.2601  0.1394  0.1120
  696POPI    C310751   7.672   9.459   5.649 -0.0416  0.2172 -0.3519
  696POPI   PO410752   7.089   9.481   6.083 -0.4015  0.1198  0.2532
  696POPI   GL110753   7.151   9.508   6.556  0.3422  0.0575 -0.2347
  696POPI   GL210754   6.978   9.543   6.771  0.0541  0.0612 -0.1568
  696POPI   C1A10755   7.350   9.209   6.817  0.0163 -0.0438 -0.5698
  696POPI   D2A10756   7.558   9.233   7.187  0.0065 -0.2112 -0.0716
  696POPI   C3A10757   7.593   9.365   7.467 -0.1860  0.0749 -0.0908
  696POPI   C4A10758   7.302   9.383   7.797 -0.0057 -0.1803  0.0577
  696POPI   C1B10759   7.060   9.367   7.220 -0.1226  0.1934 -0.1313
  696POPI   C2B10760   6.871   9.507   7.595  0.0042  0.5440  0.0591
  696POPI   C3B10761   6.641   9.583   7.915 -0.0463 -0.4085  0.1294
  696POPI   C4B10762   6.869   9.730   8.308 -0.1799  0.0033  0.0056
  697POPI    C110763  16.888  14.525   5.803 -0.1107 -0.1313  0.1451
  697POPI    C210764  16.962  14.138   5.737  0.0195 -0.0887  0.0376
  697POPI    C310765  16.772  14.355   5.460 -0.2401 -0.1241  0.1844
  697POPI   PO410766  16.806  14.564   6.002  0.0912  0.1945  0.1125
  697POPI   GL110767  16.791  14.294   6.342  0.1995 -0.1220 -0.2077
  697POPI   GL210768  16.660  13.976   6.418  0.1221  0.2806 -0.0735
  697POPI   C1A10769  16.842  14.431   6.731  0.1771  0.0060  0.1377
  697POPI   D2A10770  17.068  14.448   7.091 -0.1683  0.0629 -0.1325
  697POPI   C3A10771  17.030  14.421   7.490  0.2478 -0.1377 -0.2334
  697POPI   C4A10772  16.882  14.061   7.904  0.0395 -0.0122  0.0673
  697POPI   C1B10773  16.499  14.061   6.731  0.1305 -0.1477  0.0722
  697POPI   C2B10774  16.431  14.258   7.145  0.1534 -0.1401  0.2417
  697POPI   C3B10775  16.507  14.361   7.655  0.0494  0.0814  0.1565
  697POPI   C4B10776  16.815  14.544   7.973  0.3322 -0.1884  0.3272
  698POPI    C110777   0.601  11.504   5.856  0.0920 -0.0159 -0.0700
  698POPI    C210778   0.831  11.405   6.168 -0.0278 -0.1235 -0.0149
  698POPI    C310779   0.990  11.598   5.855  0.0685  0.0896  0.1629
  698POPI   PO410780   0.402  11.712   5.974 -0.3105 -0.0979  0.3080
  698POPI   GL110781   0.319  11.775   6.442 -0.2262 -0.3032 -0.0947
  698POPI   GL210782   0.462  12.070   6.609  0.0985  0.0876 -0.3459
  698POPI   C1A10783   0.733  11.630   6.632  0.0099  0.1955 -0.3482
  698POPI   D2A10784   1.043  11.873   6.850  0.1057  0.2818 -0.0312
  698POPI   C3A10785   0.951  11.898   7.294 -0.1338  0.0123 -0.0195
  698POPI   C4A10786   0.789  11.978   7.673 -0.1223 -0.3916 -0.1382
  698POPI   C1B10787   0.377  11.906   7.033 -0.0006  0.0884  0.0654
  698POPI   C2B10788   0.420  11.714   7.432 -0.2504  0.2969 -0.3516
  698POPI   C3B10789   0.411  11.631   7.828 -0.0908 -0.0775 -0.0892
  698POPI   C4B10790   0.395  11.327   8.121 -0.1946  0.2794 -0.2793
  699POPI    C110791  14.389   5.396   6.164 -0.2851 -0.1344 -0.0764
  699POPI    C210792  14.518   5.322   5.793 -0.0880  0.1363 -0.0646
  699POPI    C310793  14.128   5.374   5.861 -0.1637 -0.2518 -0.1738
  699POPI   PO410794  14.460   5.133   6.400  0.0914 -0.1476 -0.3337
  699POPI   GL110795  14.659   5.011   6.785 -0.1687 -0.1373  0.1671
  699POPI   GL210796  14.729   4.836   6.969  0.0023  0.0342 -0.2845
  699POPI   C1A10797  14.726   5.357   6.983  0.0484  0.0762 -0.0384
  699POPI   D2A10798  14.789   5.829   7.043 -0.0250 -0.1994  0.2457
  699POPI   C3A10799  14.863   6.025   7.506 -0.2138 -0.2322  0.1276
  699POPI   C4A10800  15.271   6.281   7.648  0.2304 -0.3696  0.0677
  699POPI   C1B10801  14.977   4.952   7.268 -0.0746 -0.0003 -0.3962
  699POPI   C2B10802  15.008   5.325   7.443 -0.0404 -0.2933  0.1824
  699POPI   C3B10803  15.401   5.468   7.670 -0.2772  0.0609  0.2302
  699POPI   C4B10804  15.780   5.400   7.818 -0.0314  0.0473 -0.0439
  700POPI    C110805   7.562  12.132   5.596  0.1618 -0.0569  0.0588
  700POPI    C210806   7.757  12.340   5.314 -0.0002  0.0678  0.0369
  700POPI    C310807   7.486  12.065   5.209  0.0594 -0.0039  0.0694
  700POPI   PO410808   7.502  12.317   5.819  0.1410  0.3551 -0.1239
  700POPI   GL110809   7.443  12.197   6.275 -0.1643 -0.0917  0.1044
  700POPI   GL210810   7.772  12.288   6.525 -0.1375  0.1841  0.1431
  700POPI   C1A10811   7.365  12.016   6.752 -0.0628 -0.1951  0.3100
  700POPI   D2A10812   7.297  12.187   7.154 -0.3304 -0.0864  0.1381
  700POPI   C3A10813   7.299  12.472   7.170  0.0975  0.2732 -0.0550
  700POPI   C4A10814   7.134  12.719   7.450  0.0260 -0.1492 -0.1251
  700POPI   C1B10815   7.714  12.391   6.933 -0.0286 -0.1676  0.1601
  700POPI   C2B10816   7.820  12.128   7.285 -0.0942  0.2942 -0.0380
  700POPI   C3B10817   8.200  12.131   7.601 -0.0894  0.1557  0.0439
  700POPI   C4B10818   8.357  12.200   7.846  0.3222 -0.1880  0.2510
  701POPI    C110819   3.128  17.226   6.120 -0.0598 -0.1040 -0.0919
  701POPI    C210820   3.381  17.531   6.176 -0.1984 -0.0203  0.0838
  701POPI    C310821   3.521  17.157   6.159 -0.0370  0.0452 -0.0503
  701POPI   PO410822   2.944  17.241   6.245 -0.0189 -0.2972  0.1701
  701POPI   GL110823   2.731  17.213   6.634 -0.2690 -0.0702 -0.0106
  701POPI   GL210824   2.817  17.453   6.773 -0.2872  0.0898 -0.0757
  701POPI   C1A10825   2.755  17.064   7.052 -0.2397  0.1075 -0.0516
  701POPI   D2A10826   2.874  17.053   7.438  0.1031 -0.3872  0.2429
  701POPI   C3A10827   2.762  17.037   7.828  0.0686 -0.2835  0.2576
  701POPI   C4A10828   2.818  16.923   8.227 -0.0213  0.3767  0.0615
  701POPI   C1B10829   2.688  17.521   7.137  0.2328 -0.0042  0.1044
  701POPI   C2B10830   2.673  17.598   7.554 -0.2026 -0.0071  0.3214
  701POPI   C3B10831   2.715  17.827   7.951 -0.0126  0.3136  0.1890
  701POPI   C4B10832   2.886  17.878   8.298 -0.0294  0.2546  0.1405
  702POPI    C110833   7.601  16.085   6.049  0.1519  0.2113 -0.0551
  702POPI    C210834   7.995  16.089   5.981  0.1587  0.1038 -0.0249
  702POPI    C310835   7.740  16.188   5.689  0.2012 -0.0055 -0.0996
  702POPI   PO410836   7.543  15.922   6.269  0.0547 -0.0276 -0.0368
  702POPI   GL110837   7.578  15.918   6.698  0.2628 -0.0200  0.4638
  702POPI   GL210838   7.880  16.027   6.836 -0.0289  0.1694  0.0356
  702POPI   C1A10839   7.464  16.157   7.077  0.0281 -0.0639 -0.1732
  702POPI   D2A10840   7.195  15.994   7.327 -0.0864 -0.2137  0.1278
  702POPI   C3A10841   7.323  15.911   7.788 -0.1833 -0.1003  0.0832
  702POPI   C4A10842   7.681  15.948   8.077  0.0367  0.2482  0.1231
  702POPI   C1B10843   7.611  15.684   7.088 -0.0828  0.4919  0.0031
  702POPI   C2B10844   7.817  15.339   7.224 -0.2344  0.0183  0.0800
  702POPI   C3B10845   7.996  15.178   7.595 -0.4896 -0.0447 -0.2245
  702POPI   C4B10846   8.337  15.027   7.899 -0.0013  0.0553  0.0167
  703POPI    C110847   4.776   6.977   5.878 -0.0512  0.0811  0.0492
  703POPI    C210848   4.421   7.133   5.779  0.0237  0.2254  0.0048
  703POPI    C310849   4.577   6.836   5.561 -0.1038  0.1097  0.0693
  703POPI   PO410850   4.840   6.854   6.139  0.3143 -0.2550 -0.0986
  703POPI   GL110851   4.902   7.084   6.498  0.0227 -0.2669 -0.2128
  703POPI   GL210852   5.165   7.250   6.461  0.0768  0.3727  0.0871
  703POPI   C1A10853   4.680   7.238   6.675 -0.0824  0.3604  0.2703
  703POPI   D2A10854   4.633   7.330   7.183  0.2255  0.1907  0.1244
  703POPI   C3A10855   4.780   7.281   7.683 -0.1441 -0.3601 -0.1074
  703POPI   C4A10856   4.745   7.532   8.031  0.1077  0.1975 -0.0906
  703POPI   C1B10857   5.255   7.051   6.802 -0.0127 -0.0828 -0.0421
  703POPI   C2B10858   5.294   6.913   7.203 -0.1025 -0.0934  0.0065
  703POPI   C3B10859   5.118   6.921   7.623 -0.0265  0.0084 -0.1182
  703POPI   C4B10860   5.236   6.547   7.921  0.0946  0.0044 -0.0124
  704POPI    C110861   9.527   5.320   6.098 -0.0574  0.0845 -0.0728
  704POPI    C210862   9.836   5.097   5.976 -0.1077 -0.0046 -0.0379
  704POPI    C310863   9.660   5.351   5.722 -0.0540 -0.0086 -0.0794
  704POPI   PO410864   9.508   5.138   6.389 -0.0427 -0.1467 -0.3434
  704POPI   GL110865   9.508   5.212   6.854 -0.3180  0.0129  0.0680
  704POPI   GL210866   9.549   5.456   6.789 -0.1224  0.1712 -0.1095
  704POPI   C1A10867   9.698   5.241   7.228  0.1194  0.0095  0.0713
  704POPI   D2A10868   9.843   5.061   7.559  0.1742 -0.0900 -0.1122
  704POPI   C3A10869  10.139   5.207   7.790  0.1138 -0.0468 -0.1524
  704POPI   C4A10870  10.328   5.212   8.241  0.0585  0.3555  0.0696
  704POPI   C1B10871   9.432   5.614   7.190 -0.0460 -0.2517 -0.4143
  704POPI   C2B10872   9.259   5.703   7.592  0.1356 -0.0979 -0.1981
  704POPI   C3B10873   9.418   5.815   7.991  0.2026  0.1901  0.1278
  704POPI   C4B10874   9.323   5.720   8.449 -0.0799  0.1877 -0.1915
  705POPI    C110875   6.493  12.210   6.133  0.0654 -0.3712  0.1441
  705POPI    C210876   6.190  12.044   5.930  0.0562 -0.3020  0.1012
  705POPI    C310877   6.527  12.145   5.739 -0.0925  0.1081  0.0452
  705POPI   PO410878   6.536  12.079   6.287  0.0684 -0.1966  0.0418
  705POPI   GL110879   6.583  11.998   6.687 -0.0996  0.1679  0.1278
  705POPI   GL210880   6.778  11.740   6.715  0.0057  0.3369 -0.4457
  705POPI   C1A10881   6.251  11.552   6.826 -0.1488 -0.0283 -0.0233
  705POPI   D2A10882   6.401  11.456   7.241 -0.4094 -0.0212  0.1178
  705POPI   C3A10883   6.307  11.511   7.595  0.0332 -0.0589 -0.0825
  705POPI   C4A10884   6.570  11.312   7.932 -0.0600  0.2058  0.0528
  705POPI   C1B10885   6.935  11.849   7.197 -0.0631  0.0057  0.1758
  705POPI   C2B10886   7.118  11.958   7.546 -0.1852  0.1727 -0.3719
  705POPI   C3B10887   7.201  12.064   7.977 -0.2331 -0.0883 -0.0110
  705POPI   C4B10888   7.431  12.137   8.395  0.0417  0.2203  0.0265
  706POPI    C110889  13.540  14.342   6.043 -0.0630  0.1029  0.1261
  706POPI    C210890  13.504  13.952   5.961  0.2608  0.1393 -0.2165
  706POPI    C310891  13.197  14.199   5.895  0.0069 -0.0732  0.1313
  706POPI   PO410892  13.588  14.389   6.348  0.0341  0.0585 -0.0917
  706POPI   GL110893  13.524  14.320   6.748 -0.1037  0.0084 -0.2976
  706POPI   GL210894  13.258  14.352   6.853  0.0724  0.1818  0.0594
  706POPI   C1A10895  13.812  14.282   7.044 -0.1692 -0.4488 -0.1013
  706POPI   D2A10896  13.988  14.243   7.474  0.1190 -0.0922 -0.0905
  706POPI   C3A10897  13.995  13.822   7.785 -0.1835  0.1934 -0.2882
  706POPI   C4A10898  14.201  13.688   8.148 -0.1940  0.0371 -0.1590
  706POPI   C1B10899  13.047  14.141   7.148  0.0039 -0.1864  0.2747
  706POPI   C2B10900  13.075  13.883   7.406  0.1168  0.2002 -0.1036
  706POPI   C3B10901  13.186  13.828   7.780  0.1477  0.0577 -0.0025
  706POPI   C4B10902  13.286  13.495   8.149 -0.0275 -0.0335 -0.1901
  707POPI    C110903  14.887   9.343   6.201 -0.0556 -0.2098  0.0793
  707POPI    C210904  14.661   9.535   5.932  0.2690  0.1620  0.0633
  707POPI    C310905  14.840   9.190   5.834 -0.0369  0.0244 -0.0223
  707POPI   PO410906  15.080   9.564   6.273  0.0811 -0.0219 -0.1396
  707POPI   GL110907  15.141   9.770   6.565 -0.0145  0.0288  0.2018
  707POPI   GL210908  15.034  10.048   6.608 -0.0764  0.0248  0.1060
  707POPI   C1A10909  15.470   9.574   6.884  0.0386 -0.0047 -0.0752
  707POPI   D2A10910  15.638   9.556   7.334 -0.1695 -0.0367 -0.3060
  707POPI   C3A10911  16.089   9.527   7.515 -0.3661 -0.0110 -0.2197
  707POPI   C4A10912  16.377   9.545   7.833  0.1599  0.0302 -0.2458
  707POPI   C1B10913  15.205   9.988   7.015  0.1910  0.1004 -0.1583
  707POPI   C2B10914  15.381  10.056   7.356 -0.0060 -0.2246 -0.0031
  707POPI   C3B10915  15.416   9.776   7.710  0.1589 -0.1859 -0.0732
  707POPI   C4B10916  15.767   9.826   7.858  0.0508  0.0704 -0.0732
  708POPI    C110917   2.124   9.735   6.300 -0.1594  0.1707  0.0256
  708POPI    C210918   2.398   9.870   6.042  0.0758 -0.1188  0.1185
  708POPI    C310919   2.060   9.705   5.906  0.0227  0.0811  0.0022
  708POPI   PO410920   2.238   9.551   6.431  0.0619 -0.1758  0.1067
  708POPI   GL110921   2.108   9.145   6.733 -0.2311  0.0401  0.0842
  708POPI   GL210922   1.721   9.022   6.737 -0.2209  0.0200  0.1160
  708POPI   C1A10923   1.913   9.190   7.187  0.0633 -0.1781  0.0738
  708POPI   D2A10924   1.828   9.263   7.612  0.0650  0.1567  0.0032
  708POPI   C3A10925   2.104   9.427   7.928  0.0071 -0.1033  0.0961
  708POPI   C4A10926   2.581   9.342   8.050  0.3346 -0.0492  0.0118
  708POPI   C1B10927   1.959   8.599   6.875  0.0649  0.0980  0.5090
  708POPI   C2B10928   2.203   8.145   6.958 -0.0787  0.0524  0.1051
  708POPI   C3B10929   2.308   7.946   7.321  0.0520 -0.0413  0.2182
  708POPI   C4B10930   2.075   7.992   7.673 -0.3404  0.2632  0.1506
  709POPI    C110931   2.597   8.042   5.920  0.3520  0.0206 -0.2397
  709POPI    C210932   2.771   7.909   6.255  0.0098  0.0488 -0.0463
  709POPI    C310933   2.991   8.088   5.973  0.2982  0.0465  0.1723
  709POPI   PO410934   2.325   7.821   6.004  0.0376  0.2288 -0.1023
  709POPI   GL110935   2.228   7.711   6.534 -0.0217 -0.0930  0.1191
  709POPI   GL210936   1.897   7.544   6.608 -0.0194  0.3713 -0.1530
  709POPI   C1A10937   2.388   7.567   6.955  0.0455  0.3238 -0.0795
  709POPI   D2A10938   2.355   7.435   7.303  0.0253  0.1899  0.2434
  709POPI   C3A10939   2.213   7.148   7.551 -0.1532 -0.2942  0.1671
  709POPI   C4A10940   2.353   6.983   7.960  0.0453  0.0884 -0.1110
  709POPI   C1B10941   1.799   7.321   6.957  0.1539  0.0935 -0.1020
  709POPI   C2B10942   1.757   7.135   7.336 -0.0570 -0.0479  0.1044
  709POPI   C3B10943   1.755   7.055   7.783 -0.1118 -0.1466 -0.1798
  709POPI   C4B10944   1.693   7.140   8.216  0.2570 -0.0190 -0.4278
  710POPI    C110945  14.852   8.657   5.909  0.0113 -0.0409 -0.0672
  710POPI    C210946  14.601   8.462   6.151 -0.1015  0.3456  0.1342
  710POPI    C310947  14.847   8.257   5.912 -0.2683 -0.0391  0.2845
  710POPI   PO410948  14.985   8.812   6.180  0.0915 -0.1263  0.0438
  710POPI   GL110949  14.783   8.878   6.601  0.0386  0.0389 -0.3864
  710POPI   GL210950  15.036   9.126   6.640 -0.1792 -0.2526 -0.2227
  710POPI   C1A10951  14.575   8.653   6.867 -0.1418  0.0608 -0.0328
  710POPI   D2A10952  14.580   8.492   7.336 -0.0961  0.2672 -0.2058
  710POPI   C3A10953  14.259   8.351   7.705 -0.1107  0.0984  0.2909
  710POPI   C4A10954  14.319   8.308   8.218 -0.0415 -0.2668  0.2224
  710POPI   C1B10955  14.897   8.947   7.063  0.0195  0.0885  0.0685
  710POPI   C2B10956  14.859   8.867   7.487  0.0232  0.3209  0.0084
  710POPI   C3B10957  14.764   8.508   7.800 -0.3012 -0.0801  0.0314
  710POPI   C4B10958  14.809   8.347   8.228 -0.1164 -0.3124  0.3212
  711POPI    C110959  15.179   5.789   5.903  0.0740 -0.1458 -0.0837
  711POPI    C210960  15.035   5.459   5.730 -0.0437 -0.0634 -0.1439
  711POPI    C310961  14.837   5.629   6.033 -0.0897  0.0667 -0.2460
  711POPI   PO410962  15.472   5.809   5.977  0.1544 -0.2330 -0.1450
  711POPI   GL110963  15.472   5.704   6.445  0.0484  0.4424  0.0040
  711POPI   GL210964  15.535   6.055   6.385  0.2958  0.0360 -0.0351
  711POPI   C1A10965  15.752   5.605   6.803 -0.0761 -0.1598  0.1666
  711POPI   D2A10966  15.675   5.606   7.224 -0.3587 -0.2307 -0.0747
  711POPI   C3A10967  15.284   5.787   7.346 -0.2082 -0.1454  0.2306
  711POPI   C4A10968  15.142   6.197   7.173  0.1763 -0.2665  0.1331
  711POPI   C1B10969  15.383   5.929   6.844  0.0051  0.0224  0.1207
  711POPI   C2B10970  15.244   5.420   6.954 -0.0414 -0.0423  0.1333
  711POPI   C3B10971  15.496   5.059   7.357  0.0047 -0.1515 -0.0338
  711POPI   C4B10972  15.608   4.924   7.837 -0.2841 -0.1764  0.2132
  712POPI    C110973  13.611   9.974   5.906  0.0962  0.1489 -0.1417
  712POPI    C210974  13.801   9.869   5.570  0.4182 -0.3535  0.1831
  712POPI    C310975  13.458   9.690   5.670  0.1292  0.0526 -0.0478
  712POPI   PO410976  13.785  10.165   5.963  0.2545 -0.0452 -0.2954
  712POPI   GL110977  14.019  10.287   6.297  0.0166 -0.2019 -0.1668
  712POPI   GL210978  13.936   9.982   6.421 -0.0076 -0.1408  0.3186
  712POPI   C1A10979  14.054  10.506   6.627  0.0528 -0.0176 -0.3367
  712POPI   D2A10980  14.068  10.554   7.123  0.1631 -0.0170 -0.2176
  712POPI   C3A10981  13.738  10.702   7.397 -0.1655  0.2650  0.2409
  712POPI   C4A10982  13.708  10.955   7.667  0.1759  0.2105 -0.0504
  712POPI   C1B10983  13.914  10.053   6.824  0.0876  0.1186 -0.1769
  712POPI   C2B10984  13.879  10.073   7.291  0.0181 -0.1099  0.1614
  712POPI   C3B10985  13.814  10.298   7.642 -0.1068  0.3515  0.0739
  712POPI   C4B10986  13.671  10.550   7.913  0.0117  0.1142  0.0868
  713POPI    C110987  11.139   0.170   5.815 -0.0980  0.0019 -0.0737
  713POPI    C210988  11.245   0.555   5.788 -0.1233  0.0155  0.0166
  713POPI    C310989  11.303   0.309   5.477  0.0494  0.0529  0.0178
  713POPI   PO410990  11.125   0.151   6.116 -0.2036 -0.0883 -0.2027
  713POPI   GL110991  11.138   0.147   6.526 -0.2560 -0.0708 -0.0503
  713POPI   GL210992  11.462   0.309   6.587  0.0995  0.0292 -0.1261
  713POPI   C1A10993  11.141  -0.033   6.895 -0.2446 -0.1981 -0.5096
  713POPI   D2A10994  11.069   0.044   7.322 -0.3416  0.1416 -0.1621
  713POPI   C3A10995  10.895   0.404   7.477  0.0428  0.1731  0.1666
  713POPI   C4A10996  11.087   0.808   7.602  0.1829  0.0414 -0.0667
  713POPI   C1B10997  11.246   0.451   6.909  0.0173  0.2576  0.1025
  713POPI   C2B10998  11.349   0.486   7.324 -0.2564 -0.1194 -0.1093
  713POPI   C3B10999  11.348   0.422   7.785 -0.1056  0.0726 -0.1222
  713POPI   C4B11000  11.142   0.603   8.163 -0.1161  0.1817  0.1209
  714POPI    C111001  11.960   6.762   6.273 -0.3259  0.0980  0.1884
  714POPI    C211002  11.885   6.884   5.900  0.1436 -0.0629  0.0332
  714POPI    C311003  11.830   6.501   5.999  0.0538 -0.0277  0.1209
  714POPI   PO411004  12.102   6.966   6.394 -0.0109  0.0778  0.1431
  714POPI   GL111005  12.400   6.951   6.775  0.1273  0.2020 -0.1762
  714POPI   GL211006  12.420   6.700   6.739  0.4549 -0.1706  0.1066
  714POPI   C1A11007  12.404   7.188   7.251  0.1184  0.0513  0.3548
  714POPI   D2A11008  12.390   7.375   7.713 -0.3686 -0.2764  0.0692
  714POPI   C3A11009  12.726   7.141   7.985 -0.3587  0.0328  0.1230
  714POPI   C4A11010  12.837   6.929   8.364 -0.1793  0.2700 -0.0516
  714POPI   C1B11011  12.633   6.594   7.092  0.2227  0.0141  0.1190
  714POPI   C2B11012  12.594   6.416   7.546 -0.0415  0.0968  0.1209
  714POPI   C3B11013  12.344   6.483   7.886  0.0469  0.2306  0.1866
  714POPI   C4B11014  11.917   6.682   7.788  0.1751 -0.2589 -0.0593
  715POPI    C111015  16.865   2.358   6.232 -0.2233 -0.0881  0.1471
  715POPI    C211016  16.524   2.497   6.076 -0.0854 -0.0019 -0.0818
  715POPI    C311017  16.862   2.510   5.862  0.0525 -0.1329  0.1244
  715POPI   PO411018  16.746   2.105   6.386 -0.0216  0.2684  0.0640
  715POPI   GL111019  16.729   1.931   6.748 -0.1619  0.2035  0.1513
  715POPI   GL211020  17.010   1.904   6.865 -0.0538  0.2062 -0.0649
  715POPI   C1A11021  16.447   1.983   7.106 -0.0137  0.3069  0.3315
  715POPI   D2A11022  16.255   1.886   7.485  0.1081  0.1052 -0.1975
  715POPI   C3A11023  16.087   2.032   7.815  0.0278 -0.2312  0.0402
  715POPI   C4A11024  15.867   2.198   8.313  0.0491 -0.1092 -0.0228
  715POPI   C1B11025  17.121   1.962   7.309  0.1428 -0.3040 -0.3330
  715POPI   C2B11026  16.863   2.194   7.433 -0.2475  0.0747  0.1701
  715POPI   C3B11027  16.944   2.394   7.844 -0.2474 -0.2516  0.0475
  715POPI   C4B11028  16.946   2.223   8.239  0.0129  0.2563 -0.0588
  716POPI    C111029  11.574   3.554   6.166 -0.0961  0.0828 -0.2121
  716POPI    C211030  11.695   3.449   5.799  0.0152  0.1037 -0.1818
  716POPI    C311031  11.392   3.255   5.973 -0.1223  0.1780 -0.3360
  716POPI   PO411032  11.802   3.586   6.315  0.0112  0.3395 -0.2484
  716POPI   GL111033  11.949   3.597   6.651  0.1186  0.1558 -0.1543
  716POPI   GL211034  12.201   3.785   6.719  0.1590 -0.0318  0.0847
  716POPI   C1A11035  12.064   3.307   6.962  0.1581  0.3861 -0.2210
  716POPI   D2A11036  12.124   3.301   7.343  0.2576  0.0691  0.4640
  716POPI   C3A11037  11.803   3.308   7.597 -0.0244 -0.0327  0.1460
  716POPI   C4A11038  11.720   3.509   7.919 -0.3404 -0.2586 -0.0536
  716POPI   C1B11039  12.250   3.776   7.151  0.1666 -0.0960  0.1165
  716POPI   C2B11040  12.140   3.676   7.617  0.0104  0.0390 -0.0950
  716POPI   C3B11041  12.215   3.985   7.900  0.0027  0.1328 -0.1108
  716POPI   C4B11042  12.444   4.109   8.321 -0.1901 -0.0308  0.0210
  717POPI    C111043  13.197  16.967   5.982  0.1957  0.1878 -0.3963
  717POPI    C211044  13.166  16.712   5.676  0.1803 -0.0307 -0.2161
  717POPI    C311045  13.351  16.599   6.012 -0.0296  0.1158 -0.0483
  717POPI   PO411046  12.908  16.923   6.198  0.1534 -0.0825 -0.0857
  717POPI   GL111047  12.761  16.814   6.570 -0.1948 -0.3131  0.0679
  717POPI   GL211048  13.078  16.852   6.814 -0.0242  0.1251 -0.2983
  717POPI   C1A11049  12.586  16.991   6.940  0.0071  0.3407 -0.0691
  717POPI   D2A11050  12.388  17.184   7.185 -0.0526  0.1416 -0.0899
  717POPI   C3A11051  12.556  16.845   7.591 -0.0216  0.0841 -0.1735
  717POPI   C4A11052  12.973  16.915   7.783  0.2621 -0.0840 -0.0634
  717POPI   C1B11053  12.977  16.804   7.315  0.1071  0.0057  0.1563
  717POPI   C2B11054  12.930  16.518   7.500 -0.1553 -0.0729  0.0175
  717POPI   C3B11055  13.192  16.122   7.530 -0.0293 -0.0280  0.1437
  717POPI   C4B11056  13.516  15.877   7.567  0.0936  0.1471  0.1489
  718POPI    C111057   0.618  17.183   6.123  0.0411  0.0274  0.0791
  718POPI    C211058   0.884  17.482   6.121  0.0594  0.0116  0.1377
  718POPI    C311059   0.493  17.562   6.092  0.0858  0.0188 -0.2410
  718POPI   PO411060   0.650  17.055   6.283  0.1312  0.0584  0.0754
  718POPI   GL111061   0.602  16.996   6.700 -0.1873  0.0886  0.1853
  718POPI   GL211062   0.397  16.778   6.666 -0.0068 -0.1027  0.2577
  718POPI   C1A11063   0.737  16.883   7.102 -0.1704  0.1342  0.0666
  718POPI   D2A11064   1.065  16.999   7.428  0.0467  0.3066 -0.2521
  718POPI   C3A11065   1.407  17.190   7.662 -0.2276 -0.0553 -0.2269
  718POPI   C4A11066   1.776  17.410   7.649 -0.1007 -0.0846  0.0916
  718POPI   C1B11067   0.235  16.779   7.021  0.1606 -0.2246  0.2148
  718POPI   C2B11068   0.302  16.642   7.461  0.0173  0.0082 -0.1033
  718POPI   C3B11069   0.338  16.607   7.858  0.2097  0.0972  0.1185
  718POPI   C4B11070   0.267  16.692   8.271 -0.3454  0.2717  0.2415
  719POPI    C111071  12.343   1.486   5.930  0.1410 -0.0543 -0.1490
  719POPI    C211072  12.282   1.812   5.706 -0.1017 -0.0761 -0.1170
  719POPI    C311073  12.654   1.679   5.769  0.0244  0.3686  0.1163
  719POPI   PO411074  12.232   1.522   6.198  0.0546  0.1636 -0.0356
  719POPI   GL111075  12.089   1.688   6.508  0.1224 -0.1416 -0.0946
  719POPI   GL211076  11.820   1.892   6.543 -0.1693 -0.1119 -0.0289
  719POPI   C1A11077  11.844   1.451   6.809 -0.0258  0.4067 -0.0744
  719POPI   D2A11078  11.689   1.487   7.171  0.1395 -0.0268 -0.0666
  719POPI   C3A11079  11.603   1.438   7.585  0.1001 -0.2563  0.2635
  719POPI   C4A11080  11.408   1.495   8.033 -0.0815  0.3082  0.1323
  719POPI   C1B11081  12.043   1.976   6.923  0.1345  0.1503 -0.2050
  719POPI   C2B11082  12.074   1.907   7.374 -0.0368 -0.1848 -0.2794
  719POPI   C3B11083  12.024   1.626   7.783 -0.0810 -0.1203  0.2910
  719POPI   C4B11084  12.080   1.568   8.187 -0.0411  0.0558  0.3273
  720POPI    C111085   5.431   3.105   6.349 -0.1544 -0.0165 -0.0854
  720POPI    C211086   5.570   3.359   6.073 -0.1698 -0.0249 -0.1009
  720POPI    C311087   5.180   3.270   6.084 -0.1588 -0.0748 -0.1177
  720POPI   PO411088   5.604   3.159   6.541  0.1084 -0.0863 -0.0068
  720POPI   GL111089   5.551   3.029   6.937  0.0550  0.0029  0.0296
  720POPI   GL211090   5.698   3.069   7.262 -0.1368  0.2801  0.2092
  720POPI   C1A11091   5.128   3.027   7.050  0.0314  0.1339  0.0037
  720POPI   D2A11092   4.937   2.982   7.504 -0.1969 -0.2581 -0.1533
  720POPI   C3A11093   5.066   3.107   7.932  0.1597  0.2660  0.0486
  720POPI   C4A11094   5.292   2.987   8.310 -0.1876 -0.0028  0.1635
  720POPI   C1B11095   5.795   2.835   7.718  0.2301 -0.0184  0.0651
  720POPI   C2B11096   5.665   2.708   8.116 -0.2223  0.0538  0.0149
  720POPI   C3B11097   5.589   2.591   8.505 -0.0250 -0.1308 -0.1080
  720POPI   C4B11098   5.330   2.621   8.810  0.1061  0.2668  0.2271
  721POPI    C111099   1.332  15.113   6.233  0.1415  0.2569 -0.3444
  721POPI    C211100   1.511  14.845   5.995  0.0935 -0.0380 -0.0564
  721POPI    C311101   1.148  14.985   5.902  0.1249 -0.0611 -0.2164
  721POPI   PO411102   1.591  15.089   6.389 -0.4306 -0.2472 -0.0119
  721POPI   GL111103   1.696  14.929   6.804  0.2032  0.0243  0.3520
  721POPI   GL211104   1.445  14.730   6.759 -0.0751  0.3240  0.0413
  721POPI   C1A11105   1.675  15.041   7.091 -0.0200 -0.0169  0.1799
  721POPI   D2A11106   1.693  14.998   7.485 -0.1941  0.3000  0.0797
  721POPI   C3A11107   1.948  14.674   7.811 -0.3849 -0.1756  0.0891
  721POPI   C4A11108   2.046  14.769   8.192  0.2387 -0.0900  0.0315
  721POPI   C1B11109   1.500  14.551   7.219 -0.0403 -0.2285  0.4453
  721POPI   C2B11110   1.516  14.365   7.617 -0.2688  0.1090  0.0313
  721POPI   C3B11111   1.306  14.270   7.961  0.1074 -0.1934  0.0881
  721POPI   C4B11112   1.158  14.289   8.392 -0.1526  0.1488  0.0972
  722POPI    C111113   2.272   1.330   6.066 -0.0066  0.2733 -0.0683
  722POPI    C211114   1.966   1.491   5.865 -0.1408  0.0768 -0.0245
  722POPI    C311115   1.992   1.094   5.905  0.0235  0.1015  0.1267
  722POPI   PO411116   2.412   1.442   6.268  0.3344  0.0950  0.1326
  722POPI   GL111117   2.269   1.732   6.649  0.0982 -0.1403 -0.1178
  722POPI   GL211118   2.565   1.771   6.652 -0.2786  0.0261 -0.0337
  722POPI   C1A11119   2.207   1.763   7.088  0.2742 -0.1373  0.1284
  722POPI   D2A11120   2.303   1.558   7.508 -0.2026 -0.0663  0.1402
  722POPI   C3A11121   2.706   1.322   7.728 -0.0553 -0.3939 -0.0034
  722POPI   C4A11122   3.087   1.278   7.995 -0.1314  0.0002  0.6548
  722POPI   C1B11123   2.686   1.997   6.972 -0.1585 -0.0734 -0.0891
  722POPI   C2B11124   2.571   2.354   7.237 -0.0925  0.0268 -0.0259
  722POPI   C3B11125   2.320   2.530   7.580  0.1330  0.1540 -0.1439
  722POPI   C4B11126   2.192   2.455   8.008  0.0973 -0.0607 -0.2693
  723POPI    C111127  11.563  10.339   6.171  0.0347 -0.0004 -0.0480
  723POPI    C211128  11.763  10.305   6.516 -0.0448  0.1567  0.0144
  723POPI    C311129  11.500  10.023   6.409  0.1094  0.0186 -0.0028
  723POPI   PO411130  11.495  10.551   6.156 -0.1059 -0.0555 -0.1762
  723POPI   GL111131  11.639  10.788   6.537  0.0482  0.0811  0.0758
  723POPI   GL211132  11.319  10.919   6.547  0.1419 -0.0162  0.2230
  723POPI   C1A11133  11.847  11.100   6.818 -0.2180 -0.1432 -0.0829
  723POPI   D2A11134  11.857  11.370   7.193  0.3384 -0.1295  0.2361
  723POPI   C3A11135  11.746  11.140   7.466  0.1116 -0.0776 -0.0782
  723POPI   C4A11136  11.436  11.149   7.832  0.0748  0.0602 -0.2744
  723POPI   C1B11137  11.225  10.804   6.951  0.1727  0.2993 -0.1073
  723POPI   C2B11138  11.288  10.951   7.327  0.1840 -0.0593 -0.2503
  723POPI   C3B11139  10.963  10.986   7.686  0.2814  0.1506 -0.0748
  723POPI   C4B11140  10.673  10.963   7.980 -0.0232 -0.1618 -0.0389
  724POPI    C111141  11.310   6.626   5.983  0.0722 -0.3504 -0.1681
  724POPI    C211142  10.979   6.565   6.200  0.0877 -0.3150 -0.1346
  724POPI    C311143  10.953   6.611   5.804  0.0014  0.1432 -0.0810
  724POPI   PO411144  11.440   6.851   6.171 -0.2008  0.1586  0.0573
  724POPI   GL111145  11.700   6.922   6.644  0.1550 -0.0008  0.1699
  724POPI   GL211146  11.924   6.719   6.793 -0.0507  0.1559 -0.2693
  724POPI   C1A11147  11.401   7.193   6.888 -0.1948  0.2754  0.0946
  724POPI   D2A11148  11.188   7.366   7.232  0.2333 -0.0585  0.2437
  724POPI   C3A11149  11.194   7.806   7.336 -0.0236 -0.0724 -0.0680
  724POPI   C4A11150  11.557   7.945   7.495 -0.0652 -0.2122 -0.1279
  724POPI   C1B11151  12.126   6.809   7.206  0.0000  0.4133 -0.2306
  724POPI   C2B11152  12.327   6.878   7.604 -0.1319 -0.0748  0.2478
  724POPI   C3B11153  12.237   7.013   8.053  0.1920 -0.2046 -0.3673
  724POPI   C4B11154  12.231   7.113   8.479 -0.2198 -0.1441  0.3277
  725POPI    C111155   3.497   2.900   6.243 -0.2392 -0.0966  0.0352
  725POPI    C211156   3.510   3.297   6.288  0.0195 -0.0947 -0.0404
  725POPI    C311157   3.343   3.139   5.961  0.1155 -0.0406 -0.1159
  725POPI   PO411158   3.648   2.804   6.346  0.2385 -0.2045 -0.0713
  725POPI   GL111159   3.909   2.688   6.611  0.1805  0.0874  0.0979
  725POPI   GL211160   4.095   2.918   6.919 -0.2473 -0.0977  0.4352
  725POPI   C1A11161   3.829   2.559   6.992 -0.0811 -0.2540  0.0451
  725POPI   D2A11162   3.498   2.622   7.247  0.2706  0.1003  0.0852
  725POPI   C3A11163   3.308   2.673   7.631 -0.0536  0.1667 -0.0146
  725POPI   C4A11164   3.046   2.461   7.844 -0.3046 -0.1143  0.0717
  725POPI   C1B11165   3.939   2.869   7.347 -0.2939 -0.1687  0.1618
  725POPI   C2B11166   3.642   3.054   7.575 -0.0472  0.1499  0.1144
  725POPI   C3B11167   3.574   3.043   8.092 -0.2557 -0.3505  0.1594
  725POPI   C4B11168   3.287   3.173   8.416 -0.0146  0.0761 -0.2630
  726POPI    C111169  10.109   5.948   6.327 -0.1844  0.1667 -0.0158
  726POPI    C211170  10.502   5.885   6.360 -0.2754 -0.3974  0.0913
  726POPI    C311171  10.348   6.006   6.011  0.0178  0.0931  0.1220
  726POPI   PO411172  10.024   6.170   6.483  0.0712 -0.0720  0.1515
  726POPI   GL111173   9.948   6.357   6.956 -0.0513  0.1641  0.3751
  726POPI   GL211174  10.005   6.016   6.962 -0.1903 -0.1195  0.1837
  726POPI   C1A11175  10.017   6.285   7.386  0.4857  0.2600  0.1714
  726POPI   D2A11176  10.135   6.338   7.810  0.1298 -0.0054  0.1684
  726POPI   C3A11177   9.886   6.438   8.069  0.2322  0.2469 -0.1799
  726POPI   C4A11178   9.595   6.634   8.344 -0.1198  0.1210 -0.2509
  726POPI   C1B11179   9.912   5.729   7.213 -0.0174  0.2224  0.1732
  726POPI   C2B11180   9.667   5.500   7.596 -0.3358  0.3363 -0.0272
  726POPI   C3B11181   9.673   5.413   8.023 -0.1055 -0.0039  0.1294
  726POPI   C4B11182   9.767   5.407   8.500 -0.2609 -0.2120  0.1118
  727POPI    C111183   9.922  14.469   6.129  0.1573  0.1137  0.1266
  727POPI    C211184   9.736  14.822   6.105  0.1387  0.1002  0.0751
  727POPI    C311185   9.555  14.490   5.973  0.1412  0.0657  0.1577
  727POPI   PO411186  10.033  14.561   6.457 -0.1039  0.0664 -0.1460
  727POPI   GL111187   9.913  14.528   6.839  0.0627 -0.1209  0.3134
  727POPI   GL211188  10.251  14.372   6.908  0.2090  0.0797 -0.2236
  727POPI   C1A11189   9.599  14.525   7.051  0.1745 -0.1456 -0.0594
  727POPI   D2A11190   9.301  14.699   7.366 -0.1064  0.1666 -0.0777
  727POPI   C3A11191   9.435  14.524   7.691 -0.2398  0.0951 -0.0631
  727POPI   C4A11192   9.525  14.379   8.100  0.2077  0.0385 -0.2028
  727POPI   C1B11193  10.342  14.184   7.216  0.1683  0.1050 -0.2546
  727POPI   C2B11194  10.475  13.968   7.554  0.0066  0.2257  0.2244
  727POPI   C3B11195  10.305  13.838   7.997 -0.0654  0.1423  0.0412
  727POPI   C4B11196  10.470  13.758   8.391 -0.2840 -0.0360  0.2350
  728POPI    C111197  14.278  11.548   5.546  0.0294 -0.1511  0.1493
  728POPI    C211198  14.461  11.330   5.264  0.1923  0.0864  0.0677
  728POPI    C311199  14.190  11.605   5.160  0.3210  0.2402  0.1347
  728POPI   PO411200  14.500  11.504   5.752 -0.1989  0.2325  0.2241
  728POPI   GL111201  14.443  11.367   6.148 -0.0049  0.0393 -0.0799
  728POPI   GL211202  14.674  11.271   6.405 -0.1001  0.2031 -0.0051
  728POPI   C1A11203  14.270  11.521   6.466  0.0795  0.2665  0.1082
  728POPI   D2A11204  14.048  11.531   6.868 -0.4354 -0.1323  0.3085
  728POPI   C3A11205  14.148  11.622   7.250  0.2123 -0.1668 -0.2334
  728POPI   C4A11206  14.114  11.872   7.578 -0.0215 -0.2030  0.1958
  728POPI   C1B11207  14.788  11.358   6.729 -0.1150 -0.1397 -0.2041
  728POPI   C2B11208  15.074  11.371   7.080 -0.2960 -0.2012  0.1128
  728POPI   C3B11209  15.073  11.446   7.542  0.0056 -0.0694 -0.0081
  728POPI   C4B11210  15.013  11.159   7.786 -0.1929  0.1213 -0.4120
  729POPI    C111211   9.694   1.230   6.159 -0.0528 -0.0570  0.0498
  729POPI    C211212   9.434   1.332   6.446 -0.0691  0.0277  0.0054
  729POPI    C311213   9.621   1.616   6.236 -0.0681 -0.0340 -0.0778
  729POPI   PO411214   9.547   0.940   6.100 -0.1271  0.0387 -0.0782
  729POPI   GL111215   9.362   0.496   6.217  0.1155 -0.1159 -0.0429
  729POPI   GL211216   9.170   0.629   6.416  0.1878  0.1431  0.1432
  729POPI   C1A11217   9.317   0.142   6.515 -0.0581  0.0698 -0.2538
  729POPI   D2A11218   9.405   0.147   6.958  0.2916 -0.0967 -0.0116
  729POPI   C3A11219   9.813   0.085   7.109 -0.0903  0.0677  0.2137
  729POPI   C4A11220  10.168   0.163   6.906  0.1764 -0.1382  0.2668
  729POPI   C1B11221   8.986   0.566   6.869 -0.0956  0.1003 -0.3771
  729POPI   C2B11222   8.939   0.666   7.273  0.0873  0.0281 -0.0468
  729POPI   C3B11223   9.007   0.521   7.673 -0.0096  0.2874  0.1132
  729POPI   C4B11224   9.077   0.621   8.164  0.1139 -0.0946 -0.1654
  730POPI    C111225   6.976   3.132   5.944  0.2597  0.1791  0.0251
  730POPI    C211226   6.793   3.148   6.299  0.1408 -0.0695 -0.0230
  730POPI    C311227   6.584   3.208   5.963  0.2029 -0.0795 -0.0636
  730POPI   PO411228   7.299   3.280   6.072  0.0390  0.0327 -0.1758
  730POPI   GL111229   7.403   3.229   6.527  0.1509 -0.0042 -0.0532
  730POPI   GL211230   7.698   3.206   6.708  0.3633  0.0319 -0.1494
  730POPI   C1A11231   7.114   3.124   6.803 -0.0721 -0.0987 -0.0355
  730POPI   D2A11232   7.022   2.997   7.288  0.1945 -0.1077  0.0965
  730POPI   C3A11233   6.854   3.202   7.509 -0.0770  0.1360  0.0048
  730POPI   C4A11234   6.947   3.414   7.864  0.0935  0.2057 -0.1677
  730POPI   C1B11235   7.952   3.099   6.980  0.2502  0.0232  0.0574
  730POPI   C2B11236   8.113   3.165   7.440  0.0223  0.1084 -0.0826
  730POPI   C3B11237   8.530   3.244   7.771  0.3309 -0.0747  0.1195
  730POPI   C4B11238   8.760   2.967   8.004  0.1763  0.0676  0.0363
  731POPI    C111239  12.170   0.555   6.092  0.2277  0.1671 -0.0659
  731POPI    C211240  12.421   0.402   6.364  0.2114  0.1361 -0.0684
  731POPI    C311241  12.538   0.440   5.983  0.1336 -0.0923 -0.1171
  731POPI   PO411242  12.028   0.647   6.196  0.1338  0.1773  0.1189
  731POPI   GL111243  11.738   0.730   6.510  0.1756 -0.0371 -0.0054
  731POPI   GL211244  11.581   0.987   6.660 -0.2626  0.1398  0.1012
  731POPI   C1A11245  11.765   0.585   7.011 -0.0799 -0.0729  0.1557
  731POPI   D2A11246  11.840   0.533   7.402 -0.0418  0.0015  0.0582
  731POPI   C3A11247  11.809   0.674   7.869  0.2367 -0.0494 -0.1163
  731POPI   C4A11248  11.972   0.610   8.249  0.0125 -0.0793 -0.3270
  731POPI   C1B11249  11.437   0.934   7.092 -0.2253 -0.4556  0.0699
  731POPI   C2B11250  11.549   0.896   7.512  0.0694 -0.2284 -0.1537
  731POPI   C3B11251  11.447   1.025   7.976 -0.1254  0.2800  0.3475
  731POPI   C4B11252  11.237   1.050   8.317 -0.2095 -0.0387 -0.1931
  732POPI    C111253  11.494   7.667   6.118  0.2523  0.3385  0.0463
  732POPI    C211254  11.467   7.717   5.722 -0.1181  0.0905  0.0353
  732POPI    C311255  11.362   7.368   5.887  0.0511  0.1857  0.3524
  732POPI   PO411256  11.745   7.749   6.232 -0.0812  0.0703 -0.0346
  732POPI   GL111257  12.078   7.889   6.547  0.4981 -0.0010 -0.1275
  732POPI   GL211258  12.250   8.129   6.699  0.3766  0.4054 -0.2996
  732POPI   C1A11259  12.079   7.682   6.970 -0.2756  0.1053 -0.0118
  732POPI   D2A11260  12.028   7.563   7.457  0.0687  0.0298  0.0513
  732POPI   C3A11261  12.005   7.787   7.768  0.0883  0.0404 -0.2182
  732POPI   C4A11262  11.857   8.025   8.164 -0.0466  0.0071 -0.0697
  732POPI   C1B11263  12.445   8.404   6.968  0.1261  0.1435  0.1053
  732POPI   C2B11264  12.787   8.426   7.299  0.0431 -0.1026 -0.1250
  732POPI   C3B11265  12.802   8.241   7.691 -0.2994  0.1183  0.1163
  732POPI   C4B11266  12.864   8.316   8.090 -0.0049 -0.0852  0.0298
  733POPI    C111267   7.628  15.027   6.319 -0.0335 -0.0932 -0.1780
  733POPI    C211268   7.263  15.139   6.198 -0.0116 -0.0364 -0.1916
  733POPI    C311269   7.550  15.413   6.248 -0.1191 -0.0096  0.3326
  733POPI   PO411270   7.631  14.912   6.553  0.2627 -0.0668 -0.0073
  733POPI   GL111271   7.797  14.528   6.639 -0.3050  0.0665  0.2775
  733POPI   GL211272   7.445  14.551   6.765  0.0093  0.2297 -0.0441
  733POPI   C1A11273   7.861  14.244   6.954 -0.3703  0.2382 -0.0286
  733POPI   D2A11274   7.869  14.127   7.265  0.2375  0.0486  0.1141
  733POPI   C3A11275   7.892  14.415   7.635  0.0346 -0.0626  0.2451
  733POPI   C4A11276   7.751  14.282   7.998 -0.2052  0.2312 -0.1345
  733POPI   C1B11277   7.457  14.419   7.192  0.1538  0.0192 -0.0815
  733POPI   C2B11278   7.382  14.440   7.648 -0.1093 -0.1044 -0.1864
  733POPI   C3B11279   7.052  14.385   8.078  0.1045 -0.1178 -0.0477
  733POPI   C4B11280   6.779  14.197   8.299 -0.0988  0.0443  0.0496
  734POPI    C111281  14.593   2.862   5.844  0.0476 -0.2210  0.1754
  734POPI    C211282  14.898   3.062   6.009 -0.0044 -0.0439  0.0602
  734POPI    C311283  14.528   3.212   6.027 -0.0277 -0.0773 -0.1209
  734POPI   PO411284  14.593   2.533   5.949  0.0572 -0.3170  0.1390
  734POPI   GL111285  14.614   2.402   6.306  0.1214 -0.1188 -0.0639
  734POPI   GL211286  14.698   2.415   6.661 -0.0242  0.0803  0.1127
  734POPI   C1A11287  14.477   2.898   6.508 -0.0882 -0.0919 -0.0599
  734POPI   D2A11288  14.671   3.322   6.693 -0.2143 -0.2053 -0.0767
  734POPI   C3A11289  14.596   3.485   7.017  0.0108 -0.2655  0.2196
  734POPI   C4A11290  14.476   3.409   7.367 -0.0247  0.1471  0.4991
  734POPI   C1B11291  14.488   2.659   6.954  0.0572 -0.0696  0.0736
  734POPI   C2B11292  14.322   2.901   7.400  0.1812  0.2206  0.1185
  734POPI   C3B11293  14.298   3.065   7.781  0.1036  0.0897 -0.1106
  734POPI   C4B11294  14.096   2.903   8.208 -0.0252 -0.1634  0.3052
  735POPI    C111295   8.262   6.879   6.077  0.1881  0.0629  0.1973
  735POPI    C211296   8.621   6.852   5.902  0.0183 -0.1704 -0.1249
  735POPI    C311297   8.375   7.153   5.808  0.0326 -0.1471 -0.0878
  735POPI   PO411298   8.235   6.913   6.369 -0.0275  0.1282  0.1958
  735POPI   GL111299   8.138   6.620   6.689  0.2195  0.0481  0.1893
  735POPI   GL211300   8.446   6.700   6.764 -0.2592 -0.0306 -0.2229
  735POPI   C1A11301   7.918   6.781   7.030 -0.0986  0.0773  0.0285
  735POPI   D2A11302   7.965   6.961   7.460  0.0808  0.1242  0.0038
  735POPI   C3A11303   7.641   7.010   7.779  0.2307  0.1030 -0.0297
  735POPI   C4A11304   7.305   7.103   8.058  0.1525  0.2142  0.1081
  735POPI   C1B11305   8.474   6.856   7.194  0.2616  0.0737  0.0536
  735POPI   C2B11306   8.444   7.080   7.565 -0.0012 -0.1337 -0.0311
  735POPI   C3B11307   8.182   7.196   7.874 -0.0199 -0.1309  0.4460
  735POPI   C4B11308   7.864   7.504   8.035 -0.2116  0.3456  0.0163
  736POPI    C111309   3.557  16.389   5.788  0.0945  0.0430  0.0398
  736POPI    C211310   3.937  16.474   5.879  0.1142 -0.1283  0.1195
  736POPI    C311311   3.845  16.335   5.516  0.0839  0.2139 -0.0065
  736POPI   PO411312   3.410  16.709   5.951 -0.2649 -0.2559  0.3079
  736POPI   GL111313   3.290  16.827   6.451 -0.1487  0.3603 -0.0902
  736POPI   GL211314   3.096  16.845   6.530  0.3889 -0.1214  0.1765
  736POPI   C1A11315   3.393  16.527   6.755 -0.1751 -0.2171  0.0450
  736POPI   D2A11316   3.110  16.109   6.793  0.0332 -0.1964 -0.1088
  736POPI   C3A11317   3.134  15.735   7.019 -0.1710 -0.1640  0.1494
  736POPI   C4A11318   3.263  15.383   7.349  0.2270  0.0099  0.0924
  736POPI   C1B11319   3.217  16.904   6.942 -0.2047 -0.0269  0.2013
  736POPI   C2B11320   3.385  16.930   7.367  0.1261 -0.2544 -0.0453
  736POPI   C3B11321   3.318  16.901   7.800 -0.1275  0.0741 -0.1476
  736POPI   C4B11322   3.299  16.984   8.214 -0.2356  0.1244 -0.2254
  737POPS   CNO11323   4.030   1.973   5.992 -0.2939 -0.0996 -0.1566
  737POPS   PO411324   4.379   2.175   6.148  0.3539  0.0597  0.1782
  737POPS   GL111325   4.352   1.866   6.406 -0.2058  0.0097  0.0554
  737POPS   GL211326   4.699   1.987   6.513  0.1275 -0.0537  0.2300
  737POPS   C1A11327   4.143   1.665   6.789 -0.0725 -0.0601 -0.2620
  737POPS   D2A11328   4.133   1.674   7.166 -0.0198 -0.0625 -0.4258
  737POPS   C3A11329   3.929   1.861   7.578 -0.1076  0.0450  0.0261
  737POPS   C4A11330   3.961   2.098   7.999  0.2456 -0.0535  0.2697
  737POPS   C1B11331   4.567   1.915   6.899  0.0987  0.1801  0.4871
  737POPS   C2B11332   4.736   1.824   7.300  0.0077  0.1158  0.1333
  737POPS   C3B11333   4.817   1.609   7.657 -0.0058 -0.2391  0.1931
  737POPS   C4B11334   4.758   1.256   7.852  0.1290 -0.1171 -0.0345
  738POPS   CNO11335   4.440   0.686   5.846 -0.0167  0.1271 -0.2300
  738POPS   PO411336   4.445   0.951   6.192 -0.1310 -0.2267  0.2625
  738POPS   GL111337   4.168   0.991   6.636 -0.0336  0.0691  0.0376
  738POPS   GL211338   3.853   1.016   6.629 -0.1239 -0.1286  0.4299
  738POPS   C1A11339   4.136   1.137   7.116 -0.1850  0.0028  0.0279
  738POPS   D2A11340   3.950   1.256   7.596 -0.0207 -0.0666 -0.0546
  738POPS   C3A11341   4.207   1.119   7.903  0.0056  0.2795  0.0319
  738POPS   C4A11342   4.434   1.434   8.252 -0.0791 -0.2756 -0.0037
  738POPS   C1B11343   3.740   1.354   6.819  0.0760  0.0495 -0.0996
  738POPS   C2B11344   3.574   1.489   7.294  0.0561 -0.1394 -0.2149
  738POPS   C3B11345   3.121   1.532   7.539  0.3663 -0.0957 -0.0093
  738POPS   C4B11346   2.899   1.776   7.966 -0.1530  0.4760  0.0709
  739POPS   CNO11347   5.840  14.232   6.425 -0.1558  0.2547  0.1529
  739POPS   PO411348   5.452  14.118   6.256 -0.1988  0.1281  0.1250
  739POPS   GL111349   5.209  14.124   6.573  0.1130 -0.1711 -0.1427
  739POPS   GL211350   5.360  13.937   6.739  0.0916  0.3010  0.1274
  739POPS   C1A11351   5.101  14.155   7.082 -0.4303  0.1689  0.4196
  739POPS   D2A11352   4.993  14.240   7.566 -0.1939 -0.2779  0.2129
  739POPS   C3A11353   4.858  14.073   7.950 -0.0603 -0.0113  0.1786
  739POPS   C4A11354   4.777  13.666   8.119 -0.0463 -0.0961  0.0598
  739POPS   C1B11355   5.621  14.273   6.939 -0.1444 -0.2686  0.3231
  739POPS   C2B11356   5.804  14.403   7.291  0.2659  0.3254  0.1023
  739POPS   C3B11357   5.985  14.233   7.715  0.0515 -0.1274 -0.3244
  739POPS   C4B11358   6.255  14.247   8.121  0.0729 -0.0954 -0.2282
  740POPS   CNO11359   2.722   6.315   5.329 -0.5311  0.1555 -0.2483
  740POPS   PO411360   2.640   6.191   5.785 -0.1610 -0.3861 -0.3967
  740POPS   GL111361   2.638   6.531   6.135 -0.0361  0.0276  0.0042
  740POPS   GL211362   2.774   6.232   6.399 -0.0246  0.2370  0.0555
  740POPS   C1A11363   2.512   6.669   6.493 -0.0356  0.1724 -0.0816
  740POPS   D2A11364   2.540   6.387   6.856 -0.2331 -0.2754 -0.0294
  740POPS   C3A11365   2.891   6.168   6.879 -0.2280  0.0016  0.0522
  740POPS   C4A11366   3.029   6.049   7.097  0.0075  0.2347 -0.0273
  740POPS   C1B11367   3.144   5.906   6.516 -0.1166 -0.2453  0.1235
  740POPS   C2B11368   3.489   6.043   6.783  0.2503 -0.1995  0.1412
  740POPS   C3B11369   3.528   6.217   7.112 -0.0246 -0.1243  0.0774
  740POPS   C4B11370   3.375   6.391   7.450  0.0033 -0.2974  0.4496
  741POPS   CNO11371   6.097   8.690   5.597  0.1768 -0.0176  0.0260
  741POPS   PO411372   5.779   8.390   5.947 -0.1326 -0.0226  0.3043
  741POPS   GL111373   5.892   8.356   6.392  0.0907 -0.2355  0.3599
  741POPS   GL211374   6.267   8.246   6.523  0.2344  0.1956  0.0228
  741POPS   C1A11375   5.721   8.332   6.722 -0.1146 -0.0566 -0.0104
  741POPS   D2A11376   5.577   8.278   7.152  0.2469  0.0910 -0.1199
  741POPS   C3A11377   6.001   8.206   7.347  0.1063 -0.5455  0.3608
  741POPS   C4A11378   6.437   8.073   7.164 -0.1093  0.0821  0.1318
  741POPS   C1B11379   6.194   8.412   6.886  0.2960 -0.2250 -0.0577
  741POPS   C2B11380   6.289   8.626   7.323  0.1023 -0.2437 -0.1398
  741POPS   C3B11381   6.228   8.839   7.697  0.2429 -0.0429 -0.1839
  741POPS   C4B11382   6.349   9.182   7.806 -0.0120 -0.0696 -0.0094
  742POPS   CNO11383   3.558   9.981   6.467  0.0360  0.2536  0.1376
  742POPS   PO411384   3.168   9.803   6.560 -0.0403 -0.5406  0.0440
  742POPS   GL111385   3.032   9.976   6.957  0.0338  0.0578  0.3117
  742POPS   GL211386   2.808  10.159   6.998  0.2364  0.2020 -0.0091
  742POPS   C1A11387   3.015   9.846   7.336 -0.3057  0.0370  0.0042
  742POPS   D2A11388   3.061   9.789   7.723 -0.1384  0.3375 -0.0522
  742POPS   C3A11389   2.692  10.029   8.008 -0.2088 -0.0058  0.1356
  742POPS   C4A11390   2.389   9.827   8.215  0.1766  0.1261  0.1562
  742POPS   C1B11391   3.042  10.347   7.366 -0.1583 -0.0152  0.1250
  742POPS   C2B11392   3.182  10.273   7.718 -0.0860  0.0419  0.0526
  742POPS   C3B11393   3.250  10.071   8.180 -0.0712  0.2185 -0.0303
  742POPS   C4B11394   2.948   9.749   8.431 -0.0251  0.2706 -0.0082
  743POPS   CNO11395  14.098   1.366   5.874  0.1829  0.1251 -0.1064
  743POPS   PO411396  14.034   1.703   6.085  0.0823  0.3955  0.0594
  743POPS   GL111397  13.870   1.466   6.477 -0.1842  0.2423 -0.0571
  743POPS   GL211398  13.787   1.714   6.703  0.3045  0.3157  0.0405
  743POPS   C1A11399  13.941   1.181   6.837  0.1900  0.0868 -0.0569
  743POPS   D2A11400  14.011   1.039   7.258  0.2588  0.1175  0.0500
  743POPS   C3A11401  13.588   0.973   7.327  0.1659  0.0421  0.3417
  743POPS   C4A11402  13.388   0.967   7.708  0.0858  0.1243 -0.0700
  743POPS   C1B11403  13.880   1.656   7.164 -0.1404 -0.1965 -0.2242
  743POPS   C2B11404  13.923   1.795   7.644  0.0147  0.1870  0.0975
  743POPS   C3B11405  14.015   2.085   8.020  0.1830 -0.1379  0.0991
  743POPS   C4B11406  14.034   2.417   8.250  0.2325 -0.0386  0.0017
  744POPS   CNO11407   8.803   4.689   5.865 -0.4124 -0.0058 -0.0526
  744POPS   PO411408   8.985   4.531   6.262  0.0774 -0.1936 -0.1700
  744POPS   GL111409   8.859   4.451   6.648 -0.0496 -0.1075 -0.1398
  744POPS   GL211410   8.645   4.254   6.720 -0.0618  0.4931  0.4364
  744POPS   C1A11411   8.928   4.468   7.005  0.3506 -0.0347  0.0034
  744POPS   D2A11412   9.063   4.689   7.338 -0.0685  0.1647 -0.0536
  744POPS   C3A11413   8.993   4.551   7.786 -0.3387 -0.2233 -0.1148
  744POPS   C4A11414   8.692   4.365   8.087  0.0030 -0.0789  0.1946
  744POPS   C1B11415   8.505   4.120   7.127 -0.1279 -0.1565 -0.0203
  744POPS   C2B11416   8.444   3.914   7.437 -0.5038  0.0059  0.1589
  744POPS   C3B11417   8.462   3.780   7.876  0.0195 -0.0316  0.0163
  744POPS   C4B11418   8.771   3.881   8.189 -0.1107  0.0006  0.1476
  745POPS   CNO11419   0.595   0.518   6.702  0.1203  0.1650  0.1162
  745POPS   PO411420   0.483   0.335   6.303 -0.3619  0.0352 -0.1839
  745POPS   GL111421   0.603   0.012   6.575  0.2439 -0.2095 -0.1625
  745POPS   GL211422   0.748  -0.283   6.635  0.3093  0.0131 -0.3445
  745POPS   C1A11423   0.578   0.076   6.988 -0.1041 -0.0088 -0.0855
  745POPS   D2A11424   0.324   0.018   7.308  0.0891 -0.0410 -0.1922
  745POPS   C3A11425   0.423  -0.072   7.678  0.0001 -0.4831  0.1772
  745POPS   C4A11426   0.326   0.073   8.036 -0.2445  0.0244  0.0150
  745POPS   C1B11427   0.885  -0.387   7.031  0.0009  0.2486  0.3783
  745POPS   C2B11428   0.842  -0.241   7.404 -0.1036 -0.1700  0.1067
  745POPS   C3B11429   0.888  -0.436   7.772 -0.0313 -0.1668  0.1270
  745POPS   C4B11430   0.828  -0.930   7.849  0.0009  0.0098 -0.1696
  746POPS   CNO11431  10.564   8.048   6.312 -0.1415 -0.0159  0.0350
  746POPS   PO411432  10.584   7.650   6.284 -0.0754  0.1769 -0.0433
  746POPS   GL111433  10.441   7.811   6.742  0.0603  0.0969 -0.3978
  746POPS   GL211434  10.245   7.929   6.846 -0.0075 -0.0406  0.0301
  746POPS   C1A11435  10.709   7.841   7.185 -0.0081  0.3104 -0.0457
  746POPS   D2A11436  10.671   7.878   7.637 -0.1658  0.0314  0.0804
  746POPS   C3A11437  10.296   7.896   7.861 -0.1017 -0.1098 -0.2021
  746POPS   C4A11438   9.916   8.089   7.807 -0.0800 -0.1664 -0.0210
  746POPS   C1B11439   9.934   7.625   6.945 -0.0757  0.2425 -0.0609
  746POPS   C2B11440   9.722   7.258   7.115  0.1842 -0.2802 -0.2469
  746POPS   C3B11441   9.659   7.262   7.517 -0.2786  0.0860 -0.1916
  746POPS   C4B11442   9.531   7.114   7.951  0.1955 -0.2039  0.1700
  747POPS   CNO11443  10.847   4.425   6.305 -0.2885  0.1085  0.0916
  747POPS   PO411444  10.842   4.863   6.472 -0.0657  0.2751 -0.0511
  747POPS   GL111445  10.645   4.889   6.851 -0.2016 -0.1554  0.3570
  747POPS   GL211446  10.397   5.170   7.022  0.0320  0.0538 -0.2929
  747POPS   C1A11447  10.887   4.837   7.152 -0.2378 -0.0931  0.0562
  747POPS   D2A11448  11.220   4.910   7.422  0.3981  0.0093  0.0472
  747POPS   C3A11449  11.277   4.896   7.858  0.0541  0.1693 -0.3330
  747POPS   C4A11450  11.521   4.551   8.135  0.1577  0.0261  0.1933
  747POPS   C1B11451  10.246   5.355   7.333  0.2462  0.1319  0.0387
  747POPS   C2B11452  10.399   5.614   7.677 -0.1233  0.0943 -0.1367
  747POPS   C3B11453  10.426   5.800   8.016 -0.0159 -0.2883  0.1581
  747POPS   C4B11454  10.094   5.626   8.237  0.2969 -0.3217 -0.2787
  748POPS   CNO11455   4.646  11.639   6.494  0.0750  0.0695  0.2254
  748POPS   PO411456   5.087  11.833   6.341 -0.0288  0.0384 -0.3956
  748POPS   GL111457   5.120  11.705   6.768  0.4165  0.1565 -0.1786
  748POPS   GL211458   5.175  12.033   6.890  0.0838  0.0273 -0.2371
  748POPS   C1A11459   4.991  11.482   7.013  0.0715  0.0566 -0.0685
  748POPS   D2A11460   5.005  11.599   7.465 -0.1166  0.0480  0.2457
  748POPS   C3A11461   4.873  11.362   7.814 -0.1270  0.2556 -0.0076
  748POPS   C4A11462   5.037  11.424   8.293  0.1184 -0.2153 -0.3788
  748POPS   C1B11463   5.167  12.040   7.372  0.0646  0.0901 -0.0810
  748POPS   C2B11464   5.051  12.366   7.665 -0.3457  0.0179  0.1799
  748POPS   C3B11465   5.176  12.645   7.996 -0.0908 -0.2134  0.1373
  748POPS   C4B11466   5.262  12.559   8.389  0.2831  0.1662 -0.1109
  749POPS   CNO11467   0.387  10.102   6.720 -0.0361  0.0297 -0.1613
  749POPS   PO411468   0.428   9.731   6.474  0.0094  0.0679  0.0915
  749POPS   GL111469   0.645   9.713   6.895 -0.2741  0.0473  0.1084
  749POPS   GL211470   0.785   9.508   6.947  0.2558  0.0169 -0.3602
  749POPS   C1A11471   0.876   9.884   7.222  0.0554  0.1879  0.1484
  749POPS   D2A11472   0.958   9.904   7.636 -0.2849 -0.1707 -0.1509
  749POPS   C3A11473   0.734   9.685   7.861 -0.3466 -0.1367 -0.0239
  749POPS   C4A11474   0.360   9.854   8.190 -0.3790 -0.0377 -0.1230
  749POPS   C1B11475   0.759   9.449   7.417  0.1715  0.1319  0.3018
  749POPS   C2B11476   0.690   9.160   7.822 -0.2406 -0.1489  0.1661
  749POPS   C3B11477   0.413   9.275   8.081 -0.2157 -0.0016 -0.1579
  749POPS   C4B11478   0.058   9.299   8.252 -0.0807  0.1893  0.1397
  750POPS   CNO11479   4.417  13.958   5.863 -0.2940 -0.0123 -0.0539
  750POPS   PO411480   4.100  14.001   6.099 -0.0785 -0.1069 -0.4381
  750POPS   GL111481   4.330  13.700   6.404 -0.1553 -0.0559  0.0652
  750POPS   GL211482   4.434  13.405   6.612  0.2941  0.0484  0.0529
  750POPS   C1A11483   4.249  13.834   6.891 -0.0950 -0.0078 -0.0996
  750POPS   D2A11484   4.021  14.078   7.142 -0.1501  0.0799  0.1001
  750POPS   C3A11485   4.091  13.997   7.629 -0.1371 -0.1196  0.1072
  750POPS   C4A11486   4.464  13.877   7.665 -0.0778  0.1908  0.0955
  750POPS   C1B11487   4.613  13.481   6.987 -0.0493 -0.0006  0.2371
  750POPS   C2B11488   4.504  13.343   7.391  0.1394 -0.1803  0.0270
  750POPS   C3B11489   4.598  13.350   7.773 -0.0071 -0.0340 -0.0884
  750POPS   C4B11490   4.426  13.306   8.210 -0.2412  0.1081 -0.2643
  751POPS   CNO11491  10.704  10.636   5.482  0.0727  0.2153 -0.1064
  751POPS   PO411492  10.699  10.820   5.858 -0.2322 -0.2247 -0.2231
  751POPS   GL111493  10.704  11.052   6.345 -0.1277 -0.1786 -0.0912
  751POPS   GL211494  10.811  10.800   6.531 -0.0009 -0.0515 -0.0113
  751POPS   C1A11495  10.881  11.238   6.697  0.0305  0.0377 -0.5890
  751POPS   D2A11496  10.930  11.265   7.144 -0.0662  0.1590 -0.1664
  751POPS   C3A11497  10.586  11.339   7.379 -0.2311  0.3454  0.0915
  751POPS   C4A11498  10.471  11.305   7.753 -0.1304 -0.0115 -0.1444
  751POPS   C1B11499  10.724  10.821   6.935  0.1285  0.0538  0.2407
  751POPS   C2B11500  10.625  10.851   7.396 -0.0204  0.2952 -0.0118
  751POPS   C3B11501  10.263  10.796   7.620  0.0225 -0.3288 -0.1964
  751POPS   C4B11502  10.057  10.925   7.910  0.0343 -0.0512  0.3614
  752POPS   CNO11503  11.698   1.572   6.164 -0.3208 -0.2946  0.1994
  752POPS   PO411504  11.427   1.838   6.298 -0.0734 -0.2370  0.2455
  752POPS   GL111505  11.050   1.752   6.578 -0.1063 -0.2337  0.0655
  752POPS   GL211506  10.930   1.841   6.868  0.0704 -0.2079 -0.0700
  752POPS   C1A11507  10.754   1.384   6.662 -0.2372  0.0640  0.0515
  752POPS   D2A11508  10.509   1.082   6.937  0.0990 -0.0948 -0.1419
  752POPS   C3A11509  10.109   0.900   6.940 -0.1348  0.1952 -0.2769
  752POPS   C4A11510   9.930   0.557   7.101  0.1482 -0.2523  0.0094
  752POPS   C1B11511  10.818   1.816   7.375 -0.0115 -0.1298  0.2625
  752POPS   C2B11512  10.904   1.815   7.801  0.1390 -0.0264  0.2382
  752POPS   C3B11513  11.172   2.031   8.126  0.3259  0.0847 -0.0201
  752POPS   C4B11514  11.334   2.433   8.111  0.2129 -0.0811  0.1202
  753POPS   CNO11515  15.714   8.849   5.979  0.1063 -0.4768  0.0045
  753POPS   PO411516  15.861   9.267   6.079  0.2123 -0.2234 -0.4866
  753POPS   GL111517  15.829   9.099   6.550  0.0778 -0.0750  0.1227
  753POPS   GL211518  15.594   9.102   6.716 -0.0601 -0.2087 -0.2871
  753POPS   C1A11519  15.948   9.223   7.036 -0.1086 -0.0245 -0.1599
  753POPS   D2A11520  15.926   9.069   7.457 -0.0306  0.2703 -0.0569
  753POPS   C3A11521  15.750   9.236   7.801 -0.0431  0.2230 -0.0073
  753POPS   C4A11522  15.607   9.479   8.156  0.1903  0.1986  0.0350
  753POPS   C1B11523  15.388   9.083   7.027  0.3506  0.0972 -0.0781
  753POPS   C2B11524  15.406   9.085   7.434 -0.2442  0.2897  0.0698
  753POPS   C3B11525  15.313   8.929   7.843 -0.3630  0.0897 -0.0311
  753POPS   C4B11526  15.135   8.736   8.144  0.1626 -0.0087  0.2605
  754POPS   CNO11527   9.365  15.925   6.189 -0.0927 -0.1001 -0.1179
  754POPS   PO411528   9.754  16.152   6.160  0.2382 -0.2565 -0.1987
  754POPS   GL111529   9.717  16.124   6.540  0.1052 -0.0463  0.0736
  754POPS   GL211530   9.646  16.426   6.623  0.0687 -0.0714  0.0707
  754POPS   C1A11531   9.634  16.039   6.966  0.1151 -0.0718 -0.0604
  754POPS   D2A11532   9.406  16.191   7.307  0.2193  0.0444  0.0705
  754POPS   C3A11533   9.435  15.934   7.755  0.2809 -0.1852  0.0230
  754POPS   C4A11534   9.095  15.982   8.167 -0.1555 -0.0205  0.1004
  754POPS   C1B11535   9.757  16.516   6.951  0.0857 -0.1096 -0.0393
  754POPS   C2B11536   9.781  16.531   7.390 -0.1445 -0.0960  0.0534
  754POPS   C3B11537   9.818  16.478   7.779 -0.0340  0.0846  0.0062
  754POPS   C4B11538   9.547  16.312   8.118 -0.1852 -0.1381  0.0527
  755POPS   CNO11539  16.000  17.652   5.842  0.0559  0.2069  0.1209
  755POPS   PO411540  15.943  17.738   6.201  0.1957  0.0902  0.0225
  755POPS   GL111541  15.895  17.683   6.602  0.1757  0.2715 -0.0838
  755POPS   GL211542  15.752  17.951   6.723 -0.1989  0.0876 -0.2706
  755POPS   C1A11543  16.037  17.430   6.976 -0.3507  0.1533  0.0044
  755POPS   D2A11544  16.340  17.474   7.269  0.1806 -0.2703 -0.3008
  755POPS   C3A11545  16.423  17.832   7.506  0.1692  0.1109 -0.1730
  755POPS   C4A11546  16.550  18.077   7.881  0.2075  0.0751 -0.2520
  755POPS   C1B11547  15.554  17.628   7.012 -0.2145 -0.1004  0.3241
  755POPS   C2B11548  15.213  17.431   7.218  0.4491 -0.1946  0.1697
  755POPS   C3B11549  14.997  17.578   7.607 -0.1290 -0.1377 -0.1478
  755POPS   C4B11550  14.921  17.575   8.108  0.0137 -0.3418 -0.0009
  756POPS   CNO11551  17.335   9.265   6.080 -0.1240  0.0123  0.3407
  756POPS   PO411552  17.213   9.547   6.300  0.1448 -0.1267  0.1421
  756POPS   GL111553  17.442   9.372   6.721  0.1641 -0.0719 -0.2650
  756POPS   GL211554  17.285   9.145   6.780 -0.1746  0.0379  0.0870
  756POPS   C1A11555  17.523   9.391   7.108 -0.0144 -0.1096 -0.1065
  756POPS   D2A11556  17.575   9.237   7.482 -0.0240 -0.0850 -0.0288
  756POPS   C3A11557  17.776   8.879   7.785 -0.0331 -0.0891  0.0508
  756POPS   C4A11558  17.724   8.558   8.079  0.2080 -0.1563 -0.0765
  756POPS   C1B11559  17.191   9.017   7.156  0.1195  0.0091 -0.2068
  756POPS   C2B11560  17.137   8.874   7.505 -0.0162 -0.1952  0.0936
  756POPS   C3B11561  17.290   8.800   7.843 -0.0229  0.0814 -0.1587
  756POPS   C4B11562  17.369   8.925   8.272  0.1783 -0.0695 -0.3628
  757POPS   CNO11563  12.867   1.203   6.622  0.1414 -0.3152 -0.0883
  757POPS   PO411564  12.716   1.413   6.274  0.1618  0.0102  0.2975
  757POPS   GL111565  12.793   1.722   6.601 -0.0106 -0.2345  0.2926
  757POPS   GL211566  12.546   1.858   6.723  0.3962  0.1147 -0.3453
  757POPS   C1A11567  12.875   1.521   6.991 -0.2135 -0.2724  0.1333
  757POPS   D2A11568  12.962   1.758   7.294 -0.3185  0.0873 -0.2283
  757POPS   C3A11569  12.808   1.619   7.772 -0.2260 -0.0454  0.0128
  757POPS   C4A11570  12.489   1.737   7.949 -0.1564 -0.0531 -0.0085
  757POPS   C1B11571  12.468   1.865   7.105 -0.1552 -0.1281  0.3554
  757POPS   C2B11572  12.599   1.964   7.537  0.0033  0.2507  0.3068
  757POPS   C3B11573  12.590   2.220   7.841  0.2398 -0.3271  0.0935
  757POPS   C4B11574  12.329   2.638   7.852  0.1367  0.0803  0.0186
  758POPS   CNO11575   6.143   9.714   5.952 -0.0040 -0.0537 -0.0689
  758POPS   PO411576   5.993   9.753   6.416  0.0938  0.0938 -0.2456
  758POPS   GL111577   6.319   9.815   6.685  0.2455  0.0098  0.0214
  758POPS   GL211578   6.453   9.511   6.793  0.1577 -0.3258  0.3153
  758POPS   C1A11579   6.386  10.072   7.094 -0.0769  0.2165  0.0324
  758POPS   D2A11580   6.191  10.164   7.456  0.0192  0.3418  0.0442
  758POPS   C3A11581   6.333  10.496   7.773 -0.2417 -0.3782 -0.0054
  758POPS   C4A11582   6.654  10.821   7.826 -0.0588  0.1306  0.1539
  758POPS   C1B11583   6.520   9.615   7.240  0.5357  0.1962  0.0786
  758POPS   C2B11584   6.273   9.662   7.593  0.0302  0.1659  0.0285
  758POPS   C3B11585   6.021   9.571   7.920 -0.0160  0.0063 -0.2551
  758POPS   C4B11586   5.976   9.629   8.488 -0.0824 -0.0441  0.1288
  759POPS   CNO11587   6.087  17.646   5.938 -0.0664  0.0324  0.0021
  759POPS   PO411588   6.290  17.414   6.194  0.1461 -0.0946 -0.0700
  759POPS   GL111589   6.246  17.244   6.611  0.1035 -0.0593 -0.0662
  759POPS   GL211590   6.116  16.973   6.635 -0.0105  0.2104 -0.2447
  759POPS   C1A11591   6.285  17.107   7.051  0.0010  0.0870 -0.2443
  759POPS   D2A11592   6.685  16.989   7.307 -0.2222 -0.2823  0.0635
  759POPS   C3A11593   7.045  17.222   7.167 -0.1129  0.0302  0.1968
  759POPS   C4A11594   7.231  17.175   6.818 -0.1408 -0.0681 -0.3320
  759POPS   C1B11595   5.925  16.708   7.017  0.0527 -0.2956 -0.0485
  759POPS   C2B11596   5.717  16.558   7.396 -0.0127  0.1269 -0.0306
  759POPS   C3B11597   5.920  16.614   7.766  0.1593 -0.3036 -0.1450
  759POPS   C4B11598   6.199  16.729   8.003  0.1904 -0.0054 -0.0932
  760POPS   CNO11599  13.128   5.609   6.490 -0.0865 -0.3949 -0.1645
  760POPS   PO411600  13.520   5.497   6.374 -0.3429  0.1703 -0.1792
  760POPS   GL111601  13.940   5.633   6.710 -0.2238  0.0378 -0.1656
  760POPS   GL211602  14.255   5.531   6.663 -0.1650  0.2141 -0.1717
  760POPS   C1A11603  13.951   5.981   6.975 -0.0449  0.2581  0.1568
  760POPS   D2A11604  13.949   6.025   7.471 -0.0857 -0.2541 -0.0274
  760POPS   C3A11605  13.544   6.263   7.641 -0.0772 -0.2070 -0.1094
  760POPS   C4A11606  13.384   6.497   7.965  0.0821 -0.0099 -0.2177
  760POPS   C1B11607  14.318   5.596   7.040 -0.1419 -0.1757  0.2126
  760POPS   C2B11608  14.507   5.713   7.404 -0.3307  0.0166 -0.1471
  760POPS   C3B11609  14.678   5.563   7.741  0.2184 -0.4173  0.0005
  760POPS   C4B11610  15.003   5.498   8.040  0.0973  0.0483  0.0510
  761POPS   CNO11611  16.828   8.412   5.680  0.0507  0.3192 -0.1279
  761POPS   PO411612  16.936   8.813   5.977 -0.1061 -0.1603  0.1006
  761POPS   GL111613  16.681   8.692   6.311 -0.0635  0.1113  0.0063
  761POPS   GL211614  16.442   8.381   6.442 -0.3260 -0.0373  0.0787
  761POPS   C1A11615  16.369   8.806   6.751 -0.2827 -0.0111  0.1207
  761POPS   D2A11616  16.190   8.770   7.113 -0.2518  0.0910  0.3001
  761POPS   C3A11617  16.227   8.646   7.482 -0.1098 -0.1894  0.0799
  761POPS   C4A11618  16.257   8.251   7.659 -0.1726 -0.0486 -0.0258
  761POPS   C1B11619  16.155   8.337   6.814 -0.3132  0.1296 -0.0281
  761POPS   C2B11620  16.154   8.114   7.209  0.3147  0.0334 -0.1582
  761POPS   C3B11621  15.907   7.971   7.441 -0.2410  0.2768  0.1032
  761POPS   C4B11622  15.519   7.959   7.613  0.0765 -0.1795  0.2170
  762POPS   CNO11623   8.387   7.649   6.091 -0.0930  0.1083  0.1516
  762POPS   PO411624   8.169   7.452   6.372  0.2917 -0.0917  0.1015
  762POPS   GL111625   8.147   7.731   6.775  0.0796  0.2229 -0.2891
  762POPS   GL211626   8.425   7.946   6.836 -0.0585 -0.0154  0.1119
  762POPS   C1A11627   7.956   7.985   7.158  0.0471 -0.2388 -0.0471
  762POPS   D2A11628   7.839   8.279   7.465  0.2288 -0.1982 -0.2694
  762POPS   C3A11629   7.917   8.365   7.881  0.3907  0.1769 -0.1299
  762POPS   C4A11630   7.649   8.529   8.099  0.1772 -0.1052 -0.0039
  762POPS   C1B11631   8.499   7.939   7.220  0.2419 -0.0548 -0.1400
  762POPS   C2B11632   8.365   8.036   7.587  0.1981  0.0267  0.0057
  762POPS   C3B11633   8.362   8.268   8.005 -0.3098  0.0408 -0.0536
  762POPS   C4B11634   8.132   8.525   8.357  0.1768  0.0033  0.3810
  763POPS   CNO11635   6.587   2.743   6.158 -0.2261  0.1347  0.2949
  763POPS   PO411636   6.662   2.255   6.205  0.3147 -0.0424 -0.1476
  763POPS   GL111637   6.724   2.217   6.662  0.0546 -0.4032  0.0486
  763POPS   GL211638   6.803   2.038   6.876  0.1795 -0.0935  0.1159
  763POPS   C1A11639   6.925   2.602   7.038  0.0129  0.2588 -0.1281
  763POPS   D2A11640   7.233   2.470   7.373 -0.0924 -0.0643  0.0296
  763POPS   C3A11641   7.218   2.720   7.638 -0.1876  0.0710  0.1571
  763POPS   C4A11642   7.181   2.938   7.912 -0.2393 -0.0460 -0.0590
  763POPS   C1B11643   6.940   2.026   7.301  0.3477  0.2190  0.2736
  763POPS   C2B11644   6.713   2.165   7.697  0.3293 -0.3277  0.1924
  763POPS   C3B11645   6.939   2.490   7.965 -0.1228 -0.2198 -0.1298
  763POPS   C4B11646   6.919   2.770   8.297 -0.0623 -0.2848 -0.0928
  764POPS   CNO11647   2.690   0.907   6.029 -0.5090  0.0331 -0.2697
  764POPS   PO411648   2.927   1.207   6.179  0.1813  0.1796  0.3034
  764POPS   GL111649   2.744   0.984   6.546  0.1237 -0.0759  0.2065
  764POPS   GL211650   2.605   1.227   6.705 -0.2444 -0.0389 -0.0892
  764POPS   C1A11651   2.878   0.663   6.845 -0.0969 -0.0900 -0.0261
  764POPS   D2A11652   2.833   0.223   7.048 -0.0144  0.1277  0.1172
  764POPS   C3A11653   2.950   0.268   7.557  0.1453  0.1434 -0.0611
  764POPS   C4A11654   3.186   0.213   7.885  0.0147 -0.0089 -0.0536
  764POPS   C1B11655   2.400   1.144   7.144 -0.0802 -0.0805  0.1498
  764POPS   C2B11656   2.399   0.960   7.566  0.1373  0.2997 -0.1011
  764POPS   C3B11657   2.324   1.233   7.992  0.0712  0.2111 -0.0089
  764POPS   C4B11658   2.580   1.416   8.276 -0.0622 -0.0734  0.1853
  765POPS   CNO11659   1.668  17.272   5.666 -0.1644  0.3456 -0.3290
  765POPS   PO411660   1.995  17.358   6.008 -0.1090 -0.2448 -0.0155
  765POPS   GL111661   1.953  17.416   6.437 -0.0251  0.0232  0.3564
  765POPS   GL211662   2.229  17.218   6.567 -0.1525 -0.0205 -0.4438
  765POPS   C1A11663   1.848  17.461   6.781  0.1027 -0.1898 -0.1016
  765POPS   D2A11664   1.791  17.260   7.137 -0.1821 -0.0241  0.0393
  765POPS   C3A11665   2.009  16.971   7.534 -0.2457  0.2937  0.2518
  765POPS   C4A11666   1.822  16.786   7.880  0.2802 -0.0199 -0.1644
  765POPS   C1B11667   2.272  17.269   6.966  0.0068 -0.1656 -0.0382
  765POPS   C2B11668   2.215  17.390   7.382  0.1214  0.2552 -0.1736
  765POPS   C3B11669   2.374  17.319   7.772  0.2617  0.1525 -0.3978
  765POPS   C4B11670   2.520  17.381   8.165 -0.0882 -0.0324  0.1133
  766POPS   CNO11671   8.578  12.232   5.429 -0.4519 -0.1244 -0.3399
  766POPS   PO411672   8.453  12.021   5.827  0.1205 -0.3221 -0.2697
  766POPS   GL111673   8.298  12.261   6.201 -0.0036 -0.2829 -0.0329
  766POPS   GL211674   8.539  12.580   6.341 -0.0302  0.1370 -0.0087
  766POPS   C1A11675   8.238  12.072   6.553 -0.1684  0.5286  0.1707
  766POPS   D2A11676   8.146  12.113   6.924  0.2083 -0.1540  0.2025
  766POPS   C3A11677   8.417  11.937   7.154  0.1379 -0.1250 -0.3403
  766POPS   C4A11678   8.808  11.752   7.322  0.1283 -0.3135  0.2277
  766POPS   C1B11679   8.810  12.456   6.648 -0.0232  0.1308  0.2787
  766POPS   C2B11680   8.768  12.323   7.043  0.1080  0.0056  0.2329
  766POPS   C3B11681   8.675  12.278   7.499 -0.0745  0.2888 -0.3638
  766POPS   C4B11682   8.797  12.407   7.866 -0.2306  0.2027 -0.0464
  767POPS   CNO11683   1.203   2.070   6.037 -0.2560  0.1197 -0.1187
  767POPS   PO411684   0.753   2.141   6.044  0.0109 -0.1180  0.0785
  767POPS   GL111685   0.738   2.282   6.358 -0.0521  0.4340 -0.2105
  767POPS   GL211686   0.611   2.056   6.546 -0.0225  0.3813  0.0582
  767POPS   C1A11687   0.873   2.663   6.514 -0.1794  0.0149 -0.2852
  767POPS   D2A11688   1.294   2.694   6.744  0.3131  0.1551  0.0881
  767POPS   C3A11689   1.452   2.463   7.130  0.2922 -0.0081  0.1653
  767POPS   C4A11690   1.352   2.111   7.310  0.1389 -0.0297 -0.1566
  767POPS   C1B11691   0.709   1.780   6.839  0.0167 -0.0301 -0.3708
  767POPS   C2B11692   0.578   1.774   7.230  0.0895  0.4984  0.1483
  767POPS   C3B11693   0.474   1.715   7.722  0.0950 -0.1620 -0.0041
  767POPS   C4B11694   0.559   1.959   8.031 -0.0491  0.1347  0.1569
  768POPS   CNO11695   5.735   6.774   5.578  0.1795 -0.1130 -0.1045
  768POPS   PO411696   5.559   7.249   5.627 -0.2598 -0.0746  0.3614
  768POPS   GL111697   5.544   7.497   6.158  0.1913  0.1244  0.0881
  768POPS   GL211698   5.805   7.555   6.331 -0.1028  0.2339  0.0624
  768POPS   C1A11699   5.572   7.411   6.681 -0.0281 -0.2193 -0.1105
  768POPS   D2A11700   5.859   7.427   7.042 -0.1585 -0.0190  0.0901
  768POPS   C3A11701   5.737   7.272   7.480 -0.0309  0.3099 -0.0814
  768POPS   C4A11702   5.566   6.948   7.797 -0.0256 -0.0945  0.1577
  768POPS   C1B11703   5.921   7.835   6.560 -0.0129  0.1864 -0.0819
  768POPS   C2B11704   6.027   7.909   6.934 -0.0144  0.2988  0.3473
  768POPS   C3B11705   6.092   7.720   7.348 -0.1510 -0.1051 -0.1681
  768POPS   C4B11706   6.230   7.435   7.621 -0.0518  0.0199  0.4519
  769POPS   CNO11707  16.529   6.115   5.864  0.0016 -0.1360 -0.1346
  769POPS   PO411708  16.764   5.809   5.940 -0.1180 -0.0203  0.0256
  769POPS   GL111709  16.699   6.017   6.369  0.1376 -0.0095 -0.1409
  769POPS   GL211710  16.465   5.869   6.609  0.2052  0.1395 -0.3253
  769POPS   C1A11711  16.811   6.279   6.753  0.0431  0.3216 -0.6028
  769POPS   D2A11712  16.679   6.560   7.125  0.0639 -0.1695  0.2478
  769POPS   C3A11713  16.813   6.570   7.571 -0.0548 -0.0708  0.0250
  769POPS   C4A11714  16.799   6.304   8.033  0.1404 -0.2923 -0.1182
  769POPS   C1B11715  16.418   6.045   7.032  0.0052 -0.0245 -0.1434
  769POPS   C2B11716  16.330   6.352   7.400 -0.1326  0.1092 -0.4811
  769POPS   C3B11717  16.393   6.566   7.840  0.2997 -0.2772 -0.1643
  769POPS   C4B11718  16.334   6.783   8.256 -0.2479 -0.1656 -0.1701
  770POPS   CNO11719  15.688   4.452   6.498  0.3449 -0.1008 -0.1102
  770POPS   PO411720  16.015   4.761   6.428 -0.1091 -0.0399 -0.0657
  770POPS   GL111721  15.810   4.796   6.859  0.0196 -0.2748 -0.1454
  770POPS   GL211722  15.859   5.127   6.960  0.1645  0.2247 -0.1849
  770POPS   C1A11723  15.887   4.743   7.306 -0.0466  0.1347  0.0427
  770POPS   D2A11724  15.661   4.466   7.564  0.0024 -0.1870 -0.1841
  770POPS   C3A11725  15.271   4.567   7.623  0.0705  0.2283  0.2513
  770POPS   C4A11726  15.142   4.614   7.945 -0.1097  0.0097  0.3187
  770POPS   C1B11727  16.039   5.244   7.313  0.3127  0.0510 -0.4464
  770POPS   C2B11728  16.306   5.274   7.674  0.3878 -0.2499  0.1270
  770POPS   C3B11729  16.370   5.590   7.893 -0.0909  0.1036 -0.1786
  770POPS   C4B11730  16.528   5.821   8.118 -0.2049  0.1945 -0.1289
  771POPS   CNO11731   6.680   1.347   5.867  0.2289 -0.1065  0.0533
  771POPS   PO411732   6.988   1.395   6.204 -0.1745 -0.0540  0.0128
  771POPS   GL111733   7.051   1.350   6.563 -0.1221  0.2675  0.0753
  771POPS   GL211734   6.867   1.436   6.735  0.0870 -0.0368 -0.1301
  771POPS   C1A11735   7.421   1.288   6.698 -0.3088  0.0510  0.1936
  771POPS   D2A11736   7.680   1.384   7.054  0.2312 -0.3073 -0.1161
  771POPS   C3A11737   7.533   1.343   7.481 -0.1636  0.1083 -0.0594
  771POPS   C4A11738   7.411   0.991   7.768 -0.0303 -0.1114 -0.0277
  771POPS   C1B11739   7.052   1.149   7.033 -0.2096 -0.0126 -0.0365
  771POPS   C2B11740   7.238   0.831   7.049 -0.0730 -0.0611  0.0388
  771POPS   C3B11741   7.258   0.526   7.355 -0.1809 -0.0658  0.0851
  771POPS   C4B11742   7.367   0.355   7.773 -0.1745  0.1138 -0.1194
  772POPS   CNO11743   9.221   3.341   6.117 -0.0636 -0.1716 -0.1727
  772POPS   PO411744   9.525   3.442   5.915 -0.0689  0.1855  0.2463
  772POPS   GL111745   9.730   3.562   6.358 -0.1873 -0.1904  0.0604
  772POPS   GL211746   9.574   3.239   6.474 -0.1910  0.1810 -0.0301
  772POPS   C1A11747   9.787   3.436   6.850  0.0683  0.1269 -0.0118
  772POPS   D2A11748  10.002   3.594   7.229  0.1886 -0.0608  0.0563
  772POPS   C3A11749   9.912   3.276   7.592  0.1634  0.2431 -0.0615
  772POPS   C4A11750  10.031   2.922   8.019  0.1954 -0.0804 -0.1262
  772POPS   C1B11751   9.222   3.110   6.651 -0.0575 -0.0436 -0.0135
  772POPS   C2B11752   8.966   3.093   7.076  0.1226  0.0192 -0.2072
  772POPS   C3B11753   9.045   3.073   7.477  0.0424  0.3971  0.1182
  772POPS   C4B11754   9.135   2.773   7.803 -0.0420 -0.0259  0.2077
  773POPS   CNO11755   9.979   0.254   5.869 -0.2410 -0.1983 -0.0101
  773POPS   PO411756  10.392   0.048   5.984  0.2756 -0.0332 -0.0387
  773POPS   GL111757  10.618   0.111   6.388  0.0295 -0.0127 -0.2528
  773POPS   GL211758  10.520  -0.103   6.636  0.1963  0.0104  0.1710
  773POPS   C1A11759  10.774   0.459   6.620  0.0909 -0.2236 -0.1114
  773POPS   D2A11760  10.446   0.609   6.791 -0.2763  0.0573  0.1811
  773POPS   C3A11761  10.466   0.532   7.132  0.1770 -0.0966 -0.0683
  773POPS   C4A11762  10.244   0.617   7.539 -0.1923  0.0685  0.1417
  773POPS   C1B11763  10.693   0.110   7.019 -0.1393 -0.1409 -0.0529
  773POPS   C2B11764  10.475   0.141   7.389  0.3386  0.0255  0.0433
  773POPS   C3B11765  10.555   0.156   7.745 -0.0107  0.1056  0.1321
  773POPS   C4B11766  10.938   0.231   7.953 -0.3377  0.1700 -0.0261
  774POPS   CNO11767  10.605  16.191   6.074 -0.1830  0.0152  0.0186
  774POPS   PO411768  10.298  16.136   6.307 -0.0908  0.0633 -0.2455
  774POPS   GL111769  10.214  16.104   6.759 -0.1725 -0.0421 -0.3518
  774POPS   GL211770  10.500  15.909   6.926  0.0881 -0.0267  0.1405
  774POPS   C1A11771  10.076  16.192   7.206 -0.1734  0.1804 -0.0212
  774POPS   D2A11772   9.836  16.059   7.522  0.0451 -0.0476 -0.3569
  774POPS   C3A11773   9.989  16.081   8.004  0.1743  0.2991 -0.1693
  774POPS   C4A11774   9.962  16.116   8.494  0.1718  0.1788  0.4096
  774POPS   C1B11775  10.593  16.285   7.116  0.0258 -0.0742  0.4119
  774POPS   C2B11776  10.721  16.281   7.497 -0.3940 -0.1423  0.0635
  774POPS   C3B11777  10.708  16.476   7.899 -0.0008 -0.1955 -0.0662
  774POPS   C4B11778  10.436  16.437   8.253 -0.1128  0.1021 -0.1358
  775POPS   CNO11779   6.784   0.492   6.061  0.1806 -0.1449  0.0485
  775POPS   PO411780   6.460   0.647   6.436 -0.2191  0.2938  0.0304
  775POPS   GL111781   6.304   0.621   6.877  0.1739 -0.1268 -0.2461
  775POPS   GL211782   6.236   0.304   6.952 -0.1396  0.0698 -0.2661
  775POPS   C1A11783   6.202   0.907   7.159 -0.0795 -0.0921 -0.1403
  775POPS   D2A11784   6.205   1.017   7.655 -0.2248  0.1186  0.3184
  775POPS   C3A11785   5.965   1.011   7.946  0.0940  0.2206  0.0441
  775POPS   C4A11786   5.717   1.367   8.052 -0.0216 -0.0616  0.0743
  775POPS   C1B11787   6.495   0.215   7.285 -0.3174 -0.2776  0.1349
  775POPS   C2B11788   6.438  -0.015   7.612  0.1104  0.2033  0.0136
  775POPS   C3B11789   6.643  -0.218   8.052 -0.0296 -0.2301 -0.0220
  775POPS   C4B11790   6.844  -0.566   8.260 -0.2004  0.0129  0.1446
  776POPS   CNO11791  17.600   6.123   6.078  0.0983 -0.1473 -0.0316
  776POPS   PO411792  17.731   5.825   6.419  0.0495  0.3730 -0.1171
  776POPS   GL111793  17.486   5.889   6.773  0.1755  0.0434 -0.2545
  776POPS   GL211794  17.369   6.205   6.815 -0.0784 -0.3195 -0.0179
  776POPS   C1A11795  17.389   5.778   7.165 -0.0557 -0.2747 -0.0964
  776POPS   D2A11796  17.175   5.636   7.529  0.0454 -0.1109 -0.5616
  776POPS   C3A11797  17.086   5.846   7.859 -0.1575  0.0428  0.0089
  776POPS   C4A11798  17.122   5.985   8.233  0.2112  0.1339  0.1310
  776POPS   C1B11799  17.111   6.352   7.122 -0.0490  0.0622  0.2469
  776POPS   C2B11800  17.125   6.139   7.462 -0.0801  0.2657  0.0972
  776POPS   C3B11801  17.321   6.280   7.891  0.2648 -0.1454  0.0832
  776POPS   C4B11802  17.452   6.449   8.256  0.1534  0.2252 -0.0945
  777POPS   CNO11803   5.023   0.438   5.960 -0.0738  0.2515  0.1493
  777POPS   PO411804   5.367   0.532   6.098  0.0264 -0.2204  0.2342
  777POPS   GL111805   5.328   0.369   6.495 -0.2617  0.0130 -0.1275
  777POPS   GL211806   5.398   0.481   6.764 -0.1855 -0.0485 -0.1859
  777POPS   C1A11807   5.126  -0.000   6.744  0.4216 -0.0342  0.0152
  777POPS   D2A11808   5.242  -0.401   6.945 -0.0952  0.1935 -0.3122
  777POPS   C3A11809   5.140  -0.417   7.327  0.0575  0.1070 -0.0925
  777POPS   C4A11810   5.030  -0.512   7.747 -0.2406  0.0964  0.0327
  777POPS   C1B11811   5.365   0.659   7.162 -0.0902 -0.0248 -0.0689
  777POPS   C2B11812   5.388   0.572   7.648 -0.1087 -0.1599  0.2208
  777POPS   C3B11813   5.414   0.483   7.977  0.1723 -0.0346  0.0345
  777POPS   C4B11814   5.490   0.434   8.426 -0.2583  0.0155  0.1716
  778POPS   CNO11815   6.169   9.131   5.820 -0.1386 -0.2397 -0.2679
  778POPS   PO411816   6.416   8.836   6.089  0.2414 -0.1386 -0.0651
  778POPS   GL111817   6.307   8.848   6.504  0.1924  0.0032  0.0226
  778POPS   GL211818   6.529   8.644   6.644  0.3074 -0.0425  0.0240
  778POPS   C1A11819   6.161   8.881   6.896  0.0415 -0.2384 -0.3071
  778POPS   D2A11820   6.247   9.171   7.253 -0.0412  0.1559 -0.0783
  778POPS   C3A11821   5.936   9.280   7.493  0.2103 -0.1827 -0.1879
  778POPS   C4A11822   5.605   9.384   7.560 -0.1170  0.0609  0.2167
  778POPS   C1B11823   6.750   8.547   7.037  0.3165  0.0769 -0.2286
  778POPS   C2B11824   6.818   8.576   7.379 -0.1159 -0.2083  0.1520
  778POPS   C3B11825   6.610   8.331   7.557  0.2960  0.1733 -0.1431
  778POPS   C4B11826   6.655   7.989   7.853 -0.2383 -0.2863  0.2656
  779POPS   CNO11827  16.805  17.741   5.896  0.0285  0.1598 -0.1373
  779POPS   PO411828  16.451  17.466   5.903 -0.2858  0.0958 -0.1143
  779POPS   GL111829  16.452  17.501   6.369 -0.0031 -0.3691 -0.0113
  779POPS   GL211830  16.461  17.285   6.447 -0.0969  0.2872  0.3243
  779POPS   C1A11831  16.477  17.684   6.754 -0.0858  0.2676  0.0847
  779POPS   D2A11832  16.452  17.928   7.012 -0.0106 -0.2482  0.1574
  779POPS   C3A11833  15.974  17.923   7.194 -0.0827  0.2002 -0.0154
  779POPS   C4A11834  15.898  17.643   7.453 -0.0250  0.0063 -0.1846
  779POPS   C1B11835  16.652  17.150   6.842  0.1991 -0.0283 -0.1917
  779POPS   C2B11836  16.735  17.151   7.281  0.2353  0.1679 -0.0763
  779POPS   C3B11837  16.737  17.146   7.691  0.1104  0.0270 -0.1658
  779POPS   C4B11838  16.725  17.094   8.143 -0.0979  0.3018  0.2757
  780POPS   CNO11839   5.357   1.766   5.937 -0.0365  0.1413  0.3986
  780POPS   PO411840   5.439   1.473   6.165 -0.4018 -0.1581  0.2033
  780POPS   GL111841   5.348   1.328   6.498 -0.0272 -0.4538 -0.1251
  780POPS   GL211842   5.549   1.557   6.719  0.1078 -0.1605  0.1582
  780POPS   C1A11843   5.531   1.080   6.896  0.0918  0.0504  0.3772
  780POPS   D2A11844   5.734   1.020   7.325 -0.2068  0.0905 -0.1203
  780POPS   C3A11845   5.544   1.059   7.640  0.0991 -0.0453  0.0656
  780POPS   C4A11846   5.182   1.028   7.888  0.2259  0.0176 -0.2991
  780POPS   C1B11847   5.516   1.507   7.212 -0.0634 -0.2044  0.0578
  780POPS   C2B11848   5.389   1.505   7.636  0.1447  0.1077 -0.0877
  780POPS   C3B11849   5.518   1.822   7.897 -0.0684  0.0048 -0.0466
  780POPS   C4B11850   5.876   1.814   8.219  0.2855 -0.3007  0.0365
  781POPS   CNO11851   3.322   6.845   5.665 -0.1983 -0.0138  0.2791
  781POPS   PO411852   3.185   7.228   5.763 -0.1476  0.1693  0.1377
  781POPS   GL111853   3.158   7.330   6.225  0.0987  0.1373  0.0939
  781POPS   GL211854   3.127   7.619   6.186  0.0732  0.1731 -0.2347
  781POPS   C1A11855   3.548   7.519   6.538  0.1955  0.1593 -0.1383
  781POPS   D2A11856   3.896   7.766   6.551  0.1592 -0.1059 -0.1508
  781POPS   C3A11857   4.114   7.871   6.911 -0.2313 -0.0437 -0.0926
  781POPS   C4A11858   4.398   8.193   7.112 -0.2088  0.2221 -0.2787
  781POPS   C1B11859   2.894   7.549   6.591  0.0548 -0.0965  0.0205
  781POPS   C2B11860   2.813   7.328   6.949  0.3299 -0.1666 -0.2664
  781POPS   C3B11861   2.937   7.181   7.254 -0.1723  0.3629  0.2485
  781POPS   C4B11862   2.789   6.993   7.629  0.2876 -0.1774 -0.0262
  782POPS   CNO11863   8.268  16.522   5.737 -0.4068  0.2548 -0.1863
  782POPS   PO411864   7.924  16.581   6.050  0.3892  0.0362  0.0557
  782POPS   GL111865   8.079  16.725   6.471  0.1231 -0.1344 -0.3727
  782POPS   GL211866   8.334  16.899   6.575 -0.1873  0.2097 -0.2698
  782POPS   C1A11867   8.044  16.584   6.861 -0.1675 -0.2308 -0.1800
  782POPS   D2A11868   7.858  16.426   7.168 -0.1534 -0.4102  0.0978
  782POPS   C3A11869   7.881  16.511   7.599 -0.2865 -0.1582  0.1972
  782POPS   C4A11870   7.749  16.942   7.753 -0.0086  0.1447  0.1274
  782POPS   C1B11871   8.399  16.973   6.993  0.3070  0.2451 -0.1113
  782POPS   C2B11872   8.520  17.009   7.415  0.3039  0.2397 -0.2049
  782POPS   C3B11873   8.650  17.156   7.824 -0.0648 -0.0305 -0.0701
  782POPS   C4B11874   8.487  17.129   8.247 -0.1300 -0.3946  0.1315
  783POPS   CNO11875  11.254  15.079   6.196  0.0161 -0.2886 -0.3067
  783POPS   PO411876  10.992  14.810   6.271  0.2900 -0.1382  0.2112
  783POPS   GL111877  10.676  14.877   6.640  0.1488  0.0216 -0.0025
  783POPS   GL211878  10.314  14.892   6.725 -0.4126  0.0421 -0.1218
  783POPS   C1A11879  10.608  14.975   7.105  0.2230 -0.2018 -0.1899
  783POPS   D2A11880  10.338  14.703   7.276 -0.0591 -0.0781 -0.2473
  783POPS   C3A11881  10.253  14.417   7.668  0.0880 -0.1610 -0.1040
  783POPS   C4A11882  10.268  14.622   8.010 -0.2204  0.0354 -0.0021
  783POPS   C1B11883   9.954  14.957   7.125  0.1670  0.1763  0.1050
  783POPS   C2B11884   9.833  14.706   7.487  0.1147 -0.2148  0.1884
  783POPS   C3B11885   9.803  14.757   7.948  0.0880  0.0336 -0.1350
  783POPS   C4B11886   9.818  14.743   8.368  0.1145  0.0410 -0.0071
  784POPS   CNO11887  17.603   8.049   6.172  0.0462 -0.2438 -0.1135
  784POPS   PO411888  17.136   7.857   6.167  0.0484 -0.0440  0.1319
  784POPS   GL111889  17.211   7.772   6.618  0.1039 -0.1329  0.1686
  784POPS   GL211890  17.442   7.621   6.661 -0.1691 -0.3977 -0.2101
  784POPS   C1A11891  17.153   8.068   6.944  0.0216 -0.0088 -0.1517
  784POPS   D2A11892  17.160   8.450   7.224 -0.1468  0.0036  0.2801
  784POPS   C3A11893  17.041   8.339   7.600 -0.2833 -0.0940 -0.1807
  784POPS   C4A11894  16.710   8.296   7.869 -0.0120 -0.0025  0.1575
  784POPS   C1B11895  17.533   7.841   7.081 -0.0552  0.1817 -0.0012
  784POPS   C2B11896  17.432   7.638   7.494 -0.0799 -0.0382 -0.1063
  784POPS   C3B11897  17.217   7.775   7.912 -0.1136  0.0200  0.1823
  784POPS   C4B11898  16.854   7.841   8.180 -0.2020 -0.1197 -0.1946
  785POPS   CNO11899   0.853   6.130   5.690  0.1458 -0.0540 -0.0809
  785POPS   PO411900   0.908   5.990   6.129  0.4359 -0.0504  0.1485
  785POPS   GL111901   0.726   5.745   6.538  0.0282  0.3538 -0.1207
  785POPS   GL211902   0.887   5.593   6.744 -0.0871 -0.2419  0.0835
  785POPS   C1A11903   0.482   5.879   6.949  0.0480  0.0411  0.2846
  785POPS   D2A11904   0.125   5.704   7.063  0.0292 -0.2860  0.1479
  785POPS   C3A11905   0.022   5.638   7.457  0.0981 -0.0881  0.0657
  785POPS   C4A11906  -0.182   5.554   7.879 -0.0223  0.1689  0.1625
  785POPS   C1B11907   0.862   5.493   7.254 -0.2436  0.1523 -0.0530
  785POPS   C2B11908   0.443   5.312   7.558  0.0822 -0.2529  0.1143
  785POPS   C3B11909   0.032   5.101   7.617 -0.0917 -0.0231 -0.2117
  785POPS   C4B11910  -0.437   5.176   7.688  0.0851  0.0725 -0.4025
  786POPS   CNO11911   7.069  11.672   6.263 -0.2030 -0.0164 -0.1644
  786POPS   PO411912   7.307  11.368   6.120 -0.0054 -0.1299  0.1292
  786POPS   GL111913   7.119  11.203   6.515  0.3680  0.1239  0.0631
  786POPS   GL211914   6.800  11.205   6.674  0.0520  0.3716 -0.0909
  786POPS   C1A11915   7.251  11.550   6.749  0.3139  0.0605 -0.0140
  786POPS   D2A11916   7.516  11.741   7.119 -0.0174  0.1774 -0.0162
  786POPS   C3A11917   7.588  11.751   7.603 -0.2765  0.1069  0.0408
  786POPS   C4A11918   7.734  12.020   7.896 -0.1617 -0.0195 -0.0131
  786POPS   C1B11919   6.867  11.349   7.065  0.1127  0.0200 -0.1135
  786POPS   C2B11920   6.889  11.486   7.494  0.0313 -0.3113  0.2698
  786POPS   C3B11921   7.156  11.505   7.799  0.0012  0.0521  0.3421
  786POPS   C4B11922   6.837  11.695   8.115  0.1564 -0.0275  0.2540
  787POPS   CNO11923  10.564   1.389   6.216 -0.1909  0.1411  0.0341
  787POPS   PO411924  10.210   1.305   6.139 -0.1689 -0.0483  0.0116
  787POPS   GL111925  10.186   1.345   6.575 -0.0899 -0.1469  0.0045
  787POPS   GL211926   9.965   1.468   6.558  0.0592  0.2058 -0.1066
  787POPS   C1A11927  10.067   1.435   7.065 -0.0454  0.0846 -0.1323
  787POPS   D2A11928  10.130   1.097   7.404 -0.3276 -0.3257  0.0769
  787POPS   C3A11929   9.804   0.994   7.703 -0.0438 -0.1863 -0.0675
  787POPS   C4A11930   9.476   0.635   7.896  0.0371 -0.2993  0.1029
  787POPS   C1B11931   9.653   1.206   6.809 -0.3470 -0.0818 -0.1807
  787POPS   C2B11932   9.686   1.016   7.183  0.2196 -0.0324  0.3707
  787POPS   C3B11933   9.317   0.933   7.546 -0.1816  0.2674 -0.0761
  787POPS   C4B11934   9.134   1.077   8.020 -0.1101 -0.3892  0.3162
  788POPS   CNO11935   9.489  10.701   6.243 -0.1968  0.1192  0.0882
  788POPS   PO411936   9.918  10.969   6.231  0.1001 -0.2310  0.1395
  788POPS   GL111937   9.614  11.036   6.632 -0.0686  0.0241 -0.1439
  788POPS   GL211938   9.808  10.845   6.758 -0.1374  0.2873  0.1330
  788POPS   C1A11939   9.601  11.243   7.049 -0.0901 -0.1062  0.2277
  788POPS   D2A11940   9.653  11.321   7.486  0.0615  0.0107  0.1948
  788POPS   C3A11941   9.588  11.334   7.967 -0.1901 -0.1442 -0.0446
  788POPS   C4A11942   9.692  11.407   8.325  0.1723  0.5727  0.0179
  788POPS   C1B11943   9.501  10.709   7.003  0.0924 -0.1022  0.0401
  788POPS   C2B11944   9.383  10.443   7.340 -0.0494  0.2102  0.2482
  788POPS   C3B11945   9.433  10.288   7.786  0.1363 -0.0587  0.0295
  788POPS   C4B11946   9.702  10.301   8.135  0.4646  0.0136 -0.2359
  789POPS   CNO11947   5.825  11.492   5.685  0.3955 -0.1163  0.1763
  789POPS   PO411948   5.817  11.718   6.171 -0.3941  0.1151 -0.2864
  789POPS   GL111949   5.697  11.755   6.673 -0.3132  0.1290 -0.1170
  789POPS   GL211950   5.651  11.460   6.911 -0.3833  0.1129  0.0617
  789POPS   C1A11951   6.015  11.879   7.070 -0.1379 -0.3901 -0.2475
  789POPS   D2A11952   6.454  12.028   7.112 -0.1641  0.1090 -0.0424
  789POPS   C3A11953   6.586  11.907   7.623  0.0709 -0.3573  0.1692
  789POPS   C4A11954   6.543  12.064   7.941 -0.1641 -0.2615 -0.0605
  789POPS   C1B11955   5.477  11.707   7.157 -0.0073 -0.0989  0.0768
  789POPS   C2B11956   5.458  11.769   7.602  0.0272  0.1376  0.0363
  789POPS   C3B11957   5.371  11.624   7.974  0.0830  0.2537 -0.1050
  789POPS   C4B11958   5.599  11.496   8.304 -0.2597  0.0300 -0.1953
  790POPS   CNO11959   6.737  15.259   6.387  0.0485  0.0878 -0.2359
  790POPS   PO411960   6.973  14.940   6.622  0.1419 -0.1784 -0.2774
  790POPS   GL111961   7.145  14.892   7.002 -0.0616 -0.2019 -0.2668
  790POPS   GL211962   7.557  14.972   7.050  0.2201 -0.1080  0.0750
  790POPS   C1A11963   7.173  14.805   7.397  0.1706 -0.2660 -0.1806
  790POPS   D2A11964   7.130  14.866   7.901  0.2856  0.0419 -0.0449
  790POPS   C3A11965   6.841  14.897   8.140  0.1492 -0.0817  0.0605
  790POPS   C4A11966   6.746  14.950   8.522 -0.0387  0.3629  0.1805
  790POPS   C1B11967   7.657  14.834   7.467 -0.0000 -0.2950 -0.1116
  790POPS   C2B11968   7.638  14.830   7.889 -0.1505 -0.1994  0.0245
  790POPS   C3B11969   7.507  14.625   8.231  0.0384  0.1952  0.1776
  790POPS   C4B11970   7.455  14.204   8.485  0.0341 -0.1228  0.2978
  791POPS   CNO11971  15.806   3.527   6.420 -0.0105 -0.0319 -0.0811
  791POPS   PO411972  15.838   3.035   6.232 -0.0720 -0.1172 -0.2010
  791POPS   GL111973  15.773   3.049   6.671 -0.2942  0.1958  0.0258
  791POPS   GL211974  15.583   2.879   6.759  0.0318  0.1955 -0.1423
  791POPS   C1A11975  15.654   3.232   7.093  0.1076 -0.0466  0.0918
  791POPS   D2A11976  15.469   3.046   7.530  0.0131  0.1123 -0.1701
  791POPS   C3A11977  15.436   3.039   7.922  0.3367 -0.0510 -0.0311
  791POPS   C4A11978  15.855   2.894   8.167  0.0170 -0.1137 -0.1827
  791POPS   C1B11979  15.358   2.806   7.128 -0.0583  0.1342  0.0729
  791POPS   C2B11980  15.186   2.679   7.492 -0.2376  0.1260  0.3434
  791POPS   C3B11981  15.159   2.627   7.956  0.0274  0.2907  0.0396
  791POPS   C4B11982  14.968   2.657   8.368  0.0107 -0.0625  0.2639
  792POPS   CNO11983  11.120   0.627   6.281  0.3069  0.0505 -0.4496
  792POPS   PO411984  11.039   0.961   5.894 -0.0997 -0.0415  0.1077
  792POPS   GL111985  11.033   1.149   6.287  0.0313  0.0132  0.1829
  792POPS   GL211986  11.239   1.316   6.435  0.2211  0.0392  0.2365
  792POPS   C1A11987  11.085   0.925   6.649 -0.0571 -0.2907  0.1037
  792POPS   D2A11988  10.882   0.784   7.118 -0.4321  0.0664 -0.3175
  792POPS   C3A11989  10.615   0.933   7.410  0.1798 -0.1487 -0.3948
  792POPS   C4A11990  10.331   1.047   7.824  0.2661 -0.0205 -0.1653
  792POPS   C1B11991  11.298   1.382   6.816 -0.2531  0.0069  0.0336
  792POPS   C2B11992  11.044   1.418   7.197 -0.2190  0.3567 -0.0672
  792POPS   C3B11993  11.055   1.366   7.615  0.4911 -0.2286  0.0647
  792POPS   C4B11994  10.919   1.206   7.870 -0.0708 -0.1038  0.1761
  793POPS   CNO11995  13.617   3.410   5.766  0.0435 -0.0829  0.1534
  793POPS   PO411996  13.990   3.591   5.875  0.0139 -0.0810 -0.0104
  793POPS   GL111997  14.150   3.630   6.335  0.0866 -0.1238 -0.1416
  793POPS   GL211998  13.803   3.786   6.421 -0.3343  0.0876 -0.2197
  793POPS   C1A11999  14.181   3.517   6.710  0.0919 -0.2400 -0.2318
  793POPS   D2A12000  14.133   3.224   7.024  0.1702  0.0847  0.0098
  793POPS   C3A12001  13.859   3.183   7.302  0.0292 -0.0801 -0.2060
  793POPS   C4A12002  13.721   3.091   7.657  0.1215  0.0372 -0.2691
  793POPS   C1B12003  13.828   3.950   6.815 -0.4543 -0.3496  0.0932
  793POPS   C2B12004  13.501   4.043   7.321 -0.1641  0.0151 -0.2444
  793POPS   C3B12005  13.667   4.388   7.554 -0.1738  0.0041 -0.1270
  793POPS   C4B12006  13.843   4.393   7.940 -0.1596  0.1222  0.0411
  794POPS   CNO12007  12.100  13.389   6.459  0.0558 -0.3600  0.0463
  794POPS   PO412008  12.471  13.072   6.241 -0.0407  0.0046 -0.1418
  794POPS   GL112009  12.403  12.904   6.645  0.0807 -0.0483  0.0759
  794POPS   GL212010  12.126  12.756   6.631 -0.0398  0.1143 -0.0267
  794POPS   C1A12011  12.320  12.822   7.051  0.2480  0.1494  0.1667
  794POPS   D2A12012  12.203  12.915   7.484 -0.0323 -0.0517  0.0612
  794POPS   C3A12013  12.308  12.848   7.976 -0.3968 -0.0648 -0.2451
  794POPS   C4A12014  12.367  12.943   8.398  0.2730 -0.2949  0.0956
  794POPS   C1B12015  11.892  12.551   6.711  0.4865 -0.0891 -0.1011
  794POPS   C2B12016  11.720  12.261   7.044  0.0617  0.1392 -0.2796
  794POPS   C3B12017  11.533  12.432   7.480  0.2580  0.0960 -0.1092
  794POPS   C4B12018  11.258  12.408   7.857  0.2935 -0.0601  0.1318
  795POPS   CNO12019   5.487  12.145   6.418 -0.1458 -0.0877 -0.2118
  795POPS   PO412020   5.636  12.514   6.381  0.2018 -0.2254 -0.3225
  795POPS   GL112021   5.386  12.587   6.759 -0.0275  0.1196 -0.1739
  795POPS   GL212022   5.492  12.914   6.807  0.3004  0.2493 -0.2220
  795POPS   C1A12023   5.314  12.721   7.217  0.3192 -0.0022 -0.1648
  795POPS   D2A12024   5.456  12.892   7.674 -0.2569 -0.2169  0.0552
  795POPS   C3A12025   5.668  13.202   7.840  0.0853  0.0484  0.1729
  795POPS   C4A12026   5.750  13.500   8.012  0.1169  0.1736  0.2350
  795POPS   C1B12027   5.814  12.837   7.235 -0.2471 -0.0203 -0.2003
  795POPS   C2B12028   6.000  12.859   7.608  0.2268  0.0949  0.0613
  795POPS   C3B12029   6.175  12.954   7.980  0.1284  0.1187  0.2089
  795POPS   C4B12030   6.080  13.277   8.340  0.1985 -0.2629 -0.0111
  796POPS   CNO12031   9.270  16.393   6.261 -0.1979  0.0306 -0.0860
  796POPS   PO412032   8.962  16.565   6.129 -0.1234  0.0596  0.2068
  796POPS   GL112033   8.948  16.713   6.510  0.0918  0.0349 -0.3820
  796POPS   GL212034   8.823  16.874   6.735 -0.0717 -0.0473  0.1009
  796POPS   C1A12035   9.191  16.531   6.834 -0.1022 -0.1818 -0.2073
  796POPS   D2A12036   9.058  16.640   7.264  0.1321  0.0600 -0.1893
  796POPS   C3A12037   8.826  16.730   7.675  0.2348 -0.0101  0.1305
  796POPS   C4A12038   8.982  16.919   8.058  0.0575  0.0114 -0.0069
  796POPS   C1B12039   8.647  16.511   6.974  0.1413 -0.0413  0.0845
  796POPS   C2B12040   8.398  16.495   7.279  0.3191 -0.1014 -0.0506
  796POPS   C3B12041   8.507  16.364   7.707 -0.1696 -0.3964  0.1039
  796POPS   C4B12042   8.774  16.378   8.025 -0.1876 -0.0873  0.2632
  797POPS   CNO12043  11.093   6.951   6.507 -0.3276 -0.1308  0.2599
  797POPS   PO412044  10.781   6.655   6.658 -0.1025 -0.0152 -0.0651
  797POPS   GL112045  10.774   6.981   6.906 -0.0479 -0.0026 -0.1505
  797POPS   GL212046  10.863   7.354   6.800  0.1602 -0.0864 -0.0848
  797POPS   C1A12047  10.719   7.022   7.375  0.2782 -0.0402  0.1668
  797POPS   D2A12048  10.855   7.396   7.636 -0.1620  0.0722 -0.1378
  797POPS   C3A12049  10.538   7.471   7.936  0.1036 -0.1337  0.0521
  797POPS   C4A12050  10.454   7.750   8.361  0.0759  0.0104 -0.0686
  797POPS   C1B12051  11.243   7.810   6.794  0.1609 -0.0519 -0.2896
  797POPS   C2B12052  11.254   8.189   7.000  0.1845 -0.0637 -0.1366
  797POPS   C3B12053  11.439   8.407   7.417  0.0735 -0.2748 -0.0072
  797POPS   C4B12054  11.353   8.506   7.838  0.1253  0.0425  0.0956
  798POPS   CNO12055  13.835  16.896   6.093 -0.2154  0.0498 -0.0187
  798POPS   PO412056  13.868  17.105   6.480 -0.1910  0.6429  0.1509
  798POPS   GL112057  13.975  17.424   6.824  0.0528  0.1900 -0.0634
  798POPS   GL212058  13.746  17.746   6.926  0.0425 -0.2487  0.0442
  798POPS   C1A12059  14.048  17.336   7.256  0.1729 -0.0840 -0.0154
  798POPS   D2A12060  13.976  17.320   7.615  0.3766  0.0351 -0.2068
  798POPS   C3A12061  14.174  17.652   7.909  0.3189  0.0425  0.0568
  798POPS   C4A12062  14.511  17.972   8.093  0.0356  0.1001  0.1442
  798POPS   C1B12063  14.036  18.105   7.016 -0.1688  0.1398  0.1184
  798POPS   C2B12064  14.042  18.277   7.389 -0.1836  0.0461 -0.2040
  798POPS   C3B12065  13.871  18.514   7.695 -0.0234 -0.1577  0.0488
  798POPS   C4B12066  13.851  19.014   7.709  0.1579  0.2972 -0.0718
  799POPS   CNO12067  14.177   8.723   6.032  0.1998  0.0274 -0.0553
  799POPS   PO412068  13.838   8.403   5.867 -0.0278 -0.0972  0.0746
  799POPS   GL112069  13.774   8.464   6.365 -0.0233  0.1483 -0.1181
  799POPS   GL212070  13.555   8.715   6.464  0.0151  0.2384  0.1036
  799POPS   C1A12071  14.043   8.540   6.760 -0.1954 -0.2120 -0.3714
  799POPS   D2A12072  14.107   8.513   7.200 -0.3336 -0.0273  0.0019
  799POPS   C3A12073  13.688   8.509   7.475  0.0349 -0.2094  0.0892
  799POPS   C4A12074  13.397   8.412   7.806 -0.1375  0.0558 -0.3181
  799POPS   C1B12075  13.563   8.393   6.805 -0.0349 -0.4296 -0.2345
  799POPS   C2B12076  13.625   8.134   7.164  0.1473 -0.0042 -0.1263
  799POPS   C3B12077  13.943   7.752   7.163 -0.0550  0.1217  0.0458
  799POPS   C4B12078  14.285   7.607   7.095 -0.2071  0.5219 -0.0973
  800POPS   CNO12079   4.257   9.436   5.974  0.2770  0.1563  0.2395
  800POPS   PO412080   4.633   9.133   5.926  0.0999  0.0432  0.2149
  800POPS   GL112081   4.645   9.198   6.288 -0.0730  0.0954 -0.2469
  800POPS   GL212082   4.346   9.126   6.402  0.1263  0.1062 -0.0633
  800POPS   C1A12083   4.866   9.424   6.646  0.0591 -0.0192  0.1059
  800POPS   D2A12084   5.165   9.627   6.864 -0.0558  0.4243  0.0447
  800POPS   C3A12085   5.535   9.600   7.111  0.1576  0.1123  0.0780
  800POPS   C4A12086   5.981   9.634   7.102 -0.0556  0.1230 -0.1392
  800POPS   C1B12087   4.442   9.263   6.787 -0.1947  0.3217  0.0916
  800POPS   C2B12088   4.714   9.320   7.168  0.0089 -0.2223 -0.0269
  800POPS   C3B12089   4.876   9.423   7.605 -0.2193  0.1769 -0.2613
  800POPS   C4B12090   4.768   9.443   8.043  0.1516 -0.1375 -0.0965
  801POPS   CNO12091   8.798   7.960   5.876 -0.1113  0.0202  0.0641
  801POPS   PO412092   8.776   8.444   5.883  0.2353  0.1086  0.0271
  801POPS   GL112093   8.659   8.576   6.254 -0.0848 -0.2126  0.3038
  801POPS   GL212094   8.737   8.576   6.526  0.0715 -0.0687 -0.1007
  801POPS   C1A12095   8.294   8.866   6.554  0.1989  0.0896  0.1070
  801POPS   D2A12096   8.135   8.900   6.934  0.0249 -0.1896 -0.2277
  801POPS   C3A12097   7.847   8.807   7.155  0.1043 -0.3376  0.3708
  801POPS   C4A12098   7.588   8.811   7.487  0.0909  0.0192 -0.2534
  801POPS   C1B12099   8.713   8.753   6.859 -0.1063  0.0948  0.0855
  801POPS   C2B12100   8.441   8.939   7.278  0.0068  0.0564 -0.0229
  801POPS   C3B12101   8.109   9.071   7.586 -0.2813  0.2155 -0.3089
  801POPS   C4B12102   7.910   8.954   7.978  0.2343  0.0115 -0.0023
  802POPS   CNO12103  12.091  12.068   5.829  0.1108  0.1626  0.0645
  802POPS   PO412104  11.701  11.961   5.955 -0.0743 -0.2245  0.0649
  802POPS   GL112105  11.710  11.829   6.255 -0.3866  0.0109  0.0001
  802POPS   GL212106  11.413  11.751   6.432  0.2429 -0.0206 -0.1390
  802POPS   C1A12107  11.819  12.075   6.584 -0.2850 -0.4763  0.1924
  802POPS   D2A12108  11.706  11.783   6.955  0.0415  0.2336 -0.1720
  802POPS   C3A12109  11.935  11.874   7.288 -0.3158 -0.0979 -0.1647
  802POPS   C4A12110  11.996  11.935   7.707  0.0863 -0.1408 -0.1427
  802POPS   C1B12111  11.361  12.156   6.690  0.1217  0.1923  0.0487
  802POPS   C2B12112  11.211  12.488   7.017  0.0413  0.0027 -0.1153
  802POPS   C3B12113  10.959  12.628   7.407  0.1707  0.0430 -0.1501
  802POPS   C4B12114  10.917  12.872   7.783 -0.0931 -0.3160 -0.1936
  803YOPS   CNO12115  10.683   5.655   5.884 -0.3414  0.1867 -0.5031
  803YOPS   PO412116  11.030   5.703   6.199  0.0521 -0.0038 -0.0357
  803YOPS   GL112117  11.093   5.720   6.606 -0.5809 -0.0471 -0.0903
  803YOPS   GL212118  11.320   5.916   6.628  0.2993  0.2148  0.0129
  803YOPS   C1A12119  11.206   5.638   7.090 -0.1489 -0.0834  0.1419
  803YOPS   D2A12120  11.270   5.499   7.519 -0.0821 -0.0922  0.0383
  803YOPS   C3A12121  11.291   5.421   7.856 -0.2640  0.0310 -0.2799
  803YOPS   C4A12122  11.655   5.363   8.082  0.0018 -0.0426  0.0740
  803YOPS   C1B12123  11.271   6.198   6.929  0.1355 -0.0748  0.2400
  803YOPS   C2B12124  11.406   6.110   7.354 -0.1720  0.2704  0.4356
  803YOPS   D3B12125  11.449   5.985   7.810 -0.2341 -0.0143  0.0569
  803YOPS   C4B12126  11.747   6.276   8.050  0.0527  0.0084  0.0722
  804YOPS   CNO12127   1.226   9.779   6.537  0.2610  0.0675 -0.1147
  804YOPS   PO412128   0.887  10.002   6.461 -0.1638  0.3331  0.0072
  804YOPS   GL112129   0.907  10.222   6.827  0.2206  0.1255 -0.1599
  804YOPS   GL212130   1.160  10.207   6.990  0.2218 -0.0466 -0.0708
  804YOPS   C1A12131   0.674  10.365   7.202  0.0874 -0.2852  0.1432
  804YOPS   D2A12132   0.610  10.726   7.418  0.0680  0.2406  0.2631
  804YOPS   C3A12133   0.484  11.110   7.522  0.1338 -0.2392  0.0610
  804YOPS   C4A12134   0.847  11.398   7.577  0.1774 -0.0342 -0.1785
  804YOPS   C1B12135   1.107  10.314   7.411 -0.1413  0.0198 -0.1514
  804YOPS   C2B12136   1.194  10.412   7.831 -0.2335  0.0529  0.0799
  804YOPS   D3B12137   1.605  10.352   8.090  0.0346  0.1328 -0.3915
  804YOPS   C4B12138   1.601  10.591   8.431  0.0754  0.0827 -0.1091
  805YOPS   CNO12139   6.669  12.661   6.087 -0.1712  0.2629  0.0369
  805YOPS   PO412140   6.893  12.739   5.807  0.3325 -0.0188  0.3143
  805YOPS   GL112141   7.148  12.619   6.210 -0.0529  0.1161 -0.2632
  805YOPS   GL212142   7.384  12.808   6.444  0.3334  0.0790  0.0842
  805YOPS   C1A12143   7.036  12.618   6.700  0.2607  0.0336  0.2957
  805YOPS   D2A12144   6.972  12.858   6.999 -0.0113  0.1269 -0.1856
  805YOPS   C3A12145   7.124  13.263   7.149  0.2875  0.1889  0.0038
  805YOPS   C4A12146   7.562  13.364   7.066 -0.0411  0.0823  0.3584
  805YOPS   C1B12147   7.441  12.872   6.884  0.2967  0.0665 -0.0003
  805YOPS   C2B12148   7.564  12.908   7.242  0.0961 -0.0416  0.0594
  805YOPS   D3B12149   7.757  12.618   7.480  0.1046 -0.4275 -0.2443
  805YOPS   C4B12150   7.463  12.324   7.648 -0.0990  0.1659 -0.1755
  806YOPS   CNO12151   4.486   3.504   6.341 -0.1150  0.0293  0.1197
  806YOPS   PO412152   4.863   3.707   6.418 -0.0954  0.0257  0.0932
  806YOPS   GL112153   4.821   3.882   6.853  0.4778 -0.2218  0.0879
  806YOPS   GL212154   5.123   3.796   6.933 -0.0171  0.1064 -0.2739
  806YOPS   C1A12155   4.784   4.097   7.319  0.1261 -0.0089  0.1307
  806YOPS   D2A12156   4.910   4.324   7.689 -0.0617  0.0895 -0.1357
  806YOPS   C3A12157   4.719   4.625   8.084  0.0800 -0.2077 -0.4463
  806YOPS   C4A12158   4.697   4.950   8.267 -0.0062 -0.1519  0.0648
  806YOPS   C1B12159   5.387   3.430   7.176 -0.0790 -0.2295 -0.2683
  806YOPS   C2B12160   5.402   3.198   7.579  0.2879  0.0584  0.1915
  806YOPS   D3B12161   5.608   3.233   7.981 -0.0402  0.0474  0.1015
  806YOPS   C4B12162   5.405   3.474   8.335  0.1500 -0.2479 -0.1257
  807YOPS   CNO12163   2.512  12.680   6.203 -0.0328  0.2215 -0.1608
  807YOPS   PO412164   2.634  13.028   6.430  0.0148  0.0874  0.2750
  807YOPS   GL112165   2.789  12.759   6.671 -0.0836  0.1731 -0.1610
  807YOPS   GL212166   2.650  12.439   6.649 -0.0177  0.0587  0.0800
  807YOPS   C1A12167   2.756  12.619   7.045 -0.0562 -0.4657 -0.1750
  807YOPS   D2A12168   2.941  12.757   7.496 -0.2004  0.1143  0.2848
  807YOPS   C3A12169   3.045  13.007   7.792  0.3093  0.1853 -0.0984
  807YOPS   C4A12170   2.853  13.358   7.683 -0.1799 -0.0242  0.3136
  807YOPS   C1B12171   2.993  12.213   6.969  0.1359  0.1720  0.5614
  807YOPS   C2B12172   3.119  12.175   7.434 -0.0166  0.1990 -0.1040
  807YOPS   D3B12173   3.499  12.030   7.674 -0.1530 -0.3210  0.0547
  807YOPS   C4B12174   3.685  12.188   8.063 -0.0729 -0.2937 -0.3891
  808YOPS   CNO12175   7.560   4.037   6.750  0.0256 -0.4237  0.0835
  808YOPS   PO412176   7.915   3.848   6.497 -0.1100 -0.2367 -0.0257
  808YOPS   GL112177   8.055   3.869   6.807 -0.0005 -0.0727 -0.0619
  808YOPS   GL212178   7.887   3.674   6.993  0.0331 -0.0889  0.0485
  808YOPS   C1A12179   7.873   4.203   7.089  0.0394  0.0261  0.1241
  808YOPS   D2A12180   7.709   4.586   7.156  0.1982  0.0228  0.3267
  808YOPS   C3A12181   7.646   4.817   7.482 -0.1164  0.0524  0.0287
  808YOPS   C4A12182   7.237   4.745   7.690  0.0557 -0.3385 -0.0693
  808YOPS   C1B12183   8.014   3.704   7.421 -0.0030 -0.0897 -0.0137
  808YOPS   C2B12184   7.914   3.633   7.847 -0.3198  0.0944  0.1265
  808YOPS   D3B12185   7.980   3.698   8.247 -0.0625 -0.0659 -0.2622
  808YOPS   C4B12186   7.769   3.913   8.507 -0.0097 -0.2328 -0.0662
  809YOPS   CNO12187  11.962   9.454   5.646  0.2322  0.0564 -0.1749
  809YOPS   PO412188  11.642   9.669   5.891 -0.2579  0.3140 -0.0616
  809YOPS   GL112189  11.696   9.534   6.358  0.1216  0.2266 -0.0842
  809YOPS   GL212190  11.520   9.413   6.427  0.0446  0.2178 -0.0946
  809YOPS   C1A12191  11.701   9.707   6.808  0.0558  0.0891  0.2745
  809YOPS   D2A12192  11.858   9.633   7.209  0.3300  0.3442  0.0849
  809YOPS   C3A12193  11.801   9.247   7.458  0.0100 -0.0241  0.1555
  809YOPS   C4A12194  11.492   8.939   7.320 -0.1864  0.1600 -0.0643
  809YOPS   C1B12195  11.413   9.181   6.811 -0.0933  0.2663 -0.1450
  809YOPS   C2B12196  11.141   8.881   6.935 -0.1208  0.1154  0.0466
  809YOPS   D3B12197  10.877   8.585   6.761  0.2350 -0.0205  0.2218
  809YOPS   C4B12198  10.807   8.143   6.750  0.0794  0.1965 -0.2439
  810YOPS   CNO12199  13.580   6.993   5.987  0.2111  0.2337  0.1585
  810YOPS   PO412200  13.715   6.583   6.091 -0.1293  0.0582  0.1338
  810YOPS   GL112201  14.161   6.567   6.129 -0.1161 -0.2098 -0.0247
  810YOPS   GL212202  14.460   6.538   6.003  0.2499  0.1486 -0.0610
  810YOPS   C1A12203  14.558   6.441   6.457  0.2100  0.0070  0.1663
  810YOPS   D2A12204  14.651   6.507   6.820  0.0667  0.0086 -0.0654
  810YOPS   C3A12205  14.905   6.629   7.143 -0.2295  0.1029  0.2222
  810YOPS   C4A12206  14.830   6.608   7.549  0.1085 -0.1577  0.0545
  810YOPS   C1B12207  14.483   6.948   6.307  0.0588  0.2732 -0.2243
  810YOPS   C2B12208  14.559   6.997   6.831 -0.4142 -0.2336 -0.2559
  810YOPS   D3B12209  14.432   7.168   7.291 -0.0679 -0.2892  0.2845
  810YOPS   C4B12210  14.625   7.535   7.463  0.1228  0.1674 -0.0373
  811YOPS   CNO12211  13.942  13.699   5.869  0.0217 -0.0962 -0.1175
  811YOPS   PO412212  14.002  14.163   6.051  0.0576  0.1643  0.0034
  811YOPS   GL112213  14.155  13.961   6.454 -0.0498 -0.2500 -0.0258
  811YOPS   GL212214  13.966  14.038   6.577  0.0891 -0.1238  0.0229
  811YOPS   C1A12215  14.544  13.790   6.693 -0.1145 -0.0355  0.0711
  811YOPS   D2A12216  14.701  13.576   7.098 -0.3774 -0.0402  0.2065
  811YOPS   C3A12217  14.782  13.217   7.002 -0.2045 -0.1139  0.1651
  811YOPS   C4A12218  14.452  12.824   7.083  0.0507 -0.1360  0.2382
  811YOPS   C1B12219  14.122  13.889   6.993  0.0925  0.1264 -0.0618
  811YOPS   C2B12220  14.215  13.760   7.332  0.0164  0.0921  0.1058
  811YOPS   D3B12221  14.491  13.657   7.620  0.0047 -0.2555  0.3666
  811YOPS   C4B12222  14.604  13.998   7.966 -0.0907 -0.0093  0.0806
  812YOPS   CNO12223  10.110   4.071   5.874  0.0273 -0.0470 -0.0324
  812YOPS   PO412224   9.709   4.002   5.991 -0.1463  0.0194  0.0590
  812YOPS   GL112225   9.705   4.154   6.353  0.0392 -0.1172  0.0950
  812YOPS   GL212226   9.387   4.177   6.345  0.1281  0.0890 -0.1337
  812YOPS   C1A12227   9.647   3.941   6.827 -0.0084  0.2261  0.3065
  812YOPS   D2A12228   9.474   3.866   7.196 -0.3643 -0.0607 -0.0420
  812YOPS   C3A12229   9.644   3.745   7.552 -0.0714 -0.0789  0.1417
  812YOPS   C4A12230   9.736   3.566   7.926 -0.1383  0.0785  0.0688
  812YOPS   C1B12231   9.154   4.062   6.753  0.0954  0.1654  0.0561
  812YOPS   C2B12232   8.987   3.979   7.136  0.0214  0.1904  0.3079
  812YOPS   D3B12233   8.857   4.162   7.533  0.0915  0.1687  0.0829
  812YOPS   C4B12234   8.534   4.383   7.622  0.0557 -0.0781 -0.0415
  813YOPS   CNO12235  10.174   2.240   5.969 -0.2519  0.2360 -0.0269
  813YOPS   PO412236  10.359   2.297   6.385 -0.2849  0.1381  0.1892
  813YOPS   GL112237  10.222   2.529   6.722 -0.1110 -0.2069 -0.1454
  813YOPS   GL212238  10.394   2.747   6.877 -0.0138  0.3032  0.1525
  813YOPS   C1A12239  10.031   2.436   7.099 -0.1737 -0.1999 -0.0228
  813YOPS   D2A12240   9.886   2.290   7.461  0.1382  0.0543 -0.3775
  813YOPS   C3A12241   9.777   2.101   7.819  0.0722 -0.2275 -0.2015
  813YOPS   C4A12242   9.441   1.837   7.731 -0.1095 -0.3379  0.0540
  813YOPS   C1B12243  10.656   3.023   7.142 -0.0325 -0.0842  0.3164
  813YOPS   C2B12244  10.732   3.253   7.499 -0.0404  0.1696 -0.0296
  813YOPS   D3B12245  10.459   3.164   7.918 -0.2525 -0.0204 -0.3228
  813YOPS   C4B12246  10.561   2.827   8.242 -0.4214 -0.2735  0.3785
  814YOPS   CNO12247   3.228   2.634   5.993  0.0756  0.1823 -0.0422
  814YOPS   PO412248   2.969   2.732   6.387  0.3777 -0.3932  0.3342
  814YOPS   GL112249   3.090   2.803   6.697  0.2392  0.0364 -0.0162
  814YOPS   GL212250   3.385   2.811   6.772  0.0773  0.0923  0.1865
  814YOPS   C1A12251   2.937   2.691   7.137 -0.1471  0.2469 -0.2740
  814YOPS   D2A12252   2.766   2.795   7.581  0.0317 -0.0226 -0.1298
  814YOPS   C3A12253   2.642   2.634   8.025  0.2147 -0.1339  0.1967
  814YOPS   C4A12254   2.837   2.366   8.315 -0.1567 -0.2279 -0.1245
  814YOPS   C1B12255   3.304   3.100   7.060 -0.0909  0.1435 -0.0883
  814YOPS   C2B12256   3.109   3.147   7.452  0.1003 -0.6061  0.1698
  814YOPS   D3B12257   3.130   3.101   7.852 -0.1558  0.1376 -0.2476
  814YOPS   C4B12258   3.166   3.502   8.055 -0.0723 -0.1442 -0.1765
  815YOPS   CNO12259   4.587   0.278   6.104 -0.1832 -0.2124 -0.1483
  815YOPS   PO412260   4.723  -0.107   6.027 -0.0263  0.0155  0.2410
  815YOPS   GL112261   4.702   0.006   6.477  0.3272 -0.0229 -0.2967
  815YOPS   GL212262   4.512   0.275   6.626 -0.1216  0.1843 -0.0495
  815YOPS   C1A12263   4.701   0.070   7.007  0.0778  0.0276  0.0767
  815YOPS   D2A12264   4.607   0.369   7.331  0.1913  0.0522 -0.1806
  815YOPS   C3A12265   4.420   0.386   7.738  0.0298 -0.3378  0.1405
  815YOPS   C4A12266   4.617   0.042   7.973 -0.1319 -0.2536  0.0116
  815YOPS   C1B12267   4.494   0.721   6.885  0.1126 -0.0784 -0.0253
  815YOPS   C2B12268   4.541   0.854   7.240 -0.1289 -0.1280  0.1082
  815YOPS   D3B12269   4.482   0.857   7.631 -0.1105  0.2400  0.0603
  815YOPS   C4B12270   4.570   0.775   8.028 -0.3853 -0.0102 -0.0878
  816YOPS   CNO12271  11.881   8.905   5.787  0.1515  0.1066  0.1213
  816YOPS   PO412272  12.016   9.137   6.071 -0.0408  0.1411 -0.0804
  816YOPS   GL112273  12.091   9.199   6.517 -0.0514  0.1585 -0.1242
  816YOPS   GL212274  12.351   9.413   6.511  0.0075  0.1486  0.0493
  816YOPS   C1A12275  11.916   9.216   6.931  0.0048 -0.1214  0.0813
  816YOPS   D2A12276  11.984   8.814   7.240  0.0266 -0.1730  0.1532
  816YOPS   C3A12277  11.862   8.670   7.613  0.1903  0.1538 -0.1910
  816YOPS   C4A12278  11.889   8.259   7.748 -0.2731 -0.0560 -0.2033
  816YOPS   C1B12279  12.409   9.331   7.027  0.0092 -0.1166  0.3198
  816YOPS   C2B12280  12.576   9.419   7.427  0.2556  0.4423  0.0767
  816YOPS   D3B12281  12.495   9.471   7.759 -0.2494 -0.0068  0.4237
  816YOPS   C4B12282  12.593   9.146   8.124 -0.0794  0.2096  0.2486
  817YOPS   CNO12283  15.837  10.215   5.985 -0.2171 -0.0384 -0.0388
  817YOPS   PO412284  15.887  10.075   6.357 -0.1315 -0.0423 -0.0945
  817YOPS   GL112285  16.073  10.257   6.652  0.6830  0.0186 -0.2208
  817YOPS   GL212286  16.123  10.525   6.566  0.0180  0.1636  0.1708
  817YOPS   C1A12287  16.348  10.349   6.971  0.0453 -0.0402 -0.1284
  817YOPS   D2A12288  16.546  10.065   7.319 -0.1142 -0.0273  0.0157
  817YOPS   C3A12289  17.034  10.011   7.514 -0.3150 -0.0952 -0.2214
  817YOPS   C4A12290  17.138  10.302   7.835  0.0800 -0.1888  0.0944
  817YOPS   C1B12291  16.001  10.727   7.034  0.0930  0.0389  0.1023
  817YOPS   C2B12292  15.744  11.033   7.222 -0.0624 -0.0944  0.1247
  817YOPS   D3B12293  15.643  11.435   7.300 -0.1698 -0.5297 -0.2234
  817YOPS   C4B12294  15.866  11.855   7.340  0.0009 -0.1131 -0.0032
  818YOPS   CNO12295  15.527   0.451   6.255 -0.1010  0.0645  0.2707
  818YOPS   PO412296  15.497   0.662   6.653  0.1650  0.2233  0.1751
  818YOPS   GL112297  15.304   0.888   6.869 -0.1752  0.1771 -0.1736
  818YOPS   GL212298  15.087   0.979   6.557  0.2737 -0.1232  0.4835
  818YOPS   C1A12299  15.274   0.955   7.300 -0.4499  0.0546 -0.2949
  818YOPS   D2A12300  15.182   0.918   7.689  0.0503 -0.0868  0.0431
  818YOPS   C3A12301  14.820   0.833   7.826  0.1004  0.0579  0.0295
  818YOPS   C4A12302  14.815   0.603   8.142  0.0493  0.0399 -0.0506
  818YOPS   C1B12303  14.843   0.976   6.960 -0.0298 -0.3457  0.0412
  818YOPS   C2B12304  14.688   0.915   7.351  0.0787  0.3306 -0.1831
  818YOPS   D3B12305  14.408   0.963   7.588 -0.2825 -0.2997 -0.0313
  818YOPS   C4B12306  14.383   1.047   8.020 -0.3145  0.2005  0.0734
  819YOPS   CNO12307  13.557   3.867   6.028  0.3724  0.2110  0.1496
  819YOPS   PO412308  13.085   3.929   6.081 -0.1945 -0.2541  0.4007
  819YOPS   GL112309  13.088   3.949   6.529 -0.0766 -0.2360  0.2631
  819YOPS   GL212310  13.334   3.733   6.579  0.1656 -0.0080 -0.2419
  819YOPS   C1A12311  13.005   3.823   6.941  0.2342  0.1370 -0.0053
  819YOPS   D2A12312  12.980   3.809   7.278 -0.2400  0.0145  0.1079
  819YOPS   C3A12313  12.943   3.758   7.710  0.0539 -0.2641 -0.0250
  819YOPS   C4A12314  12.558   3.586   7.979 -0.2977 -0.0241 -0.0874
  819YOPS   C1B12315  13.389   4.195   6.851 -0.0487  0.1465  0.1184
  819YOPS   C2B12316  13.534   4.453   7.030  0.0429  0.0421 -0.0130
  819YOPS   D3B12317  13.923   4.641   7.068 -0.3304 -0.0070 -0.3069
  819YOPS   C4B12318  14.169   4.746   7.553 -0.1930 -0.3519  0.1426
  820YOPS   CNO12319  14.308  16.529   6.188  0.0090 -0.2315 -0.2417
  820YOPS   PO412320  14.042  16.625   6.553 -0.0055  0.0622 -0.1346
  820YOPS   GL112321  14.231  16.642   6.973 -0.2373 -0.0817  0.2318
  820YOPS   GL212322  14.512  16.711   7.091 -0.1553 -0.1164  0.1108
  820YOPS   C1A12323  14.248  16.682   7.500  0.1480 -0.0288 -0.1942
  820YOPS   D2A12324  14.110  16.850   7.889  0.1351 -0.0994 -0.0193
  820YOPS   C3A12325  14.159  16.673   8.185 -0.0857 -0.0611  0.0151
  820YOPS   C4A12326  14.475  16.525   8.377 -0.1489 -0.2424  0.0728
  820YOPS   C1B12327  14.722  16.752   7.420  0.0516  0.2606 -0.4202
  820YOPS   C2B12328  15.027  16.917   7.636 -0.0616  0.3445  0.3075
  820YOPS   D3B12329  15.221  17.221   7.855 -0.2954 -0.1123 -0.1290
  820YOPS   C4B12330  15.463  17.480   7.603  0.1715  0.4879  0.1700
  821YOPS   CNO12331  16.122  17.096   5.722  0.1778  0.0179 -0.0374
  821YOPS   PO412332  16.062  16.689   5.914  0.0252  0.2817 -0.3046
  821YOPS   GL112333  16.240  16.304   6.260  0.3435  0.2378  0.1261
  821YOPS   GL212334  15.975  16.279   6.539  0.0554 -0.3576  0.3958
  821YOPS   C1A12335  16.454  16.290   6.723 -0.0861  0.3539  0.1190
  821YOPS   D2A12336  16.392  16.253   7.186 -0.0737 -0.2065 -0.2485
  821YOPS   C3A12337  16.406  16.157   7.559  0.0170  0.1228  0.1538
  821YOPS   C4A12338  16.691  16.192   7.883  0.1218  0.1415 -0.1217
  821YOPS   C1B12339  16.056  16.040   6.938  0.1300  0.1196  0.3703
  821YOPS   C2B12340  15.940  16.005   7.298 -0.1860 -0.1166 -0.1703
  821YOPS   D3B12341  15.886  16.015   7.748  0.0564  0.2302  0.2717
  821YOPS   C4B12342  15.552  16.351   7.840  0.0434  0.0607 -0.0282
  822YOPS   CNO12343  14.753   7.525   5.727  0.1066 -0.1337  0.2182
  822YOPS   PO412344  14.452   7.854   5.881  0.2254 -0.0133 -0.0637
  822YOPS   GL112345  14.554   7.957   6.384  0.0792 -0.0908 -0.0625
  822YOPS   GL212346  14.441   8.252   6.536 -0.0557  0.1618  0.1117
  822YOPS   C1A12347  14.770   7.740   6.799  0.2767  0.0673 -0.0092
  822YOPS   D2A12348  14.754   7.412   7.017 -0.0816 -0.3411 -0.0389
  822YOPS   C3A12349  14.915   7.078   7.321 -0.2955  0.0022 -0.1779
  822YOPS   C4A12350  14.767   7.089   7.689 -0.0297 -0.2427 -0.1212
  822YOPS   C1B12351  14.312   8.051   6.838 -0.3023 -0.1628  0.1210
  822YOPS   C2B12352  14.315   8.048   7.287 -0.1338 -0.0463  0.0295
  822YOPS   D3B12353  14.241   7.832   7.709  0.3766 -0.2335  0.0176
  822YOPS   C4B12354  14.203   7.832   8.122  0.0094  0.3614 -0.1406
  823YOPS   CNO12355  14.956   1.455   6.406  0.0783  0.1613 -0.1142
  823YOPS   PO412356  15.401   1.665   6.415  0.1133  0.2701  0.0121
  823YOPS   GL112357  15.526   1.826   6.714  0.0430 -0.1705  0.1878
  823YOPS   GL212358  15.752   1.708   6.803  0.1139  0.0478  0.0578
  823YOPS   C1A12359  15.544   1.794   7.240 -0.2649  0.0420  0.3430
  823YOPS   D2A12360  15.769   1.726   7.535  0.0487 -0.1821  0.2350
  823YOPS   C3A12361  15.874   1.521   7.837  0.2631 -0.1799  0.0784
  823YOPS   C4A12362  16.332   1.568   7.914 -0.0159 -0.1822  0.4197
  823YOPS   C1B12363  15.947   2.026   7.004  0.4911 -0.3836  0.1842
  823YOPS   C2B12364  15.904   2.209   7.366  0.0985  0.3170  0.0902
  823YOPS   D3B12365  15.595   2.432   7.452 -0.1464  0.3321 -0.2642
  823YOPS   C4B12366  15.748   2.519   7.853  0.1296  0.3737  0.4706
  824YOPS   CNO12367  11.939   5.354   6.144 -0.3278 -0.3775  0.0764
  824YOPS   PO412368  12.405   5.306   6.340 -0.0543 -0.0421 -0.2850
  824YOPS   GL112369  12.452   5.396   6.744  0.0041 -0.0749  0.0527
  824YOPS   GL212370  12.359   5.633   6.935 -0.0367 -0.0908  0.1316
  824YOPS   C1A12371  12.237   5.202   7.213  0.1719  0.2811 -0.2842
  824YOPS   D2A12372  12.461   5.155   7.469  0.1079 -0.0654 -0.1465
  824YOPS   C3A12373  12.564   4.953   7.756 -0.3348  0.1393  0.1260
  824YOPS   C4A12374  12.413   4.874   8.087 -0.1056 -0.2509  0.2170
  824YOPS   C1B12375  12.386   5.694   7.402 -0.0546  0.1868 -0.0264
  824YOPS   C2B12376  12.384   5.948   7.821 -0.1302 -0.1990  0.4042
  824YOPS   D3B12377  12.699   6.151   8.094  0.0094 -0.1733 -0.0137
  824YOPS   C4B12378  12.797   6.657   7.953 -0.1145  0.3049  0.2244
  825YOPS   CNO12379   8.896   5.664   6.089  0.2222  0.0384  0.2746
  825YOPS   PO412380   8.722   6.037   6.285  0.0798 -0.0636 -0.1791
  825YOPS   GL112381   8.816   5.859   6.647  0.0985 -0.2744  0.0888
  825YOPS   GL212382   9.096   5.903   6.785 -0.0029 -0.1880  0.1730
  825YOPS   C1A12383   8.719   5.764   7.060 -0.1718 -0.0674 -0.2758
  825YOPS   D2A12384   8.549   6.018   7.404 -0.1145 -0.1074 -0.1441
  825YOPS   C3A12385   8.400   6.099   7.813 -0.1097  0.1418 -0.0622
  825YOPS   C4A12386   7.979   5.988   7.975 -0.2125  0.1241 -0.1358
  825YOPS   C1B12387   9.027   6.052   7.204 -0.0983 -0.0231 -0.1698
  825YOPS   C2B12388   9.029   6.166   7.632 -0.0524  0.1715 -0.1004
  825YOPS   D3B12389   8.816   6.385   7.971 -0.2295  0.2583  0.1781
  825YOPS   C4B12390   8.642   6.712   8.223  0.2543  0.1720 -0.2711
  826YOPS   CNO12391   2.405  10.441   6.072 -0.0027  0.2034 -0.0830
  826YOPS   PO412392   2.273  10.759   6.388 -0.2557  0.2885  0.1512
  826YOPS   GL112393   1.964  10.859   6.797  0.1065  0.1951  0.2617
  826YOPS   GL212394   1.934  11.199   6.901  0.0462 -0.0477 -0.0629
  826YOPS   C1A12395   2.024  10.725   7.219  0.2875  0.1001 -0.0565
  826YOPS   D2A12396   2.128  10.783   7.727  0.1056  0.0061 -0.3498
  826YOPS   C3A12397   2.073  11.151   8.023 -0.0736 -0.2617 -0.3276
  826YOPS   C4A12398   1.668  11.445   7.988 -0.0810 -0.0444 -0.1494
  826YOPS   C1B12399   2.291  11.181   7.120  0.1969 -0.0557  0.0486
  826YOPS   C2B12400   2.215  11.220   7.543 -0.1212  0.2457 -0.1654
  826YOPS   D3B12401   2.240  11.555   7.731  0.0991 -0.2765  0.1157
  826YOPS   C4B12402   2.343  11.963   8.057  0.1659  0.0788  0.0900
  827YOPS   CNO12403   9.419  12.718   5.708 -0.3246 -0.5555 -0.0864
  827YOPS   PO412404   9.403  12.906   6.169  0.1346 -0.2190 -0.1735
  827YOPS   GL112405   9.228  12.538   6.410  0.1798 -0.0165  0.0402
  827YOPS   GL212406   9.426  12.291   6.453 -0.2548 -0.4056 -0.0963
  827YOPS   C1A12407   9.210  12.502   6.960  0.0310  0.2117  0.1007
  827YOPS   D2A12408   9.183  12.562   7.414  0.0541 -0.0706  0.1870
  827YOPS   C3A12409   9.298  12.563   7.903 -0.1652  0.0536  0.1903
  827YOPS   C4A12410   9.372  12.579   8.346 -0.0429  0.1410 -0.2713
  827YOPS   C1B12411   9.140  12.066   6.688  0.1694  0.2085  0.1251
  827YOPS   C2B12412   8.756  11.917   6.723  0.0804  0.2590 -0.0967
  827YOPS   D3B12413   8.282  11.549   6.798  0.2008 -0.0664 -0.0815
  827YOPS   C4B12414   7.844  11.808   6.759  0.2960 -0.1556  0.3569
  828YOPS   CNO12415   3.297   4.905   6.250 -0.1062 -0.0620 -0.1475
  828YOPS   PO412416   2.974   5.206   6.229  0.0374  0.2975  0.1435
  828YOPS   GL112417   3.178   5.456   6.580 -0.1531 -0.2240  0.1676
  828YOPS   GL212418   3.229   5.142   6.717 -0.0494  0.0723  0.1550
  828YOPS   C1A12419   3.245   5.646   6.998 -0.0778 -0.1338 -0.0525
  828YOPS   D2A12420   3.296   5.677   7.450  0.1130 -0.0802 -0.0333
  828YOPS   C3A12421   3.401   5.931   7.885  0.0753 -0.0134 -0.0943
  828YOPS   C4A12422   3.355   6.405   7.974  0.3722  0.1631 -0.3057
  828YOPS   C1B12423   3.619   5.264   6.992 -0.0912 -0.0342  0.1081
  828YOPS   C2B12424   3.679   5.222   7.482 -0.1308  0.3598  0.0239
  828YOPS   D3B12425   3.786   5.553   7.758  0.2235  0.1480  0.0672
  828YOPS   C4B12426   3.612   5.448   8.177  0.0016 -0.4161  0.1292
  829YOPS   CNO12427   5.053  12.183   5.983  0.1513 -0.2284 -0.1183
  829YOPS   PO412428   4.723  12.181   6.391 -0.2416 -0.0990 -0.1716
  829YOPS   GL112429   4.834  12.449   6.745  0.2006  0.1133 -0.1428
  829YOPS   GL212430   4.496  12.560   6.877  0.1365 -0.0422 -0.0500
  829YOPS   C1A12431   4.857  12.442   7.222  0.1238 -0.0083 -0.2466
  829YOPS   D2A12432   4.597  12.497   7.642 -0.2200 -0.0609  0.4757
  829YOPS   C3A12433   4.647  12.354   8.064  0.1396 -0.1697  0.2277
  829YOPS   C4A12434   4.998  12.260   8.189 -0.3012 -0.0630  0.1142
  829YOPS   C1B12435   4.343  12.346   7.177  0.0662  0.2412 -0.2543
  829YOPS   C2B12436   4.152  12.026   7.088 -0.0885  0.1403 -0.2455
  829YOPS   D3B12437   4.185  11.557   7.163  0.2385  0.0588 -0.1819
  829YOPS   C4B12438   3.746  11.404   7.065  0.2116 -0.3001  0.1636
  830YOPS   CNO12439  17.115  13.323   6.061  0.3452  0.0006 -0.0761
  830YOPS   PO412440  16.764  13.613   5.966  0.0818  0.1192  0.1587
  830YOPS   GL112441  16.753  13.456   6.431  0.3181 -0.2341 -0.0581
  830YOPS   GL212442  16.657  13.270   6.515 -0.0360 -0.1811 -0.2422
  830YOPS   C1A12443  16.777  13.564   6.891 -0.4571 -0.2495 -0.1368
  830YOPS   D2A12444  16.560  13.416   7.264 -0.1551  0.4217 -0.4048
  830YOPS   C3A12445  16.467  13.448   7.716 -0.0126 -0.1229 -0.0946
  830YOPS   C4A12446  16.802  13.562   7.975 -0.0028  0.0021 -0.0372
  830YOPS   C1B12447  16.738  13.083   6.899 -0.0236  0.1207 -0.0126
  830YOPS   C2B12448  16.671  12.939   7.291  0.2600  0.2361  0.0719
  830YOPS   D3B12449  16.482  12.913   7.538  0.1666 -0.1850 -0.1934
  830YOPS   C4B12450  16.106  12.716   7.543  0.0347 -0.1775  0.0795
  831POPE   NH312451   0.993  16.786   6.025  0.2708 -0.3211 -0.0829
  831POPE   PO412452   1.326  16.640   6.241  0.2868 -0.1457 -0.0787
  831POPE   GL112453   1.521  16.843   6.618 -0.0939  0.1414 -0.0621
  831POPE   GL212454   1.801  16.987   6.747  0.1017  0.0915  0.1242
  831POPE   C1A12455   1.421  16.869   7.013  0.1351 -0.0871 -0.3474
  831POPE   D2A12456   1.538  16.825   7.395  0.0842  0.0694 -0.1337
  831POPE   C3A12457   1.341  16.751   7.809  0.1502  0.3112 -0.0924
  831POPE   C4A12458   1.320  17.056   8.132 -0.0477  0.2141 -0.2411
  831POPE   C1B12459   1.921  16.784   7.061  0.0607  0.2044 -0.3615
  831POPE   C2B12460   2.346  16.778   7.213 -0.2344 -0.0537  0.2239
  831POPE   C3B12461   2.540  16.677   7.502  0.0186 -0.0773  0.1024
  831POPE   C4B12462   2.871  16.554   7.709  0.2324 -0.2021 -0.0095
  832POPE   NH312463  10.867   9.335   5.908  0.1299 -0.4320 -0.0400
  832POPE   PO412464  11.101   9.569   6.150 -0.1345  0.1076  0.0400
  832POPE   GL112465  11.164   9.732   6.595 -0.1064  0.1555  0.3204
  832POPE   GL212466  11.029   9.460   6.795  0.0526  0.2454 -0.1304
  832POPE   C1A12467  11.221   9.888   6.962  0.1193  0.1678 -0.0779
  832POPE   D2A12468  11.387   9.918   7.327  0.1203 -0.0396  0.0422
  832POPE   C3A12469  11.258  10.187   7.477  0.0908  0.4077 -0.2954
  832POPE   C4A12470  11.251  10.533   7.742 -0.0631  0.4263  0.0621
  832POPE   C1B12471  11.332   9.472   7.184  0.0222  0.2422 -0.3200
  832POPE   C2B12472  11.358   9.497   7.654  0.2293  0.0647  0.2380
  832POPE   C3B12473  11.603   9.491   7.928 -0.1401  0.0091 -0.1090
  832POPE   C4B12474  11.744   9.682   8.266  0.0149 -0.0422 -0.1106
  833POPE   NH312475  17.145   4.538   6.254 -0.1266 -0.1745 -0.2256
  833POPE   PO412476  17.176   4.071   6.183 -0.0134  0.0809 -0.3425
  833POPE   GL112477  17.037   4.043   6.528  0.2327 -0.3210 -0.1684
  833POPE   GL212478  17.011   4.397   6.716  0.0186  0.0799 -0.3186
  833POPE   C1A12479  17.283   4.011   6.929 -0.1155  0.1777 -0.0483
  833POPE   D2A12480  17.287   4.246   7.285 -0.1444  0.0113  0.1593
  833POPE   C3A12481  16.914   4.192   7.598 -0.1359 -0.0298  0.1018
  833POPE   C4A12482  16.558   4.367   7.813 -0.0481 -0.2828 -0.0244
  833POPE   C1B12483  16.841   4.289   7.029 -0.2415  0.1108  0.1949
  833POPE   C2B12484  16.564   4.360   7.263  0.0233  0.0300 -0.2493
  833POPE   C3B12485  16.171   4.353   7.375  0.0881  0.1676  0.0573
  833POPE   C4B12486  15.861   4.027   7.528  0.0837  0.0832 -0.0715
  834POPE   NH312487  10.624   7.134   6.346 -0.4069 -0.0863  0.2866
  834POPE   PO412488  10.267   6.906   6.391  0.2435 -0.0099  0.0454
  834POPE   GL112489  10.308   6.718   6.805  0.0094  0.1957 -0.0440
  834POPE   GL212490  10.072   6.854   6.904 -0.0781 -0.0535  0.0268
  834POPE   C1A12491  10.443   6.599   7.280  0.3741 -0.0386 -0.0219
  834POPE   D2A12492  10.501   6.696   7.689 -0.1251  0.0055 -0.3053
  834POPE   C3A12493  10.758   6.970   7.864 -0.1877  0.1147 -0.1379
  834POPE   C4A12494  10.963   7.195   8.115  0.0784  0.0122  0.0479
  834POPE   C1B12495   9.987   6.821   7.307  0.2034  0.1087 -0.2316
  834POPE   C2B12496  10.004   6.797   7.753  0.1960 -0.1322  0.1518
  834POPE   C3B12497   9.922   6.896   8.164 -0.0779  0.0641  0.0228
  834POPE   C4B12498  10.046   6.889   8.631 -0.0581 -0.1162  0.0236
  835POPE   NH312499   7.315  10.440   6.425  0.1327 -0.1923  0.1393
  835POPE   PO412500   6.994  10.754   6.347  0.1437  0.3101 -0.0255
  835POPE   GL112501   6.729  10.675   6.745  0.0515 -0.0908  0.3490
  835POPE   GL212502   6.889  10.802   6.953 -0.0547  0.0854  0.0820
  835POPE   C1A12503   6.708  10.470   7.270  0.0158 -0.0352  0.2468
  835POPE   D2A12504   6.926  10.464   7.650  0.0824 -0.1867  0.2682
  835POPE   C3A12505   7.032  10.653   8.089 -0.1686 -0.4394 -0.4328
  835POPE   C4A12506   6.986  10.863   8.556 -0.5301  0.1739 -0.1919
  835POPE   C1B12507   6.953  10.900   7.326  0.3351  0.0129 -0.2591
  835POPE   C2B12508   7.187  11.025   7.686 -0.2500  0.1368  0.2492
  835POPE   C3B12509   7.546  10.918   8.032  0.0752  0.1782  0.0868
  835POPE   C4B12510   7.918  11.046   8.304  0.1696 -0.1631 -0.1462
  836POPE   NH312511  11.272   4.575   6.508 -0.1459  0.0367  0.1671
  836POPE   PO412512  11.157   4.133   6.601 -0.0939  0.2535  0.1413
  836POPE   GL112513  10.966   4.347   6.883  0.3095 -0.2303 -0.2557
  836POPE   GL212514  10.676   4.329   6.791 -0.0502 -0.1515  0.1584
  836POPE   C1A12515  10.884   4.365   7.356 -0.1348  0.1921  0.3987
  836POPE   D2A12516  10.803   4.675   7.628  0.0324  0.1639  0.2842
  836POPE   C3A12517  10.913   4.594   8.024  0.0069  0.1633  0.1814
  836POPE   C4A12518  10.932   4.406   8.408 -0.1020  0.0227 -0.1623
  836POPE   C1B12519  10.426   4.530   7.107  0.0093 -0.0754  0.2064
  836POPE   C2B12520  10.291   4.773   7.376 -0.2714  0.0124  0.1375
  836POPE   C3B12521  10.308   4.727   7.749  0.0704 -0.0814  0.0675
  836POPE   C4B12522  10.459   4.674   8.135 -0.1305 -0.1518  0.2259
  837POPE   NH312523  13.708  11.048   5.632  0.0739  0.0757 -0.1108
  837POPE   PO412524  13.289  11.097   5.840 -0.1737  0.1235  0.0002
  837POPE   GL112525  13.281  10.911   6.267 -0.1624  0.0939 -0.3754
  837POPE   GL212526  13.062  10.632   6.314  0.2911  0.2102 -0.1151
  837POPE   C1A12527  13.259  10.957   6.645  0.2378  0.2239 -0.0540
  837POPE   D2A12528  13.352  10.980   7.054  0.0623 -0.1838 -0.0966
  837POPE   C3A12529  13.770  11.211   7.139 -0.1104  0.1506  0.2146
  837POPE   C4A12530  13.707  11.513   7.532 -0.1592  0.0713 -0.0782
  837POPE   C1B12531  12.846  10.607   6.703  0.2421 -0.1013 -0.1477
  837POPE   C2B12532  12.825  10.729   7.179  0.3538 -0.1591 -0.1788
  837POPE   C3B12533  12.924  10.942   7.468 -0.1698  0.4026 -0.0944
  837POPE   C4B12534  13.201  10.663   7.505 -0.1214  0.1662  0.1368
  838POPE   NH312535   5.780  12.982   6.415  0.1011  0.2099  0.2635
  838POPE   PO412536   6.154  12.570   6.261  0.0832  0.0593  0.0255
  838POPE   GL112537   6.083  12.581   6.709  0.0784  0.2733  0.0767
  838POPE   GL212538   6.056  12.795   6.796 -0.3795 -0.0312 -0.2968
  838POPE   C1A12539   6.099  12.411   7.123 -0.2370 -0.0562 -0.0184
  838POPE   D2A12540   6.167  12.335   7.557 -0.2481  0.2605 -0.0896
  838POPE   C3A12541   6.280  12.452   7.999  0.0646 -0.4142 -0.2973
  838POPE   C4A12542   6.408  12.398   8.308  0.2763 -0.0017 -0.1036
  838POPE   C1B12543   6.295  12.858   7.202  0.0023 -0.2400  0.0646
  838POPE   C2B12544   6.574  12.952   7.596  0.1605 -0.1977 -0.2197
  838POPE   C3B12545   6.937  13.036   7.810  0.2361 -0.0301 -0.1205
  838POPE   C4B12546   7.121  12.998   8.185  0.0087  0.2414  0.4125
  839POPE   NH312547   1.169  11.009   6.285  0.1434 -0.1073 -0.1690
  839POPE   PO412548   1.488  11.292   6.238  0.1788 -0.1874  0.0907
  839POPE   GL112549   1.671  11.571   6.551  0.0573 -0.0160 -0.0982
  839POPE   GL212550   2.004  11.732   6.723  0.1074  0.2630 -0.1462
  839POPE   C1A12551   1.638  11.643   7.034  0.3792  0.2390  0.3477
  839POPE   D2A12552   1.740  11.544   7.515 -0.2015  0.1659  0.0525
  839POPE   C3A12553   1.762  11.868   7.719 -0.1528 -0.1379 -0.0721
  839POPE   C4A12554   2.164  12.125   7.610  0.1182 -0.0876 -0.2371
  839POPE   C1B12555   2.117  11.724   7.181  0.2570 -0.1968 -0.1402
  839POPE   C2B12556   2.461  11.650   7.306 -0.3983  0.3599  0.1740
  839POPE   C3B12557   2.687  11.806   7.634 -0.0486  0.0447 -0.0463
  839POPE   C4B12558   2.996  12.028   7.875  0.3300 -0.0843  0.0920
  840POPE   NH312559   9.488   4.691   6.237  0.0594 -0.1601  0.2333
  840POPE   PO412560   9.884   4.717   6.377 -0.0025  0.0625  0.1585
  840POPE   GL112561   9.652   4.728   6.738 -0.0041 -0.1201  0.0958
  840POPE   GL212562   9.435   4.494   6.720 -0.2149 -0.0978  0.0087
  840POPE   C1A12563   9.644   4.764   7.104  0.1578  0.2031 -0.4879
  840POPE   D2A12564   9.481   4.734   7.569 -0.1014  0.2356 -0.3145
  840POPE   C3A12565   9.523   4.520   7.899 -0.1170 -0.2231  0.4292
  840POPE   C4A12566   9.606   4.395   8.282  0.2634 -0.1230 -0.1059
  840POPE   C1B12567   9.380   4.339   7.198  0.1720  0.2492  0.0164
  840POPE   C2B12568   9.376   4.212   7.571  0.0868  0.2218  0.1048
  840POPE   C3B12569   9.214   4.118   7.980  0.2505  0.2320 -0.0623
  840POPE   C4B12570   9.316   3.822   8.192 -0.3289  0.0676 -0.0297
  841POPE   NH312571   8.512  10.398   5.484  0.0694 -0.1399  0.2676
  841POPE   PO412572   8.718  10.350   5.897 -0.0783  0.0119 -0.1934
  841POPE   GL112573   8.635  10.103   6.224  0.1754 -0.0797  0.2606
  841POPE   GL212574   8.383  10.108   6.464 -0.0124 -0.0896 -0.3299
  841POPE   C1A12575   8.638   9.716   6.279 -0.1493  0.2090 -0.1470
  841POPE   D2A12576   8.281   9.496   6.512 -0.1418  0.0334 -0.1592
  841POPE   C3A12577   8.498   9.224   6.853  0.1154  0.0366 -0.0412
  841POPE   C4A12578   8.967   9.083   7.155  0.0063  0.1362 -0.0184
  841POPE   C1B12579   8.335  10.269   6.871  0.0126  0.0390 -0.3649
  841POPE   C2B12580   8.269  10.312   7.265 -0.0171  0.1115 -0.1783
  841POPE   C3B12581   8.416  10.536   7.595 -0.0048 -0.0345  0.0987
  841POPE   C4B12582   8.706  10.492   7.885  0.2708 -0.0784  0.3013
  842POPE   NH312583   3.900   5.822   6.002  0.1741  0.0949  0.2681
  842POPE   PO412584   3.970   5.481   6.067 -0.0714  0.0803 -0.2320
  842POPE   GL112585   4.225   5.465   6.446 -0.3100  0.1204  0.0006
  842POPE   GL212586   4.289   5.689   6.448 -0.1561 -0.0501 -0.0133
  842POPE   C1A12587   4.173   5.278   6.876 -0.2924 -0.3364 -0.3950
  842POPE   D2A12588   4.107   5.357   7.307 -0.0771 -0.1570  0.1313
  842POPE   C3A12589   4.213   5.226   7.643 -0.2175  0.0779  0.1763
  842POPE   C4A12590   4.615   5.284   7.924 -0.1578 -0.0114 -0.0095
  842POPE   C1B12591   4.506   5.670   6.818 -0.3306  0.1814  0.1506
  842POPE   C2B12592   4.653   5.728   7.191 -0.0045  0.0278  0.1199
  842POPE   C3B12593   4.434   5.738   7.551  0.2137  0.0199 -0.1358
  842POPE   C4B12594   4.239   5.650   7.870  0.2054 -0.1363 -0.2324
  843POPE   NH312595  10.664   9.520   6.378  0.5125 -0.2663  0.0507
  843POPE   PO412596  10.352   9.784   6.415 -0.2734  0.0025  0.1673
  843POPE   GL112597  10.161   9.852   6.823 -0.1488 -0.1829 -0.2615
  843POPE   GL212598   9.935   9.596   6.888 -0.0642  0.0668  0.1743
  843POPE   C1A12599  10.194   9.912   7.184  0.0014 -0.1262  0.1547
  843POPE   D2A12600  10.269   9.787   7.603  0.0803 -0.0665  0.1091
  843POPE   C3A12601  10.593   9.549   7.927  0.1288  0.1588  0.2377
  843POPE   C4A12602  10.868   9.475   8.238  0.1740  0.0468 -0.0049
  843POPE   C1B12603   9.790   9.510   7.350  0.1246  0.1539  0.0243
  843POPE   C2B12604   9.802   9.505   7.749 -0.2201  0.0308  0.0740
  843POPE   C3B12605   9.966   9.790   8.149 -0.1236 -0.1468  0.2424
  843POPE   C4B12606   9.844   9.903   8.570 -0.2275 -0.1873  0.3139
  844POPE   NH312607  14.312  15.284   6.320 -0.1507  0.2818  0.0955
  844POPE   PO412608  14.182  15.639   6.306  0.1919 -0.2754 -0.0085
  844POPE   GL112609  14.168  15.813   6.768 -0.0055 -0.0751 -0.0863
  844POPE   GL212610  14.417  15.700   6.935 -0.1946  0.1703  0.0136
  844POPE   C1A12611  14.086  15.847   7.290  0.3232 -0.1441  0.0564
  844POPE   D2A12612  14.058  15.754   7.749 -0.1092  0.0793  0.1500
  844POPE   C3A12613  13.700  15.819   8.048 -0.1501  0.2370  0.2460
  844POPE   C4A12614  13.458  15.525   8.226 -0.2337 -0.0116  0.0336
  844POPE   C1B12615  14.587  15.661   7.474  0.2889  0.1958  0.0209
  844POPE   C2B12616  14.641  15.945   7.883  0.1748  0.1782  0.1627
  844POPE   C3B12617  14.839  16.251   8.134 -0.1998 -0.0184  0.0778
  844POPE   C4B12618  14.977  16.510   8.467  0.0763 -0.2591  0.1289
  845POPE   NH312619   4.175   5.006   6.264  0.2662  0.3262 -0.2492
  845POPE   PO412620   4.577   4.773   6.427  0.2090  0.1036  0.2380
  845POPE   GL112621   4.306   4.783   6.787  0.2125 -0.1092  0.1133
  845POPE   GL212622   4.058   4.714   6.643 -0.0982  0.0070 -0.1650
  845POPE   C1A12623   4.313   4.928   7.222  0.0642 -0.0100  0.0241
  845POPE   D2A12624   3.930   4.784   7.544  0.4822  0.1972 -0.1580
  845POPE   C3A12625   3.748   4.363   7.476 -0.0916  0.1937 -0.1975
  845POPE   C4A12626   3.492   4.078   7.676 -0.0115  0.1664 -0.0861
  845POPE   C1B12627   3.911   4.833   7.007 -0.0788 -0.1595  0.2012
  845POPE   C2B12628   3.634   4.788   7.154  0.2939  0.0967 -0.2032
  845POPE   C3B12629   3.263   4.555   7.040  0.2944 -0.3001  0.2606
  845POPE   C4B12630   2.915   4.764   7.206  0.1111 -0.0367 -0.2532
  846POPE   NH312631  10.514  14.382   6.490 -0.2618  0.0300  0.1691
  846POPE   PO412632  10.167  14.061   6.501 -0.0408 -0.0535  0.0090
  846POPE   GL112633  10.274  13.872   6.803 -0.0725 -0.4470 -0.0229
  846POPE   GL212634  10.553  13.925   6.794  0.1450 -0.0685  0.1680
  846POPE   C1A12635  10.335  13.676   7.155  0.1780  0.2729 -0.0326
  846POPE   D2A12636  10.143  13.535   7.545  0.1291  0.0832  0.0981
  846POPE   C3A12637  10.538  13.465   7.744  0.0225 -0.3207 -0.2528
  846POPE   C4A12638  10.779  13.798   7.952  0.0186 -0.2887 -0.0633
  846POPE   C1B12639  10.810  13.954   7.116 -0.0059 -0.3263  0.0560
  846POPE   C2B12640  11.119  13.897   7.536  0.3134  0.0921 -0.0724
  846POPE   C3B12641  11.267  13.907   7.926  0.3117  0.0022  0.0048
  846POPE   C4B12642  11.146  13.661   8.272  0.1525 -0.0294  0.0333
  847POPE   NH312643   2.546   3.516   6.495  0.0623  0.0565 -0.2781
  847POPE   PO412644   2.174   3.249   6.476 -0.1286 -0.0600 -0.1037
  847POPE   GL112645   1.952   3.282   6.777  0.1565 -0.1464  0.3096
  847POPE   GL212646   2.301   3.384   6.956 -0.0756 -0.1643  0.2128
  847POPE   C1A12647   2.002   3.116   7.222  0.2185 -0.1179  0.0145
  847POPE   D2A12648   2.011   3.121   7.616  0.2141 -0.0317 -0.2992
  847POPE   C3A12649   2.319   2.965   7.847  0.0352 -0.1022  0.1940
  847POPE   C4A12650   2.209   2.858   8.282  0.1783  0.0410 -0.1003
  847POPE   C1B12651   2.199   3.518   7.407 -0.0268  0.0084  0.0552
  847POPE   C2B12652   2.214   3.539   7.752 -0.0050  0.1898  0.1092
  847POPE   C3B12653   1.822   3.478   7.925 -0.0740  0.0012 -0.0342
  847POPE   C4B12654   1.763   3.212   8.277 -0.0640  0.0008  0.0443
  848POPE   NH312655  10.855   2.141   6.373 -0.1475 -0.1571  0.1859
  848POPE   PO412656  10.555   1.912   6.134  0.1473 -0.0207  0.2239
  848POPE   GL112657  10.511   1.790   6.537 -0.1138  0.0726  0.0721
  848POPE   GL212658  10.280   1.913   6.650 -0.2805  0.0462 -0.1437
  848POPE   C1A12659  10.496   1.640   6.997  0.2679  0.0910 -0.0538
  848POPE   D2A12660  10.415   1.557   7.451  0.1868  0.3097  0.4341
  848POPE   C3A12661  10.516   1.517   7.953  0.0987 -0.1501 -0.1709
  848POPE   C4A12662  10.474   1.261   8.317  0.1989  0.2071  0.0366
  848POPE   C1B12663  10.007   1.942   7.047  0.1044  0.2052  0.3277
  848POPE   C2B12664   9.926   1.793   7.491  0.1030  0.4055 -0.0981
  848POPE   C3B12665  10.016   1.441   7.804 -0.1442  0.1082 -0.0001
  848POPE   C4B12666   9.988   1.341   8.213 -0.1146  0.2121 -0.3648
  849POPE   NH312667  16.135  15.555   6.100 -0.1104 -0.3936  0.0105
  849POPE   PO412668  15.962  15.886   6.072  0.1569 -0.2331  0.0509
  849POPE   GL112669  15.753  15.867   6.448  0.1582 -0.2193  0.1385
  849POPE   GL212670  15.768  15.654   6.566 -0.0284  0.1469  0.1624
  849POPE   C1A12671  15.476  15.997   6.863  0.0733 -0.1938  0.0736
  849POPE   D2A12672  15.461  16.130   7.229 -0.0450 -0.1935 -0.1586
  849POPE   C3A12673  15.247  16.338   7.394  0.1387 -0.0507 -0.1276
  849POPE   C4A12674  14.971  16.402   7.655 -0.1045 -0.5416 -0.0773
  849POPE   C1B12675  15.817  15.634   7.005  0.2139 -0.0843  0.0626
  849POPE   C2B12676  15.896  15.496   7.388 -0.2133  0.1658 -0.1570
  849POPE   C3B12677  15.894  15.398   7.847  0.1516  0.1140  0.1226
  849POPE   C4B12678  15.718  15.598   8.131  0.2311  0.1010 -0.0603
  850POPE   NH312679  12.540  11.787   5.905 -0.1036 -0.1194  0.1725
  850POPE   PO412680  12.577  12.191   5.949 -0.2636  0.1455  0.1848
  850POPE   GL112681  12.904  12.318   6.316 -0.0131  0.0917 -0.1220
  850POPE   GL212682  12.871  12.719   6.496 -0.0387 -0.1098  0.1044
  850POPE   C1A12683  13.359  12.371   6.551 -0.3146 -0.0841  0.1068
  850POPE   D2A12684  13.703  12.408   6.853  0.2868 -0.4025  0.3316
  850POPE   C3A12685  14.198  12.603   6.774 -0.3924 -0.1868  0.2095
  850POPE   C4A12686  14.489  12.523   6.547 -0.1810 -0.0885 -0.0433
  850POPE   C1B12687  12.820  12.443   6.824 -0.2406  0.0382  0.2777
  850POPE   C2B12688  12.712  12.424   7.300  0.3240  0.0696 -0.1231
  850POPE   C3B12689  12.545  12.508   7.626  0.1877 -0.2230  0.1525
  850POPE   C4B12690  12.329  12.205   7.881 -0.0030  0.1294 -0.2634
  851POPE   NH312691  12.175   9.619   6.085 -0.3146 -0.2849  0.0422
  851POPE   PO412692  12.598   9.601   5.974  0.1983 -0.0048  0.0473
  851POPE   GL112693  12.704   9.772   6.378 -0.1027  0.0941 -0.2389
  851POPE   GL212694  12.978  10.048   6.380 -0.2507 -0.1524 -0.0628
  851POPE   C1A12695  12.832   9.684   6.679 -0.0046 -0.0552  0.4182
  851POPE   D2A12696  12.879   9.543   7.036 -0.0476 -0.1835  0.2017
  851POPE   C3A12697  12.936   9.779   7.519 -0.1489  0.0297  0.0451
  851POPE   C4A12698  13.144   9.831   8.014 -0.1074  0.0377  0.1174
  851POPE   C1B12699  12.939  10.131   6.793  0.0193  0.0614 -0.0271
  851POPE   C2B12700  12.957  10.224   7.202 -0.0268  0.0794 -0.2562
  851POPE   C3B12701  12.732  10.429   7.616  0.0816  0.0013  0.4320
  851POPE   C4B12702  12.723  10.770   7.942 -0.4450  0.1666  0.2917
  852POPE   NH312703  10.059   3.520   5.995 -0.0256  0.1325  0.0103
  852POPE   PO412704  10.032   3.171   6.258 -0.1569  0.0857 -0.0164
  852POPE   GL112705  10.145   3.176   6.669 -0.0242 -0.2825 -0.0623
  852POPE   GL212706  10.261   3.507   6.769 -0.3025  0.0926  0.0974
  852POPE   C1A12707  10.092   3.109   7.110  0.1173  0.0650  0.0797
  852POPE   D2A12708  10.268   3.037   7.443 -0.0496 -0.1405 -0.2523
  852POPE   C3A12709  10.173   2.704   7.527 -0.0263 -0.0260  0.1908
  852POPE   C4A12710  10.272   2.464   7.942 -0.0923 -0.0969 -0.2062
  852POPE   C1B12711  10.462   3.514   7.211  0.2122  0.0036 -0.0458
  852POPE   C2B12712  10.402   3.585   7.569  0.1025  0.1206 -0.1251
  852POPE   C3B12713  10.107   3.853   7.766 -0.1838  0.1982 -0.0700
  852POPE   C4B12714   9.678   4.023   7.936 -0.2432  0.1002  0.0935
  853POPE   NH312715   3.882   3.572   6.434 -0.0123 -0.1070  0.2595
  853POPE   PO412716   4.124   3.959   6.415 -0.1340  0.0105  0.1775
  853POPE   GL112717   4.334   3.755   6.734 -0.2540  0.1324 -0.1610
  853POPE   GL212718   4.214   3.432   6.911  0.3205 -0.0081  0.0384
  853POPE   C1A12719   4.415   3.793   7.165 -0.0969 -0.1495 -0.2395
  853POPE   D2A12720   4.381   3.791   7.530 -0.0920  0.1768 -0.3306
  853POPE   C3A12721   4.621   3.876   7.901 -0.0141 -0.3473 -0.0621
  853POPE   C4A12722   4.500   3.767   8.342 -0.2034 -0.1204  0.0969
  853POPE   C1B12723   4.064   3.378   7.161 -0.1415  0.1544  0.1599
  853POPE   C2B12724   4.034   3.403   7.579 -0.0155 -0.1584  0.2530
  853POPE   C3B12725   4.034   3.082   7.907 -0.0913 -0.4026  0.0628
  853POPE   C4B12726   4.109   2.846   8.152  0.0280  0.0320  0.3853
  854POPE   NH312727   0.553  13.761   6.257  0.2019  0.1250 -0.3881
  854POPE   PO412728   0.082  13.772   6.555  0.1229 -0.2435  0.0480
  854POPE   GL112729   0.038  13.766   6.866 -0.2382  0.0659  0.0460
  854POPE   GL212730  -0.069  13.423   6.884  0.1453 -0.1065  0.0658
  854POPE   C1A12731   0.146  13.754   7.242  0.1803 -0.0070  0.1787
  854POPE   D2A12732   0.095  13.944   7.597  0.0000  0.1754 -0.0283
  854POPE   C3A12733  -0.252  14.115   7.743 -0.0385  0.0270 -0.1447
  854POPE   C4A12734  -0.468  14.336   7.908  0.2149  0.0844 -0.0992
  854POPE   C1B12735   0.126  13.247   7.205  0.0146 -0.2149  0.3371
  854POPE   C2B12736  -0.166  13.195   7.478  0.1250 -0.0770 -0.0595
  854POPE   C3B12737  -0.307  13.597   7.475  0.1421 -0.1931  0.0105
  854POPE   C4B12738  -0.413  13.814   7.123  0.2059  0.0940 -0.0899
  855POPE   NH312739  11.225   5.234   6.443 -0.1156  0.0266 -0.1058
  855POPE   PO412740  11.557   5.006   6.438  0.2532  0.1256 -0.0484
  855POPE   GL112741  11.701   4.880   6.833 -0.0118 -0.0228 -0.0149
  855POPE   GL212742  11.930   4.700   6.910 -0.1214  0.0839 -0.1136
  855POPE   C1A12743  11.622   5.091   7.213  0.0043 -0.0268 -0.2157
  855POPE   D2A12744  11.666   5.121   7.629  0.3121  0.2570 -0.0909
  855POPE   C3A12745  12.024   5.190   7.758  0.1343 -0.1964 -0.2135
  855POPE   C4A12746  12.387   5.443   7.934  0.1054 -0.0897  0.0040
  855POPE   C1B12747  12.021   4.796   7.275  0.2032 -0.0476  0.3105
  855POPE   C2B12748  12.171   4.716   7.667  0.0067  0.2247  0.1665
  855POPE   C3B12749  12.152   4.414   8.013 -0.1112  0.1790 -0.0446
  855POPE   C4B12750  12.032   4.435   8.410  0.0272 -0.0416 -0.0994
  856POPE   NH312751  16.541   4.985   6.255 -0.0702  0.0025 -0.0863
  856POPE   PO412752  16.202   5.203   6.215  0.1660 -0.1956  0.0854
  856POPE   GL112753  16.105   5.433   6.565  0.0529 -0.1414 -0.0140
  856POPE   GL212754  16.413   5.301   6.716  0.2872  0.2171 -0.0478
  856POPE   C1A12755  16.177   5.604   7.010 -0.0833  0.3741  0.1103
  856POPE   D2A12756  16.166   5.769   7.431 -0.1101  0.2476  0.3568
  856POPE   C3A12757  16.126   6.119   7.786  0.0090 -0.0734  0.0437
  856POPE   C4A12758  16.253   6.174   8.275 -0.0231  0.0191  0.1022
  856POPE   C1B12759  16.536   5.244   7.169 -0.1213 -0.0593 -0.0749
  856POPE   C2B12760  16.812   5.293   7.547 -0.0375 -0.0454 -0.1591
  856POPE   C3B12761  16.878   5.285   7.992  0.2662  0.0392  0.2290
  856POPE   C4B12762  17.232   5.348   8.343  0.1017 -0.0910 -0.0155
  857POPE   NH312763  17.162  11.916   5.851  0.0748 -0.1565  0.1849
  857POPE   PO412764  17.524  12.037   6.125  0.2107  0.2645 -0.0846
  857POPE   GL112765  17.641  12.075   6.538 -0.0370  0.3991  0.1421
  857POPE   GL212766  17.833  12.381   6.662 -0.0430 -0.2075  0.0008
  857POPE   C1A12767  17.324  12.240   6.909  0.1686  0.0776 -0.0941
  857POPE   D2A12768  17.344  12.313   7.281  0.1923 -0.0013 -0.3977
  857POPE   C3A12769  16.985  12.167   7.489  0.1109 -0.2096 -0.2335
  857POPE   C4A12770  16.718  11.842   7.668  0.0448 -0.0667 -0.1334
  857POPE   C1B12771  17.808  12.302   7.048 -0.1333  0.2596 -0.2258
  857POPE   C2B12772  17.735  12.380   7.540  0.1730  0.0167  0.0692
  857POPE   C3B12773  17.406  12.316   7.775  0.0397 -0.0281 -0.0103
  857POPE   C4B12774  17.316  12.565   8.197 -0.0370  0.2179  0.0265
  858POPE   NH312775   0.538   4.615   6.111 -0.1803  0.0447  0.3788
  858POPE   PO412776   0.548   4.289   6.006 -0.1948  0.0228 -0.0895
  858POPE   GL112777   0.425   4.151   6.457 -0.1770  0.2226 -0.1537
  858POPE   GL212778   0.405   4.461   6.571 -0.1544  0.1580 -0.1216
  858POPE   C1A12779   0.523   3.850   6.696 -0.2608 -0.0097  0.4317
  858POPE   D2A12780   0.637   3.716   7.129 -0.2154  0.3011  0.3790
  858POPE   C3A12781   0.551   3.911   7.526  0.2104 -0.2300  0.0057
  858POPE   C4A12782   0.590   4.070   7.953  0.1562 -0.0753 -0.2930
  858POPE   C1B12783   0.639   4.266   6.958 -0.0772  0.0017 -0.0636
  858POPE   C2B12784   0.758   4.317   7.385 -0.1002 -0.1349 -0.1562
  858POPE   C3B12785   0.859   4.476   7.735 -0.3608 -0.0612 -0.2199
  858POPE   C4B12786   0.791   4.556   8.260  0.1493  0.1282 -0.0151
  859YOPE   NH312787   9.334   9.960   5.814 -0.0452  0.0345  0.1416
  859YOPE   PO412788   9.601  10.148   6.188  0.2442  0.1306 -0.0983
  859YOPE   GL112789   9.572  10.122   6.635 -0.2106  0.1143  0.3373
  859YOPE   GL212790   9.438   9.843   6.745 -0.0688 -0.2107  0.0509
  859YOPE   C1A12791   9.874  10.328   7.013  0.3439  0.0181  0.1972
  859YOPE   D2A12792   9.991  10.379   7.375 -0.3253 -0.0823 -0.1051
  859YOPE   C3A12793   9.823  10.553   7.692 -0.1657  0.2446  0.0929
  859YOPE   C4A12794   9.588  10.749   7.975  0.0898  0.0591 -0.1759
  859YOPE   C1B12795   9.640   9.915   7.124 -0.1397  0.1911  0.2312
  859YOPE   C2B12796   9.808   9.978   7.583 -0.2973  0.0291  0.1069
  859YOPE   D3B12797  10.090  10.149   7.842 -0.1235  0.1854  0.3447
  859YOPE   C4B12798  10.306  10.469   7.956  0.0843 -0.1580 -0.0398
  860YOPE   NH312799   8.142  10.201   6.043  0.0895  0.0820  0.1301
  860YOPE   PO412800   7.719  10.054   6.147 -0.2375  0.0218 -0.1547
  860YOPE   GL112801   7.854   9.940   6.557 -0.1895 -0.0473  0.3637
  860YOPE   GL212802   7.617  10.177   6.760 -0.0632  0.0133  0.2187
  860YOPE   C1A12803   8.054   9.816   6.992  0.0241 -0.0790  0.1164
  860YOPE   D2A12804   7.891   9.713   7.408 -0.3428 -0.1679 -0.3430
  860YOPE   C3A12805   8.028   9.530   7.830  0.0389 -0.0175 -0.2158
  860YOPE   C4A12806   7.745   9.507   8.199 -0.0307 -0.0507  0.0181
  860YOPE   C1B12807   7.797  10.188   7.223 -0.0415  0.0386 -0.1805
  860YOPE   C2B12808   7.829  10.198   7.640  0.0767  0.0690  0.0960
  860YOPE   D3B12809   7.796   9.951   8.013 -0.0143 -0.0083  0.0721
  860YOPE   C4B12810   7.940   9.990   8.480  0.1560  0.2295  0.1703
  861YOPE   NH312811  12.862   5.207   6.472  0.1243  0.0916 -0.2470
  861YOPE   PO412812  13.105   4.878   6.375  0.2510 -0.1375  0.0809
  861YOPE   GL112813  13.324   5.110   6.641 -0.1934  0.0768 -0.1263
  861YOPE   GL212814  13.664   5.085   6.688  0.1319  0.2148 -0.3767
  861YOPE   C1A12815  13.398   5.021   7.106 -0.2915  0.0957  0.0700
  861YOPE   D2A12816  13.655   4.877   7.409 -0.0491  0.0514  0.2718
  861YOPE   C3A12817  13.493   4.809   7.804  0.4960  0.0966  0.0105
  861YOPE   C4A12818  13.062   4.803   7.967  0.2161 -0.0827 -0.3537
  861YOPE   C1B12819  13.967   5.147   6.893  0.0765 -0.1971  0.2626
  861YOPE   C2B12820  14.289   5.085   7.152  0.1699 -0.1397 -0.0270
  861YOPE   D3B12821  14.549   5.128   7.437  0.0217  0.4606  0.1284
  861YOPE   C4B12822  14.806   5.008   7.791  0.1566  0.1219  0.0235
  862YOPE   NH312823   6.529   1.150   6.349 -0.0546  0.1140 -0.1034
  862YOPE   PO412824   6.933   0.870   6.454  0.0050  0.2231  0.0816
  862YOPE   GL112825   6.770   0.818   6.771 -0.2133  0.1120 -0.0413
  862YOPE   GL212826   6.569   1.076   6.885  0.1790  0.2874  0.0012
  862YOPE   C1A12827   6.804   0.597   7.129  0.1201 -0.3040 -0.0326
  862YOPE   D2A12828   6.540   0.658   7.498 -0.0516 -0.0619  0.0564
  862YOPE   C3A12829   6.497   0.603   7.937  0.0456 -0.0336  0.0679
  862YOPE   C4A12830   6.796   0.356   8.166 -0.0632  0.0561 -0.1130
  862YOPE   C1B12831   6.641   1.117   7.320  0.3010  0.2359  0.0142
  862YOPE   C2B12832   7.005   1.349   7.497  0.1362 -0.0161 -0.0890
  862YOPE   D3B12833   7.053   1.662   7.607 -0.0284  0.0396  0.0575
  862YOPE   C4B12834   7.304   1.974   7.893  0.1490 -0.1901  0.3903
  863YOPE   NH312835  16.196   4.307   6.370 -0.0495  0.0853 -0.0232
  863YOPE   PO412836  16.664   4.467   6.298  0.0605 -0.1053  0.1261
  863YOPE   GL112837  16.470   4.667   6.687 -0.0635 -0.0460  0.1710
  863YOPE   GL212838  16.171   4.428   6.842  0.0692  0.3831 -0.0663
  863YOPE   C1A12839  16.328   4.878   6.984  0.0033  0.1179 -0.4432
  863YOPE   D2A12840  16.341   4.811   7.430 -0.0250 -0.0958 -0.3249
  863YOPE   C3A12841  16.058   4.673   7.780 -0.0854 -0.0104 -0.0232
  863YOPE   C4A12842  16.193   4.381   8.188 -0.1591  0.1056 -0.1105
  863YOPE   C1B12843  15.758   4.318   6.991  0.4508 -0.3081 -0.0366
  863YOPE   C2B12844  15.345   4.607   7.054  0.1933  0.0472 -0.0334
  863YOPE   D3B12845  14.934   4.483   7.240 -0.0947 -0.3166 -0.1517
  863YOPE   C4B12846  14.788   4.321   7.567 -0.0623 -0.0332 -0.1666
  864YOPE   NH312847   2.782   6.713   5.705  0.2112  0.0308 -0.2449
  864YOPE   PO412848   2.829   6.966   6.009 -0.1029 -0.0366  0.1500
  864YOPE   GL112849   2.892   6.967   6.449 -0.0370 -0.1243 -0.0386
  864YOPE   GL212850   3.255   7.041   6.619  0.1641 -0.1173  0.2894
  864YOPE   C1A12851   2.922   6.757   6.901 -0.1672 -0.0040  0.0065
  864YOPE   D2A12852   2.869   6.538   7.311 -0.0091  0.0974  0.3176
  864YOPE   C3A12853   2.927   6.560   7.731  0.2212  0.0087 -0.0715
  864YOPE   C4A12854   2.803   6.317   8.102 -0.0537  0.1479 -0.0857
  864YOPE   C1B12855   3.282   7.334   6.980  0.3833  0.1072  0.2444
  864YOPE   C2B12856   3.358   7.569   7.395 -0.1310  0.1668 -0.3255
  864YOPE   D3B12857   3.251   7.318   7.810 -0.0064  0.3145  0.2765
  864YOPE   C4B12858   3.357   7.213   8.249 -0.5592 -0.0824 -0.1847
  865YOPE   NH312859   5.795  16.776   6.261  0.0970  0.1828 -0.1200
  865YOPE   PO412860   5.611  16.381   6.233  0.2796 -0.0791  0.0266
  865YOPE   GL112861   5.336  16.377   6.569  0.2003 -0.0953 -0.0435
  865YOPE   GL212862   5.414  16.091   6.749 -0.2525 -0.3973 -0.0055
  865YOPE   C1A12863   5.429  16.574   6.962 -0.1629 -0.1889 -0.0695
  865YOPE   D2A12864   5.354  16.903   7.283 -0.0370  0.3179 -0.1171
  865YOPE   C3A12865   5.341  16.789   7.766 -0.1764 -0.0018  0.0519
  865YOPE   C4A12866   5.138  17.014   8.135  0.1535 -0.1508 -0.1702
  865YOPE   C1B12867   5.597  16.136   7.220  0.1589 -0.0741  0.0036
  865YOPE   C2B12868   5.752  16.105   7.637 -0.0567  0.1834  0.1283
  865YOPE   D3B12869   5.952  15.781   7.910 -0.6728  0.0183  0.1136
  865YOPE   C4B12870   6.334  15.649   7.730 -0.1774 -0.0865 -0.0949
  866YOPE   NH312871   3.863  17.449   6.293 -0.1957  0.1342 -0.2426
  866YOPE   PO412872   4.197  17.724   6.226 -0.0434 -0.0780  0.0918
  866YOPE   GL112873   4.150  17.709   6.659  0.3121  0.0175  0.2067
  866YOPE   GL212874   3.817  17.621   6.773 -0.1855 -0.2372 -0.1856
  866YOPE   C1A12875   4.197  17.705   7.148 -0.0719  0.0087 -0.3559
  866YOPE   D2A12876   4.139  17.820   7.481  0.0444  0.0556 -0.0915
  866YOPE   C3A12877   4.130  17.705   7.887  0.0239  0.1409  0.0392
  866YOPE   C4A12878   4.142  17.402   8.274 -0.1211  0.2298  0.0591
  866YOPE   C1B12879   3.687  17.755   7.204 -0.0864  0.0852  0.0034
  866YOPE   C2B12880   3.582  17.869   7.565 -0.0058  0.2002 -0.0672
  866YOPE   D3B12881   3.697  17.984   7.970 -0.0553  0.1112 -0.2479
  866YOPE   C4B12882   3.729  17.749   8.406  0.2922 -0.1618  0.0031
  867YOPE   NH312883  12.748  15.470   6.175 -0.5763  0.2028 -0.0714
  867YOPE   PO412884  12.460  15.217   6.479  0.0685  0.1310 -0.2268
  867YOPE   GL112885  12.305  15.242   6.872 -0.2002 -0.4461  0.2594
  867YOPE   GL212886  12.471  15.006   6.954 -0.0396 -0.0179 -0.0646
  867YOPE   C1A12887  12.230  15.588   7.208 -0.1910  0.0188  0.1755
  867YOPE   D2A12888  11.885  15.652   7.475  0.0339 -0.3031 -0.2894
  867YOPE   C3A12889  11.641  15.292   7.422 -0.2092 -0.2933 -0.0714
  867YOPE   C4A12890  11.518  14.942   7.605 -0.1714  0.0742  0.4081
  867YOPE   C1B12891  12.692  15.115   7.265 -0.2505  0.0227 -0.1092
  867YOPE   C2B12892  12.922  15.098   7.635  0.0714  0.0148 -0.0949
  867YOPE   D3B12893  13.250  15.376   7.747 -0.0942 -0.1257 -0.2614
  867YOPE   C4B12894  13.126  15.772   7.877 -0.0144  0.1664  0.0506
  868YOPE   NH312895   4.440   6.622   6.012  0.0962 -0.3288 -0.1823
  868YOPE   PO412896   4.746   6.305   6.124  0.4941 -0.2877  0.1449
  868YOPE   GL112897   4.876   6.415   6.465 -0.0982 -0.1141  0.0519
  868YOPE   GL212898   4.812   6.126   6.626  0.0455 -0.0641 -0.2007
  868YOPE   C1A12899   4.881   6.735   6.828 -0.0885  0.2654 -0.1187
  868YOPE   D2A12900   4.788   6.786   7.266 -0.0857  0.1143 -0.1155
  868YOPE   C3A12901   4.934   6.442   7.478 -0.1108 -0.1387  0.0479
  868YOPE   C4A12902   4.842   6.036   7.602  0.0598  0.0743  0.1000
  868YOPE   C1B12903   5.071   6.015   7.042 -0.0270 -0.1219  0.3384
  868YOPE   C2B12904   5.274   5.998   7.418 -0.2454 -0.2212 -0.0218
  868YOPE   D3B12905   5.379   6.081   7.745 -0.0887  0.4110 -0.0997
  868YOPE   C4B12906   5.597   6.030   8.097  0.1367  0.0899 -0.0997
  869YOPE   NH312907   6.894   8.966   6.051  0.2294 -0.2371 -0.1850
  869YOPE   PO412908   6.756   9.190   6.446  0.0941  0.1495 -0.1452
  869YOPE   GL112909   6.939   8.976   6.697 -0.0816 -0.0269  0.0057
  869YOPE   GL212910   6.696   9.010   6.979  0.2683 -0.0162 -0.1740
  869YOPE   C1A12911   7.188   8.817   7.080  0.3788  0.0923 -0.1593
  869YOPE   D2A12912   7.148   8.975   7.537 -0.2475  0.0912  0.0207
  869YOPE   C3A12913   7.313   8.908   7.915  0.0197  0.0472  0.1363
  869YOPE   C4A12914   7.093   8.638   8.178 -0.1664 -0.0081  0.0527
  869YOPE   C1B12915   6.675   9.021   7.504  0.1184 -0.0357 -0.1711
  869YOPE   C2B12916   6.708   8.780   7.861 -0.0743 -0.1250 -0.2090
  869YOPE   D3B12917   6.666   8.390   8.082 -0.0085 -0.0557 -0.2181
  869YOPE   C4B12918   6.831   8.312   8.469 -0.5543  0.0243 -0.1689
  870YOPE   NH312919  15.878  14.608   5.950 -0.3344 -0.0069 -0.2374
  870YOPE   PO412920  16.264  14.521   6.121  0.1324  0.0433  0.0766
  870YOPE   GL112921  16.323  14.523   6.547 -0.2216  0.1563  0.0464
  870YOPE   GL212922  16.488  14.724   6.693  0.1077 -0.1365  0.0152
  870YOPE   C1A12923  16.018  14.262   6.894 -0.0819 -0.1321 -0.1951
  870YOPE   D2A12924  15.791  14.058   7.271 -0.0908  0.1616 -0.0259
  870YOPE   C3A12925  15.496  14.252   7.557  0.2027  0.0503  0.0859
  870YOPE   C4A12926  15.320  14.682   7.625  0.0906 -0.0686 -0.0928
  870YOPE   C1B12927  16.675  14.742   7.070  0.0755 -0.0275 -0.1755
  870YOPE   C2B12928  16.683  14.821   7.453  0.2399  0.0894 -0.1550
  870YOPE   D3B12929  16.402  14.861   7.859 -0.1014 -0.0640  0.0719
  870YOPE   C4B12930  16.568  14.841   8.301 -0.0292 -0.0793 -0.1042
  871YOPE   NH312931  12.588   7.090   6.287  0.0251 -0.0154 -0.2978
  871YOPE   PO412932  12.854   6.730   6.318 -0.1987 -0.0107  0.3452
  871YOPE   GL112933  13.058   6.730   6.809  0.2516  0.1940  0.0427
  871YOPE   GL212934  13.379   6.820   6.624  0.1659 -0.0294  0.2780
  871YOPE   C1A12935  13.383   6.480   7.064 -0.0930  0.0485  0.1394
  871YOPE   D2A12936  13.831   6.445   7.145  0.1928  0.2409 -0.2362
  871YOPE   C3A12937  13.885   6.604   7.452 -0.0202  0.1651 -0.0458
  871YOPE   C4A12938  13.740   6.907   7.739 -0.0793 -0.0422 -0.0349
  871YOPE   C1B12939  13.364   7.037   7.001 -0.1478 -0.1039 -0.1386
  871YOPE   C2B12940  13.431   7.044   7.411  0.1232 -0.2235  0.1052
  871YOPE   D3B12941  13.256   7.009   7.809 -0.0433 -0.4119 -0.3880
  871YOPE   C4B12942  13.305   7.010   8.258 -0.1426 -0.0451 -0.2432
  872YOPE   NH312943   6.176   6.572   5.828 -0.0635  0.0595  0.0034
  872YOPE   PO412944   6.652   6.651   5.888  0.1269  0.0301  0.0049
  872YOPE   GL112945   6.419   6.646   6.328  0.1771  0.2889  0.4322
  872YOPE   GL212946   6.093   6.490   6.350  0.1368 -0.1393  0.2991
  872YOPE   C1A12947   6.332   6.858   6.690 -0.1124  0.0619  0.0846
  872YOPE   D2A12948   6.253   6.983   7.096  0.3640 -0.0329  0.0992
  872YOPE   C3A12949   6.584   7.048   7.439  0.4665 -0.2519  0.1557
  872YOPE   C4A12950   6.552   7.068   7.875 -0.1089  0.0818  0.2069
  872YOPE   C1B12951   6.379   6.350   6.716 -0.0701  0.3081 -0.0260
  872YOPE   C2B12952   6.583   6.549   7.103  0.2516  0.1137 -0.0299
  872YOPE   D3B12953   6.704   6.637   7.591  0.3595 -0.0739  0.1561
  872YOPE   C4B12954   6.498   6.494   7.970  0.0806  0.0731 -0.0788
  873YOPE   NH312955   4.774   3.094   6.299  0.2688  0.1051 -0.0008
  873YOPE   PO412956   4.452   2.815   6.242  0.0628  0.2742  0.1150
  873YOPE   GL112957   4.580   2.746   6.644  0.2821 -0.0862 -0.4296
  873YOPE   GL212958   4.386   2.371   6.617 -0.1595 -0.2915 -0.1796
  873YOPE   C1A12959   4.665   2.882   7.079  0.2540 -0.3451  0.1828
  873YOPE   D2A12960   4.477   2.860   7.308 -0.0006 -0.1467 -0.3117
  873YOPE   C3A12961   4.449   3.100   7.629  0.1040 -0.1476  0.3610
  873YOPE   C4A12962   4.630   3.418   7.954 -0.1016  0.0559  0.0138
  873YOPE   C1B12963   4.328   2.435   7.034 -0.0256  0.0142  0.0726
  873YOPE   C2B12964   4.346   2.160   7.367  0.0240  0.0587 -0.0646
  873YOPE   D3B12965   4.501   2.059   7.682 -0.1296  0.3884 -0.2222
  873YOPE   C4B12966   4.393   1.966   8.151 -0.0399  0.2301 -0.0316
  874YOPE   NH312967  16.675   3.625   6.488 -0.0267 -0.4210  0.2456
  874YOPE   PO412968  16.919   3.271   6.448 -0.0976  0.0222 -0.0721
  874YOPE   GL112969  16.967   3.197   6.784 -0.3120 -0.0032  0.1063
  874YOPE   GL212970  16.625   3.224   6.913 -0.1095  0.5771  0.1356
  874YOPE   C1A12971  17.021   3.383   7.160 -0.4353  0.2796 -0.2042
  874YOPE   D2A12972  17.073   3.808   7.389  0.1257  0.2964  0.0418
  874YOPE   C3A12973  17.487   3.906   7.586 -0.0062 -0.1465 -0.0611
  874YOPE   C4A12974  17.808   3.719   7.760 -0.2311  0.2016  0.1255
  874YOPE   C1B12975  16.554   2.974   7.167 -0.1014 -0.0971  0.2115
  874YOPE   C2B12976  16.720   2.798   7.585 -0.0199  0.1111  0.0967
  874YOPE   D3B12977  16.855   2.941   7.980  0.1485 -0.1360  0.1628
  874YOPE   C4B12978  16.626   3.065   8.353 -0.0515 -0.2907 -0.0020
  875YOPE   NH312979   7.329  15.282   6.677 -0.2593 -0.0204 -0.0578
  875YOPE   PO412980   7.121  15.543   6.453  0.0040 -0.0417  0.1088
  875YOPE   GL112981   6.696  15.723   6.574 -0.4307 -0.0516  0.1463
  875YOPE   GL212982   6.626  15.835   6.760 -0.0918 -0.1913 -0.1966
  875YOPE   C1A12983   6.337  15.449   6.805  0.0155 -0.0217  0.1757
  875YOPE   D2A12984   6.327  14.992   6.959 -0.0905  0.1951  0.0481
  875YOPE   C3A12985   6.206  14.811   7.377  0.2369 -0.0565  0.0730
  875YOPE   C4A12986   5.885  14.731   7.659 -0.0063  0.2246  0.2545
  875YOPE   C1B12987   6.635  15.741   7.156  0.2171  0.1266 -0.0566
  875YOPE   C2B12988   6.839  15.725   7.549 -0.0799  0.0105  0.1189
  875YOPE   D3B12989   6.785  15.605   7.959  0.1090  0.0508  0.1560
  875YOPE   C4B12990   6.851  15.456   8.231  0.1247  0.1487  0.0525
  876YOPE   NH312991  17.412  14.795   5.692 -0.1289 -0.2001 -0.0107
  876YOPE   PO412992  17.198  14.877   5.986 -0.2811  0.0467  0.2415
  876YOPE   GL112993  17.050  14.766   6.378 -0.1736  0.1019  0.2083
  876YOPE   GL212994  16.936  14.875   6.578  0.2352 -0.0525  0.0279
  876YOPE   C1A12995  17.359  14.662   6.716 -0.0441 -0.1549 -0.1410
  876YOPE   D2A12996  17.630  14.906   6.916 -0.0134  0.0531 -0.0399
  876YOPE   C3A12997  17.682  14.970   7.380 -0.0925 -0.3130  0.0960
  876YOPE   C4A12998  17.718  15.040   7.715 -0.3305  0.0269  0.0302
  876YOPE   C1B12999  17.098  15.032   6.916  0.0920  0.0871 -0.0854
  876YOPE   C2B13000  17.165  14.892   7.339 -0.1695  0.0861 -0.2084
  876YOPE   D3B13001  17.154  14.883   7.761  0.1536 -0.4007  0.0182
  876YOPE   C4B13002  17.124  14.853   8.190  0.1292  0.0090 -0.2026
  877YOPE   NH313003  12.047   4.870   6.437 -0.0422  0.0502 -0.2864
  877YOPE   PO413004  11.781   4.534   6.353  0.4837  0.0107 -0.1718
  877YOPE   GL113005  11.658   4.185   6.664  0.2305  0.2902  0.1863
  877YOPE   GL213006  11.539   4.335   6.848  0.1705  0.2660  0.1665
  877YOPE   C1A13007  11.709   3.908   6.966  0.3234 -0.0364 -0.1649
  877YOPE   D2A13008  11.724   3.677   7.230  0.0290  0.3217 -0.0872
  877YOPE   C3A13009  11.531   3.804   7.614  0.0036  0.0723  0.2751
  877YOPE   C4A13010  11.278   3.648   8.026  0.0042  0.0008  0.0265
  877YOPE   C1B13011  11.464   4.549   7.272  0.1536  0.2331 -0.1715
  877YOPE   C2B13012  11.691   4.668   7.628  0.0328  0.2034 -0.1038
  877YOPE   D3B13013  11.859   4.879   8.057  0.1457 -0.2966 -0.0733
  877YOPE   C4B13014  11.785   4.993   8.485 -0.1764  0.0766  0.1213
  878YOPE   NH313015   2.629   4.998   5.950 -0.0862  0.0177 -0.4155
  878YOPE   PO413016   2.165   4.952   6.119  0.0877  0.2777 -0.2011
  878YOPE   GL113017   2.066   5.302   6.513 -0.0300  0.0847 -0.1485
  878YOPE   GL213018   1.751   5.467   6.581  0.0800  0.0236 -0.2731
  878YOPE   C1A13019   2.364   5.370   6.900 -0.2978  0.2236  0.1241
  878YOPE   D2A13020   2.319   5.394   7.316 -0.0345  0.2633 -0.0058
  878YOPE   C3A13021   2.452   5.750   7.590 -0.2163 -0.0516 -0.0449
  878YOPE   C4A13022   2.309   6.207   7.680 -0.1964 -0.0181 -0.0893
  878YOPE   C1B13023   1.829   5.612   6.955 -0.1997  0.1595 -0.1717
  878YOPE   C2B13024   1.778   5.442   7.349 -0.1199 -0.0466  0.1297
  878YOPE   D3B13025   1.924   5.275   7.846  0.3091  0.2024 -0.3102
  878YOPE   C4B13026   2.101   5.284   8.309 -0.1096 -0.0644 -0.0309
  879YOPE   NH313027   9.171  13.265   5.960  0.0471  0.1043 -0.1083
  879YOPE   PO413028   9.500  13.593   6.128  0.1581 -0.2741 -0.2419
  879YOPE   GL113029   9.206  13.447   6.409  0.1809 -0.1499  0.0448
  879YOPE   GL213030   9.412  13.295   6.512  0.0742  0.0628 -0.0999
  879YOPE   C1A13031   8.718  13.500   6.610  0.1298 -0.0803 -0.1927
  879YOPE   D2A13032   8.416  13.712   6.944  0.1077  0.0571 -0.2690
  879YOPE   C3A13033   8.375  13.503   7.337  0.0457  0.3036 -0.2671
  879YOPE   C4A13034   8.619  13.663   7.784  0.1628 -0.0118  0.0047
  879YOPE   C1B13035   9.140  13.034   6.725 -0.1463 -0.2750 -0.2976
  879YOPE   C2B13036   8.863  12.827   7.007 -0.0238 -0.0891 -0.3433
  879YOPE   D3B13037   8.745  12.812   7.395  0.0236 -0.1168 -0.2240
  879YOPE   C4B13038   8.612  13.165   7.551  0.3042  0.2254 -0.0361
  880YOPE   NH313039  11.180  11.820   6.023  0.0100  0.1979  0.2946
  880YOPE   PO413040  10.727  11.860   5.964  0.2705  0.1169 -0.1017
  880YOPE   GL113041  10.883  11.816   6.412 -0.2238  0.1506  0.1960
  880YOPE   GL213042  10.654  11.617   6.475 -0.1057 -0.3311  0.1315
  880YOPE   C1A13043  11.056  11.719   6.876  0.0531 -0.0593 -0.1222
  880YOPE   D2A13044  10.860  11.724   7.273 -0.0819  0.0501 -0.2854
  880YOPE   C3A13045  10.867  11.971   7.611 -0.0092  0.1014  0.0501
  880YOPE   C4A13046  10.818  12.133   8.039  0.2845  0.1053  0.1771
  880YOPE   C1B13047  10.550  11.668   6.880 -0.4288  0.2396 -0.1227
  880YOPE   C2B13048  10.439  11.894   7.213 -0.1960  0.1314 -0.0462
  880YOPE   D3B13049  10.367  11.913   7.640 -0.1792  0.3243  0.1233
  880YOPE   C4B13050  10.186  12.090   7.973  0.0482 -0.1431 -0.2280
  881YOPE   NH313051   4.377   5.909   5.925  0.0697  0.0052 -0.2997
  881YOPE   PO413052   4.098   6.262   5.924  0.1739 -0.0681 -0.0942
  881YOPE   GL113053   4.254   6.177   6.321  0.2712  0.0554  0.1008
  881YOPE   GL213054   3.957   6.088   6.424  0.3408 -0.0296  0.1081
  881YOPE   C1A13055   4.352   6.159   6.737 -0.0826 -0.3399  0.1142
  881YOPE   D2A13056   4.631   6.261   7.144 -0.5024 -0.0800 -0.2594
  881YOPE   C3A13057   4.310   6.256   7.467  0.0279 -0.0924  0.1177
  881YOPE   C4A13058   4.290   6.173   7.921  0.0112  0.2117  0.1038
  881YOPE   C1B13059   3.905   6.275   6.709  0.1595 -0.1118  0.3230
  881YOPE   C2B13060   3.848   6.557   6.995 -0.0546  0.0722  0.0334
  881YOPE   D3B13061   3.792   6.645   7.383  0.2549  0.0816 -0.0460
  881YOPE   C4B13062   3.616   6.820   7.792  0.0132 -0.2792  0.1481
  882YOPE   NH313063  16.772   1.594   6.364  0.2138  0.3086  0.0240
  882YOPE   PO413064  16.761   1.205   6.401 -0.3626  0.0012 -0.3324
  882YOPE   GL113065  16.519   1.324   6.721 -0.0454  0.1944  0.0299
  882YOPE   GL213066  16.397   1.041   6.866  0.0111  0.0909 -0.1349
  882YOPE   C1A13067  16.697   1.537   7.117  0.0772  0.0704 -0.0200
  882YOPE   D2A13068  16.741   1.691   7.580 -0.0012 -0.0728  0.0185
  882YOPE   C3A13069  16.593   2.053   7.837 -0.1163 -0.0301  0.1149
  882YOPE   C4A13070  16.348   2.061   8.203 -0.2535  0.2061  0.2659
  882YOPE   C1B13071  16.214   0.732   7.144 -0.0447 -0.0179  0.1845
  882YOPE   C2B13072  16.174   0.524   7.494 -0.3191 -0.2531  0.1509
  882YOPE   D3B13073  16.150   0.679   7.945 -0.0065 -0.0638 -0.2845
  882YOPE   C4B13074  16.176   1.124   8.169 -0.0732  0.1119 -0.2040
  883YOPE   NH313075   0.307   0.797   6.302  0.0638 -0.1680  0.0874
  883YOPE   PO413076   0.307   1.139   6.154 -0.1449 -0.0451  0.1323
  883YOPE   GL113077   0.072   1.300   6.465  0.2084  0.1328 -0.1756
  883YOPE   GL213078   0.274   1.567   6.590  0.1972 -0.1265 -0.0580
  883YOPE   C1A13079  -0.287   1.198   6.666 -0.0933 -0.2589 -0.1116
  883YOPE   D2A13080  -0.474   1.142   7.072  0.2470 -0.0362 -0.0584
  883YOPE   C3A13081  -0.593   1.482   7.247 -0.0752  0.1025 -0.0477
  883YOPE   C4A13082  -0.546   1.571   7.638 -0.1668  0.0784 -0.1027
  883YOPE   C1B13083   0.353   1.399   7.006 -0.0667  0.1492 -0.0892
  883YOPE   C2B13084   0.040   1.194   7.186  0.0420  0.0667  0.0255
  883YOPE   D3B13085  -0.099   0.962   7.506 -0.0760 -0.0400  0.2763
  883YOPE   C4B13086  -0.024   0.738   7.887 -0.0991 -0.0474 -0.1326
  884YOPE   NH313087  14.482  14.046   5.928 -0.2945 -0.0691  0.2946
  884YOPE   PO413088  14.880  14.365   6.090 -0.0806 -0.0285 -0.1231
  884YOPE   GL113089  15.007  14.459   6.541 -0.1577 -0.0813 -0.0686
  884YOPE   GL213090  14.825  14.457   6.827 -0.2299  0.0917  0.1884
  884YOPE   C1A13091  15.484  14.472   6.774  0.0634  0.0978 -0.0748
  884YOPE   D2A13092  15.631  14.514   7.144 -0.0487  0.2263 -0.1521
  884YOPE   C3A13093  15.719  14.835   7.297 -0.2120  0.2562  0.1471
  884YOPE   C4A13094  15.564  15.139   7.169 -0.2334  0.2162  0.0736
  884YOPE   C1B13095  14.997  14.046   6.921 -0.0289 -0.1428 -0.0860
  884YOPE   C2B13096  15.497  13.940   6.824 -0.1134 -0.1225 -0.1014
  884YOPE   D3B13097  15.927  13.741   6.760 -0.2183 -0.0597  0.2309
  884YOPE   C4B13098  16.234  13.594   6.877 -0.0394  0.0905  0.1480
  885YOPE   NH313099  10.483  10.289   6.500 -0.0684 -0.0870  0.0190
  885YOPE   PO413100  10.366  10.620   6.217 -0.2580 -0.1238  0.0890
  885YOPE   GL113101  10.238  10.920   6.600  0.0195  0.3404  0.1733
  885YOPE   GL213102  10.393  11.201   6.716 -0.0625 -0.0043 -0.3011
  885YOPE   C1A13103  10.254  10.690   6.939  0.0299  0.1364  0.1492
  885YOPE   D2A13104  10.435  10.307   7.051 -0.0304  0.2551 -0.0817
  885YOPE   C3A13105  10.508  10.247   7.513  0.1798  0.0776  0.3176
  885YOPE   C4A13106  10.545  10.064   7.984 -0.0102 -0.1768  0.2532
  885YOPE   C1B13107  10.208  11.183   7.107  0.0773 -0.0791 -0.0246
  885YOPE   C2B13108   9.872  10.891   7.340  0.0983 -0.1276 -0.2402
  885YOPE   D3B13109   9.459  10.854   7.546  0.0236  0.3786  0.0643
  885YOPE   C4B13110   9.002  10.653   7.574  0.0474 -0.1161  0.0172
  886YOPE   NH313111  13.841   9.598   6.110 -0.0750 -0.1152  0.0704
  886YOPE   PO413112  13.505   9.350   6.048  0.0390 -0.0510  0.1032
  886YOPE   GL113113  13.257   9.360   6.481  0.1692 -0.2425 -0.0022
  886YOPE   GL213114  12.935   9.352   6.329 -0.1389  0.0116  0.0682
  886YOPE   C1A13115  13.329   9.307   6.964  0.0988  0.0970 -0.2732
  886YOPE   D2A13116  13.411   9.328   7.291 -0.3016  0.0694 -0.1222
  886YOPE   C3A13117  13.030   9.192   7.541 -0.3196 -0.2310 -0.0306
  886YOPE   C4A13118  13.061   9.332   7.901 -0.3059  0.0349 -0.0702
  886YOPE   C1B13119  12.759   9.212   6.698  0.1060 -0.0487  0.0032
  886YOPE   C2B13120  12.867   9.037   7.097 -0.2176 -0.2244 -0.1239
  886YOPE   D3B13121  12.557   8.892   7.344 -0.0475  0.0833 -0.0504
  886YOPE   C4B13122  12.267   9.041   7.643  0.2170  0.0289 -0.3212
  887YOPE   NH313123   1.689  17.031   6.152 -0.1534  0.0428 -0.1633
  887YOPE   PO413124   1.333  17.215   6.065 -0.0013 -0.0022 -0.0717
  887YOPE   GL113125   1.378  17.542   6.450  0.0112 -0.0361 -0.0907
  887YOPE   GL213126   1.364  17.347   6.803 -0.1604 -0.0672 -0.1157
  887YOPE   C1A13127   1.518  17.835   6.843  0.1272 -0.0140  0.2551
  887YOPE   D2A13128   1.662  17.746   7.190  0.0252  0.1144 -0.1226
  887YOPE   C3A13129   1.731  17.900   7.474  0.0122 -0.0282 -0.1704
  887YOPE   C4A13130   1.713  17.887   7.891  0.1964  0.0050  0.0764
  887YOPE   C1B13131   1.336  17.342   7.220 -0.0994 -0.0337  0.0158
  887YOPE   C2B13132   1.259  17.762   7.551  0.0522 -0.4355  0.1363
  887YOPE   D3B13133   1.245  17.615   7.892 -0.2475 -0.3163  0.2326
  887YOPE   C4B13134   1.098  17.479   8.207  0.2057  0.3231 -0.2681
  888YOPE   NH313135   9.825  13.166   6.228 -0.0293 -0.3959  0.2023
  888YOPE   PO413136  10.267  12.981   6.316 -0.0092 -0.0788 -0.2107
  888YOPE   GL113137  10.569  13.104   6.602 -0.2391  0.2172  0.0282
  888YOPE   GL213138  10.623  13.413   6.771 -0.2120 -0.0199 -0.5052
  888YOPE   C1A13139  10.936  12.906   6.816 -0.1655  0.2684  0.1516
  888YOPE   D2A13140  11.118  13.038   7.154  0.1621  0.3917 -0.1934
  888YOPE   C3A13141  11.453  12.990   7.471 -0.0144 -0.0083 -0.0202
  888YOPE   C4A13142  11.789  12.943   7.749  0.0607 -0.2998  0.1699
  888YOPE   C1B13143  10.460  13.034   7.106  0.0720  0.1036  0.1376
  888YOPE   C2B13144  10.508  13.014   7.526 -0.0434 -0.2393 -0.0659
  888YOPE   D3B13145  10.246  13.144   7.945  0.1400  0.0181  0.1206
  888YOPE   C4B13146  10.204  12.950   8.376  0.1221  0.0646  0.0435
  889YOPE   NH313147  14.277   9.938   6.045 -0.2115 -0.0731 -0.0877
  889YOPE   PO413148  14.311   9.503   6.291  0.1406 -0.0010 -0.3231
  889YOPE   GL113149  14.128   9.556   6.610  0.1872  0.0624 -0.0889
  889YOPE   GL213150  13.771   9.590   6.629 -0.0646 -0.1350  0.3119
  889YOPE   C1A13151  14.250   9.696   6.968 -0.4719  0.1107 -0.1101
  889YOPE   D2A13152  14.298   9.857   7.376  0.1143 -0.2277 -0.0414
  889YOPE   C3A13153  14.412  10.135   7.696 -0.3292  0.2457  0.3499
  889YOPE   C4A13154  14.488  10.387   8.054  0.2433 -0.0442 -0.1726
  889YOPE   C1B13155  13.837   9.469   7.075  0.1514  0.1432  0.1914
  889YOPE   C2B13156  13.959   9.464   7.500  0.1066 -0.0217  0.2498
  889YOPE   D3B13157  14.072   9.224   7.880 -0.1979  0.1403 -0.0947
  889YOPE   C4B13158  14.165   8.824   8.074 -0.1674 -0.4573  0.1833
  890YOPE   NH313159   5.403  11.425   6.346  0.0280 -0.1051 -0.0735
  890YOPE   PO413160   5.011  11.228   6.478 -0.1587  0.0044 -0.1336
  890YOPE   GL113161   4.779  11.054   6.758  0.1010  0.2763  0.0201
  890YOPE   GL213162   4.520  11.276   6.868 -0.0703 -0.1235 -0.0094
  890YOPE   C1A13163   4.907  11.056   7.237  0.3015  0.2310  0.4815
  890YOPE   D2A13164   4.907  10.869   7.621 -0.3710  0.0851  0.1985
  890YOPE   C3A13165   5.359  10.669   7.846  0.1856 -0.1276 -0.0625
  890YOPE   C4A13166   5.453  10.293   8.073 -0.1940 -0.0210 -0.1896
  890YOPE   C1B13167   4.538  11.276   7.397  0.1808 -0.1093 -0.0593
  890YOPE   C2B13168   4.421  10.902   7.702  0.2356  0.0410  0.0774
  890YOPE   D3B13169   4.341  10.645   8.024  0.2249 -0.2423  0.3002
  890YOPE   C4B13170   4.101  10.431   8.360  0.1132  0.1296 -0.0545
  891YOPE   NH313171   8.699  14.243   6.048  0.0208  0.1114  0.2740
  891YOPE   PO413172   8.375  14.421   6.325 -0.0549 -0.2954  0.3210
  891YOPE   GL113173   8.350  14.532   6.703  0.2599 -0.1221 -0.1704
  891YOPE   GL213174   8.607  14.839   6.703 -0.0215  0.2876 -0.1647
  891YOPE   C1A13175   8.497  14.190   7.061  0.2514 -0.1570  0.0684
  891YOPE   D2A13176   8.364  13.966   7.406  0.2467 -0.3919 -0.3288
  891YOPE   C3A13177   8.110  14.008   7.824 -0.0538  0.1373  0.2080
  891YOPE   C4A13178   8.053  13.987   8.274  0.1057  0.2867 -0.2630
  891YOPE   C1B13179   8.814  14.636   7.036  0.2705 -0.3557 -0.2429
  891YOPE   C2B13180   8.932  14.356   7.436  0.1222 -0.2440 -0.2214
  891YOPE   D3B13181   8.697  14.178   7.727  0.2959 -0.0610  0.0058
  891YOPE   C4B13182   8.435  14.286   8.101 -0.2020 -0.2082  0.1798
  892YOPE   NH313183   9.961  12.065   6.176 -0.0432  0.0176 -0.1543
  892YOPE   PO413184   9.791  12.538   6.211  0.1178  0.1012 -0.2997
  892YOPE   GL113185   9.947  12.325   6.597  0.0776  0.1407  0.0894
  892YOPE   GL213186  10.194  12.559   6.551 -0.0799  0.2352 -0.2463
  892YOPE   C1A13187  10.088  12.218   6.960 -0.1142  0.1978  0.0200
  892YOPE   D2A13188  10.033  12.175   7.339 -0.2058  0.2985  0.2595
  892YOPE   C3A13189   9.579  11.882   7.390 -0.1109 -0.0072 -0.2976
  892YOPE   C4A13190   9.349  11.688   7.723  0.1184 -0.0427  0.1577
  892YOPE   C1B13191  10.461  12.585   6.862 -0.1966 -0.1669  0.0460
  892YOPE   C2B13192  10.510  12.377   7.282  0.0153  0.3960 -0.0838
  892YOPE   D3B13193  10.567  12.482   7.731 -0.3535  0.2143 -0.2327
  892YOPE   C4B13194  10.510  12.602   8.134 -0.1278  0.1629  0.1408
  893YOPE   NH313195   1.535   1.385   6.507  0.2153 -0.1270  0.2349
  893YOPE   PO413196   1.884   1.340   6.447 -0.4266 -0.0268 -0.1603
  893YOPE   GL113197   2.072   1.193   6.735 -0.2630 -0.2699  0.0903
  893YOPE   GL213198   1.793   0.994   6.925 -0.0531  0.0208  0.2920
  893YOPE   C1A13199   1.951   1.348   7.163 -0.1599 -0.3820 -0.2441
  893YOPE   D2A13200   1.981   1.169   7.578 -0.0811 -0.2298  0.0301
  893YOPE   C3A13201   1.823   1.078   7.949  0.1277 -0.2206 -0.0245
  893YOPE   C4A13202   1.636   1.089   8.343 -0.2064  0.0797  0.0654
  893YOPE   C1B13203   1.853   0.753   7.320 -0.0148  0.1224 -0.0553
  893YOPE   C2B13204   2.054   0.636   7.748 -0.1598  0.2789  0.1175
  893YOPE   D3B13205   1.985   0.496   8.230 -0.2597 -0.0451 -0.0257
  893YOPE   C4B13206   1.818   0.135   8.393 -0.0745  0.0149 -0.1871
  894YOPE   NH313207  12.486   1.925   6.204  0.0964  0.2818 -0.0555
  894YOPE   PO413208  12.763   2.338   6.204  0.5506  0.1346 -0.3253
  894YOPE   GL113209  12.687   2.414   6.664 -0.0659 -0.0756  0.1694
  894YOPE   GL213210  12.767   2.713   6.615  0.3045 -0.2026 -0.0847
  894YOPE   C1A13211  12.354   2.336   6.944  0.1652  0.1162 -0.1448
  894YOPE   D2A13212  12.368   2.392   7.418 -0.1204  0.1802 -0.1474
  894YOPE   C3A13213  12.021   2.254   7.714 -0.3059  0.0083 -0.0727
  894YOPE   C4A13214  11.799   2.494   7.931 -0.0062  0.0929 -0.0291
  894YOPE   C1B13215  12.873   3.022   6.933 -0.1037  0.0690  0.0910
  894YOPE   C2B13216  13.075   3.336   7.270  0.1381  0.3273  0.0173
  894YOPE   D3B13217  13.403   3.554   7.476  0.0191  0.2900  0.2646
  894YOPE   C4B13218  13.562   3.504   7.914 -0.1473  0.0677  0.4329
  895YOPE   NH313219  17.743   7.055   6.261  0.0720 -0.0265 -0.1244
  895YOPE   PO413220  17.799   7.545   6.258 -0.0996  0.0594 -0.1273
  895YOPE   GL113221  17.816   7.929   6.601 -0.2721  0.2047  0.0732
  895YOPE   GL213222  18.057   7.890   6.836  0.1161  0.0824  0.2470
  895YOPE   C1A13223  17.724   8.289   6.804 -0.5516 -0.0369  0.3037
  895YOPE   D2A13224  17.370   8.591   6.657  0.2311  0.1491 -0.2087
  895YOPE   C3A13225  16.941   8.720   6.805  0.2780  0.0803  0.0459
  895YOPE   C4A13226  16.759   9.131   6.900 -0.1037  0.0201 -0.1826
  895YOPE   C1B13227  18.258   7.874   7.190  0.1948  0.0167  0.1547
  895YOPE   C2B13228  18.360   7.996   7.554 -0.1244 -0.1648  0.3074
  895YOPE   D3B13229  18.308   7.762   7.997 -0.3360  0.0935  0.5784
  895YOPE   C4B13230  18.609   7.667   8.215  0.0081 -0.1708 -0.1085
  896YOPE   NH313231   1.889  10.127   6.053  0.2244 -0.1899 -0.1855
  896YOPE   PO413232   1.637  10.045   6.387 -0.2115  0.0509 -0.2218
  896YOPE   GL113233   1.624  10.073   6.837 -0.0893 -0.0289 -0.0233
  896YOPE   GL213234   1.867  10.228   7.076 -0.0134  0.0551 -0.3034
  896YOPE   C1A13235   1.440   9.897   7.234 -0.5797  0.2182 -0.0410
  896YOPE   D2A13236   1.465  10.065   7.621 -0.0650  0.1549  0.1730
  896YOPE   C3A13237   1.279   9.945   8.044 -0.1960 -0.1238  0.0432
  896YOPE   C4A13238   0.980   9.880   8.358 -0.0483  0.2362  0.0993
  896YOPE   C1B13239   2.373  10.272   7.166  0.1254 -0.3961  0.2118
  896YOPE   C2B13240   2.635  10.093   7.503 -0.1091 -0.2341  0.3927
  896YOPE   D3B13241   2.588   9.634   7.598  0.1476 -0.4971  0.1006
  896YOPE   C4B13242   2.341   9.318   7.484 -0.2457  0.2567  0.1180
  897YOPE   NH313243   5.988   7.534   5.767  0.3950  0.0318  0.0018
  897YOPE   PO413244   6.112   7.058   5.683 -0.2073  0.2026 -0.2132
  897YOPE   GL113245   5.879   7.053   6.040 -0.0746 -0.0351 -0.0622
  897YOPE   GL213246   6.060   7.040   6.301  0.0481  0.0971  0.1419
  897YOPE   C1A13247   5.537   6.885   6.340  0.2191  0.0219 -0.3254
  897YOPE   D2A13248   5.398   6.572   6.624 -0.1157 -0.0347 -0.0628
  897YOPE   C3A13249   5.267   6.461   7.042  0.1999 -0.1800  0.3454
  897YOPE   C4A13250   5.428   6.533   7.488  0.2871 -0.2916  0.1845
  897YOPE   C1B13251   5.877   7.004   6.720  0.2672  0.1736 -0.0287
  897YOPE   C2B13252   5.787   6.902   7.127  0.2282 -0.1105  0.1554
  897YOPE   D3B13253   6.062   6.907   7.561  0.0630 -0.1204  0.0004
  897YOPE   C4B13254   6.085   7.077   7.921 -0.0269 -0.2921  0.0283
  898YOPE   NH313255   5.942   8.874   6.173  0.0933 -0.2398 -0.2603
  898YOPE   PO413256   5.496   8.996   6.193 -0.1581  0.3468  0.2865
  898YOPE   GL113257   5.426   9.217   6.538 -0.2540 -0.1769  0.0677
  898YOPE   GL213258   5.747   9.395   6.602  0.1178 -0.0910  0.2989
  898YOPE   C1A13259   5.176   9.098   6.936 -0.1426 -0.2248 -0.0349
  898YOPE   D2A13260   5.246   9.234   7.336  0.5559  0.0848  0.0004
  898YOPE   C3A13261   5.365   9.008   7.752  0.3448  0.0121  0.0625
  898YOPE   C4A13262   5.310   8.976   8.157  0.2527  0.0075 -0.0305
  898YOPE   C1B13263   5.657   9.116   6.961  0.0487 -0.1955  0.0192
  898YOPE   C2B13264   5.738   8.824   7.366 -0.0151 -0.1539  0.0519
  898YOPE   D3B13265   5.823   8.523   7.704  0.1248  0.1309  0.1537
  898YOPE   C4B13266   6.179   8.351   7.820 -0.2576  0.0532 -0.1866
  899YOPE   NH313267   8.472   6.481   6.298 -0.2631  0.2161  0.3217
  899YOPE   PO413268   8.198   6.104   6.198 -0.3413  0.2736  0.0509
  899YOPE   GL113269   7.928   6.177   6.656 -0.0073 -0.2734  0.1853
  899YOPE   GL213270   7.851   5.928   6.774 -0.1422  0.1475  0.2058
  899YOPE   C1A13271   7.672   6.360   6.989  0.5548  0.0826 -0.0501
  899YOPE   D2A13272   7.490   6.742   7.371  0.1154  0.0341  0.3182
  899YOPE   C3A13273   7.299   6.610   7.759  0.0665  0.2539  0.1783
  899YOPE   C4A13274   7.578   6.587   8.100 -0.0817  0.2467 -0.2302
  899YOPE   C1B13275   7.650   5.914   7.184  0.3231 -0.0446  0.0161
  899YOPE   C2B13276   7.736   5.783   7.506 -0.3182 -0.2643 -0.1209
  899YOPE   D3B13277   7.760   5.570   7.903  0.0144 -0.1987 -0.0748
  899YOPE   C4B13278   7.938   5.599   8.313  0.1033 -0.0248 -0.0598
  900YOPE   NH313279   7.499   4.182   6.287 -0.3899 -0.1501 -0.1224
  900YOPE   PO413280   7.040   4.065   6.316  0.1046 -0.1323  0.4810
  900YOPE   GL113281   7.022   3.934   6.688  0.2116 -0.0019  0.1093
  900YOPE   GL213282   6.971   3.567   6.543  0.0462  0.0926 -0.1782
  900YOPE   C1A13283   7.072   4.016   7.119 -0.1105  0.0045 -0.0765
  900YOPE   D2A13284   7.445   3.916   7.254  0.1233  0.0674  0.1013
  900YOPE   C3A13285   7.545   3.872   7.647 -0.1841 -0.0967  0.1348
  900YOPE   C4A13286   7.695   4.108   8.034 -0.0894 -0.0463  0.2371
  900YOPE   C1B13287   6.815   3.503   6.953 -0.1542 -0.1557  0.3205
  900YOPE   C2B13288   6.949   3.628   7.349 -0.0883 -0.1694  0.0299
  900YOPE   D3B13289   7.033   3.951   7.705 -0.2603  0.2248  0.1350
  900YOPE   C4B13290   7.251   4.289   7.818 -0.1848  0.1416  0.0983
  901YOPE   NH313291   9.171   5.507   6.472  0.2010  0.3013 -0.0585
  901YOPE   PO413292   8.734   5.319   6.502  0.2033 -0.2382 -0.2081
  901YOPE   GL113293   8.513   5.335   6.855  0.1245 -0.1044 -0.0717
  901YOPE   GL213294   8.304   5.591   6.787 -0.3796 -0.0042  0.2158
  901YOPE   C1A13295   8.517   5.317   7.280  0.0621  0.0612 -0.0163
  901YOPE   D2A13296   8.640   5.550   7.548 -0.0554  0.0883  0.1120
  901YOPE   C3A13297   8.675   5.283   7.958  0.0587 -0.0403  0.1728
  901YOPE   C4A13298   8.387   5.365   8.412  0.1286 -0.1610 -0.2824
  901YOPE   C1B13299   8.156   5.644   7.109 -0.2995  0.3392  0.1228
  901YOPE   C2B13300   8.185   5.731   7.544  0.3017  0.0736 -0.0508
  901YOPE   D3B13301   8.298   5.583   7.947 -0.1014  0.1468 -0.0125
  901YOPE   C4B13302   8.373   5.875   8.303 -0.1169 -0.0407  0.1654
  902YOPE   NH313303  17.340  13.584   6.502  0.0815 -0.1764 -0.2906
  902YOPE   PO413304  17.531  13.160   6.391 -0.0259  0.1096  0.0556
  902YOPE   GL113305  17.511  12.854   6.597  0.1370 -0.0716  0.0571
  902YOPE   GL213306  17.857  12.902   6.656 -0.1701 -0.1519 -0.1302
  902YOPE   C1A13307  17.461  12.731   7.051  0.0094  0.1926 -0.1622
  902YOPE   D2A13308  17.261  12.735   7.477 -0.2004  0.0863  0.2598
  902YOPE   C3A13309  17.330  12.843   7.811 -0.2123  0.2153 -0.0019
  902YOPE   C4A13310  17.601  13.006   8.043  0.0400 -0.1963 -0.3698
  902YOPE   C1B13311  17.997  12.767   7.158 -0.0707  0.1702 -0.2329
  902YOPE   C2B13312  17.981  12.885   7.539  0.0088 -0.0097  0.1061
  902YOPE   D3B13313  17.998  12.705   7.921 -0.1663 -0.0466  0.4607
  902YOPE   C4B13314  18.092  12.576   8.338  0.1841 -0.1750 -0.0075
  903YOPE   NH313315  12.647  14.738   6.522 -0.1882 -0.0077  0.2936
  903YOPE   PO413316  12.871  15.001   6.335 -0.1171  0.1486 -0.1580
  903YOPE   GL113317  12.915  15.270   6.754 -0.2748 -0.0150 -0.1380
  903YOPE   GL213318  13.135  15.363   6.912  0.1942  0.2709  0.0829
  903YOPE   C1A13319  12.693  15.551   7.006  0.0736  0.0487 -0.1013
  903YOPE   D2A13320  12.566  15.943   7.315 -0.3153 -0.1399 -0.0019
  903YOPE   C3A13321  12.259  15.889   7.703  0.0008 -0.0069 -0.1544
  903YOPE   C4A13322  12.124  16.110   8.095  0.0689 -0.2587 -0.0435
  903YOPE   C1B13323  13.229  15.167   7.210 -0.0428  0.2009 -0.2669
  903YOPE   C2B13324  13.377  14.952   7.495  0.1196  0.0335 -0.1274
  903YOPE   D3B13325  13.619  14.627   7.771 -0.1246 -0.1840 -0.3240
  903YOPE   C4B13326  13.879  14.338   7.943 -0.1538 -0.2158 -0.1229
  904YOPE   NH313327   1.146   8.401   6.402  0.1574  0.0181 -0.1318
  904YOPE   PO413328   0.987   7.891   6.474  0.0090  0.0372  0.1512
  904YOPE   GL113329   0.853   8.072   6.809 -0.0043 -0.2371  0.1255
  904YOPE   GL213330   0.624   8.392   6.687  0.1144  0.2490 -0.0194
  904YOPE   C1A13331   0.938   8.422   7.076 -0.1084 -0.2624  0.0381
  904YOPE   D2A13332   0.772   8.427   7.427 -0.1296  0.1393  0.1174
  904YOPE   C3A13333   0.770   8.611   7.823 -0.1249 -0.0722  0.3488
  904YOPE   C4A13334   0.493   8.769   8.068  0.1137  0.4018  0.0545
  904YOPE   C1B13335   0.418   8.341   7.100  0.2020 -0.1301  0.2147
  904YOPE   C2B13336   0.117   8.128   7.368  0.0866  0.1065  0.1710
  904YOPE   D3B13337   0.113   7.861   7.601  0.0092  0.1215 -0.1731
  904YOPE   C4B13338   0.145   7.539   7.762  0.0241 -0.0803 -0.1717
  905YOPE   NH313339  17.288   0.343   6.250 -0.0551  0.0899 -0.0133
  905YOPE   PO413340  17.324  -0.111   6.150 -0.0349  0.0729 -0.1660
  905YOPE   GL113341  17.395  -0.297   6.518 -0.2108 -0.1786 -0.0384
  905YOPE   GL213342  17.169  -0.578   6.582 -0.1356 -0.0360  0.0801
  905YOPE   C1A13343  17.510  -0.205   6.849  0.1529 -0.1517  0.2604
  905YOPE   D2A13344  17.560  -0.132   7.281 -0.0288  0.3677 -0.0596
  905YOPE   C3A13345  17.682  -0.330   7.696 -0.1737  0.1783  0.0942
  905YOPE   C4A13346  17.701  -0.276   8.116  0.0107  0.1234  0.1573
  905YOPE   C1B13347  17.127  -0.513   7.011 -0.1017 -0.0818  0.0590
  905YOPE   C2B13348  17.159  -0.497   7.495 -0.0030 -0.3966  0.3180
  905YOPE   D3B13349  17.271  -0.470   7.969  0.2783  0.2206 -0.1134
  905YOPE   C4B13350  17.221  -0.174   8.352 -0.3661  0.2249 -0.0045
  906YOPE   NH313351  12.877   4.438   6.461  0.2544  0.0384  0.2868
  906YOPE   PO413352  12.563   4.823   6.374  0.0628 -0.2075  0.0321
  906YOPE   GL113353  12.576   4.886   6.790 -0.1626  0.0538  0.0830
  906YOPE   GL213354  12.542   4.597   6.803  0.3080 -0.1268 -0.1712
  906YOPE   C1A13355  12.834   5.037   7.096  0.0317  0.2394 -0.0390
  906YOPE   D2A13356  13.068   4.950   7.513 -0.0494 -0.0074  0.3061
  906YOPE   C3A13357  12.915   5.238   7.869 -0.0351 -0.1037 -0.2237
  906YOPE   C4A13358  12.829   5.646   7.848  0.0159  0.2524 -0.0972
  906YOPE   C1B13359  12.586   4.587   7.279  0.2024  0.0388  0.0083
  906YOPE   C2B13360  12.641   4.448   7.695 -0.0567  0.1334 -0.1708
  906YOPE   D3B13361  12.692   4.216   7.919  0.0747  0.3051 -0.0439
  906YOPE   C4B13362  12.933   3.964   8.165  0.0637 -0.2758  0.1579
  907YOPE   NH313363  15.392  10.103   6.270  0.1394 -0.1431 -0.0435
  907YOPE   PO413364  15.054  10.397   6.295 -0.3648 -0.1057  0.0615
  907YOPE   GL113365  15.100  10.589   6.660 -0.0508 -0.1432  0.1256
  907YOPE   GL213366  14.879  10.837   6.590  0.0050  0.0781  0.0711
  907YOPE   C1A13367  14.996  10.415   7.034 -0.2503  0.0485  0.1631
  907YOPE   D2A13368  15.042  10.557   7.424  0.3040  0.0374 -0.0133
  907YOPE   C3A13369  14.747  10.759   7.704  0.3189  0.2284 -0.0225
  907YOPE   C4A13370  14.518  10.969   7.967  0.0126 -0.2618  0.0216
  907YOPE   C1B13371  14.870  10.952   7.073 -0.0820  0.0968  0.2127
  907YOPE   C2B13372  14.656  11.210   7.431  0.2177  0.0966  0.1426
  907YOPE   D3B13373  14.612  11.498   7.752  0.0172 -0.0633  0.3119
  907YOPE   C4B13374  14.446  11.825   7.992  0.4134 -0.2930 -0.0333
  908YOPE   NH313375  14.736   9.988   6.218  0.0618 -0.2567 -0.0018
  908YOPE   PO413376  14.513  10.406   6.010 -0.0822  0.0576 -0.2448
  908YOPE   GL113377  14.550  10.412   6.391  0.2590 -0.1882 -0.2314
  908YOPE   GL213378  14.388  10.074   6.604  0.2815 -0.0414  0.0575
  908YOPE   C1A13379  14.538  10.536   6.836  0.1406  0.0959 -0.3985
  908YOPE   D2A13380  14.522  10.403   7.292  0.0693 -0.2346 -0.2273
  908YOPE   C3A13381  14.258  10.601   7.698 -0.2782  0.1997 -0.3947
  908YOPE   C4A13382  14.049  10.838   8.036 -0.1223 -0.2648  0.1749
  908YOPE   C1B13383  14.631   9.991   6.976  0.1727  0.0794 -0.0591
  908YOPE   C2B13384  14.793   9.927   7.466  0.0284 -0.2014 -0.0233
  908YOPE   D3B13385  15.020  10.142   7.769  0.0028  0.4401 -0.2058
  908YOPE   C4B13386  14.942  10.285   8.214 -0.0357  0.0709 -0.4542
  909YOPE   NH313387   5.111   7.359   5.918 -0.1878  0.2549  0.0557
  909YOPE   PO413388   5.045   7.771   6.064  0.1343 -0.1444 -0.0003
  909YOPE   GL113389   4.989   7.768   6.426 -0.0926  0.1842 -0.2760
  909YOPE   GL213390   5.299   7.872   6.534 -0.0327 -0.2577  0.0501
  909YOPE   C1A13391   5.088   7.540   6.863 -0.0107 -0.1625  0.1561
  909YOPE   D2A13392   5.373   7.426   7.175 -0.0084  0.0427  0.0585
  909YOPE   C3A13393   5.289   7.387   7.630 -0.0127  0.1306 -0.1196
  909YOPE   C4A13394   5.257   7.331   8.032 -0.4559  0.2149 -0.0768
  909YOPE   C1B13395   5.549   7.847   6.939  0.2780  0.3134 -0.0610
  909YOPE   C2B13396   5.535   7.816   7.398  0.1144 -0.0021 -0.2526
  909YOPE   D3B13397   5.638   7.734   7.740  0.4090  0.0791 -0.3604
  909YOPE   C4B13398   5.765   7.455   8.017 -0.1753  0.0824 -0.1879
  910YOPE   NH313399  13.912  14.655   5.890 -0.3109 -0.0159  0.3230
  910YOPE   PO413400  14.032  14.912   6.164  0.3403  0.0065 -0.1201
  910YOPE   GL113401  13.954  14.916   6.522  0.3683 -0.2863 -0.0587
  910YOPE   GL213402  13.733  14.810   6.650 -0.1249 -0.1391  0.0265
  910YOPE   C1A13403  14.078  14.872   6.975 -0.1952  0.1664  0.2500
  910YOPE   D2A13404  13.911  14.787   7.380  0.0900 -0.1124  0.1158
  910YOPE   C3A13405  14.034  14.905   7.825  0.2412 -0.1115 -0.0545
  910YOPE   C4A13406  14.085  14.944   8.248  0.3210 -0.2164 -0.0513
  910YOPE   C1B13407  13.565  14.837   7.079 -0.0156 -0.0320  0.1243
  910YOPE   C2B13408  13.444  14.495   7.288  0.4152  0.1690  0.0858
  910YOPE   D3B13409  13.487  14.169   7.590  0.1082 -0.5358  0.1534
  910YOPE   C4B13410  13.569  13.978   7.991 -0.0249 -0.2183 -0.0991
  911YOPE   NH313411  10.939  16.564   6.235 -0.1289  0.0727 -0.0103
  911YOPE   PO413412  11.386  16.557   6.159  0.0851  0.1173 -0.0693
  911YOPE   GL113413  11.309  16.839   6.421 -0.1517 -0.1416  0.0588
  911YOPE   GL213414  11.448  17.083   6.264  0.2184 -0.1514  0.1453
  911YOPE   C1A13415  11.307  16.969   6.802  0.0217  0.1375 -0.1031
  911YOPE   D2A13416  11.406  17.231   7.110 -0.1262 -0.1176  0.1718
  911YOPE   C3A13417  11.429  17.262   7.522  0.1306  0.0144  0.1485
  911YOPE   C4A13418  11.253  17.078   7.858 -0.0956  0.0444 -0.1946
  911YOPE   C1B13419  11.766  17.013   6.630 -0.2663 -0.0132 -0.0649
  911YOPE   C2B13420  12.060  16.827   6.991  0.0288 -0.3420  0.2319
  911YOPE   D3B13421  12.059  16.709   7.421  0.2031 -0.0078  0.1716
  911YOPE   C4B13422  12.170  16.578   7.861 -0.1723 -0.1912  0.0959
  912YOPE   NH313423   9.964   5.229   6.559 -0.1823 -0.0326 -0.2731
  912YOPE   PO413424  10.232   5.610   6.653  0.0299  0.4113 -0.0722
  912YOPE   GL113425  10.426   5.734   6.983 -0.0327  0.1929 -0.0629
  912YOPE   GL213426  10.760   5.873   6.954  0.1509  0.0045  0.2534
  912YOPE   C1A13427  10.379   5.914   7.309  0.2425 -0.1028 -0.1871
  912YOPE   D2A13428  10.538   6.206   7.579 -0.0273  0.0560  0.2032
  912YOPE   C3A13429  10.568   6.314   8.027 -0.1041  0.2865 -0.0535
  912YOPE   C4A13430  10.765   6.079   8.322  0.1056 -0.2946 -0.3496
  912YOPE   C1B13431  10.830   5.854   7.421 -0.2302 -0.1482  0.1791
  912YOPE   C2B13432  10.854   5.813   7.811  0.3442  0.1172 -0.0048
  912YOPE   D3B13433  11.120   5.787   8.181 -0.2032 -0.1158  0.0927
  912YOPE   C4B13434  11.554   5.802   8.286 -0.1500  0.0039 -0.0977
  913YOPE   NH313435  16.954  15.266   6.175  0.1620  0.1088  0.1338
  913YOPE   PO413436  16.608  15.414   6.225  0.3763 -0.2617 -0.1598
  913YOPE   GL113437  16.782  15.395   6.645 -0.3092 -0.2685  0.3892
  913YOPE   GL213438  16.625  15.240   6.857  0.1832  0.0382  0.0923
  913YOPE   C1A13439  16.957  15.590   7.010  0.0566 -0.0756  0.1892
  913YOPE   D2A13440  16.996  15.681   7.403  0.1447 -0.2150  0.0229
  913YOPE   C3A13441  16.986  15.798   7.723 -0.0166  0.0568  0.1466
  913YOPE   C4A13442  16.793  15.705   8.074 -0.0712 -0.0299  0.0172
  913YOPE   C1B13443  16.811  15.240   7.251 -0.0915  0.0443  0.0324
  913YOPE   C2B13444  16.777  15.336   7.637 -0.0600  0.1107 -0.1715
  913YOPE   D3B13445  16.980  15.290   7.984  0.0412 -0.2552 -0.2646
  913YOPE   C4B13446  16.845  15.282   8.340 -0.0462  0.1010 -0.0780
  914YOPE   NH313447   0.600   6.996   5.864 -0.1298 -0.1905  0.0850
  914YOPE   PO413448   0.445   7.220   6.256  0.2179 -0.1594  0.0072
  914YOPE   GL113449   0.282   7.162   6.705  0.0623 -0.1209  0.1517
  914YOPE   GL213450   0.187   7.451   6.804 -0.0101 -0.2379 -0.1541
  914YOPE   C1A13451   0.186   7.002   7.128  0.0155  0.1527  0.0404
  914YOPE   D2A13452   0.238   6.682   7.387  0.2751  0.1086 -0.0240
  914YOPE   C3A13453   0.462   6.762   7.619  0.1742  0.5133  0.0927
  914YOPE   C4A13454   0.588   6.685   7.984  0.1558  0.2070  0.2910
  914YOPE   C1B13455   0.110   7.526   7.257 -0.2405 -0.3230  0.0586
  914YOPE   C2B13456  -0.102   7.169   7.511 -0.0696  0.0356  0.0641
  914YOPE   D3B13457  -0.041   6.943   7.744 -0.1917  0.2973 -0.0430
  914YOPE   C4B13458   0.125   6.556   7.905 -0.1243  0.0831  0.0436
  915YOPE   NH313459  10.801  17.505   5.936  0.3819 -0.1036  0.2810
  915YOPE   PO413460  10.971  17.033   6.101 -0.1977 -0.0144 -0.2990
  915YOPE   GL113461  10.889  16.977   6.588  0.0812  0.1911 -0.0441
  915YOPE   GL213462  10.716  16.770   6.836 -0.2220  0.0111 -0.1934
  915YOPE   C1A13463  10.897  17.250   6.983  0.4248 -0.2045 -0.0861
  915YOPE   D2A13464  10.742  17.440   7.413  0.0741  0.3011  0.1614
  915YOPE   C3A13465  10.983  17.463   7.698  0.1569  0.0608  0.0247
  915YOPE   C4A13466  11.323  17.619   7.991 -0.2847 -0.1862 -0.0386
  915YOPE   C1B13467  10.462  17.041   7.183 -0.1067  0.2876  0.2566
  915YOPE   C2B13468  10.076  17.109   7.406  0.0074 -0.0958  0.2325
  915YOPE   D3B13469   9.939  16.945   7.717 -0.1421 -0.3638 -0.2187
  915YOPE   C4B13470  10.219  16.759   7.922  0.0332 -0.3999 -0.2408
  916YOPE   NH313471   1.470   8.776   6.376  0.3338  0.2533  0.0930
  916YOPE   PO413472   1.325   9.233   6.394 -0.1320  0.1727  0.1509
  916YOPE   GL113473   1.293   9.289   6.724  0.1048 -0.1399 -0.0814
  916YOPE   GL213474   1.423   9.468   7.005  0.1159 -0.0447  0.4511
  916YOPE   C1A13475   1.418   9.027   7.180 -0.1911  0.0282 -0.0472
  916YOPE   D2A13476   1.662   8.823   7.494  0.1160  0.2704  0.0587
  916YOPE   C3A13477   1.588   8.847   7.976  0.0573  0.1020  0.0716
  916YOPE   C4A13478   2.009   8.959   8.011  0.0573 -0.0295  0.1281
  916YOPE   C1B13479   1.451   9.525   7.489  0.0811 -0.1524 -0.1178
  916YOPE   C2B13480   1.156   9.399   7.763 -0.0080 -0.0522 -0.0599
  916YOPE   D3B13481   0.987   9.384   8.175 -0.3167  0.1350  0.6174
  916YOPE   C4B13482   0.664   9.541   8.457  0.1012  0.1672 -0.0886
  917YOPE   NH313483  16.698   7.586   6.185 -0.1083  0.1327 -0.3305
  917YOPE   PO413484  16.845   7.179   6.140 -0.1733 -0.1243 -0.1885
  917YOPE   GL113485  16.849   7.041   6.452  0.2466 -0.0011  0.5146
  917YOPE   GL213486  16.961   7.285   6.625  0.1240 -0.2108  0.0745
  917YOPE   C1A13487  16.555   6.884   6.745  0.2380 -0.1091 -0.1651
  917YOPE   D2A13488  16.294   7.037   7.041 -0.3015  0.3525 -0.3328
  917YOPE   C3A13489  16.465   6.939   7.537 -0.0925 -0.2376  0.2180
  917YOPE   C4A13490  16.653   6.999   7.968  0.1632  0.0611 -0.0662
  917YOPE   C1B13491  16.716   7.385   6.943  0.0131 -0.0575  0.2509
  917YOPE   C2B13492  16.660   7.413   7.355  0.1349  0.0694 -0.0016
  917YOPE   D3B13493  16.748   7.428   7.742 -0.2653 -0.2469  0.0602
  917YOPE   C4B13494  16.947   7.359   8.216 -0.1200  0.1075 -0.1746
  918YOPE   NH313495   1.672   5.067   6.138  0.1234 -0.0904 -0.2768
  918YOPE   PO413496   1.566   4.592   6.237 -0.2526 -0.0832  0.0304
  918YOPE   GL113497   1.667   4.477   6.615  0.1300  0.0356 -0.0170
  918YOPE   GL213498   1.946   4.256   6.685  0.1244  0.0637 -0.0826
  918YOPE   C1A13499   1.735   4.536   7.070 -0.1636 -0.3077 -0.3549
  918YOPE   D2A13500   1.584   4.268   7.340 -0.1036  0.1216  0.0880
  918YOPE   C3A13501   1.579   4.348   7.752 -0.0411 -0.0181 -0.1034
  918YOPE   C4A13502   1.717   4.187   8.272  0.0348  0.1624 -0.3911
  918YOPE   C1B13503   1.981   3.975   7.111  0.0742 -0.0302  0.0144
  918YOPE   C2B13504   1.913   3.973   7.567  0.1163  0.1587 -0.0285
  918YOPE   D3B13505   1.989   3.999   7.945  0.0787  0.0684  0.0837
  918YOPE   C4B13506   2.112   3.793   8.391 -0.0686 -0.2425  0.1667
  919YOPE   NH313507   9.836   9.728   6.346 -0.6518 -0.2497 -0.0108
  919YOPE   PO413508   9.448   9.620   6.158 -0.0532  0.3962  0.0898
  919YOPE   GL113509   9.154   9.930   6.366 -0.1980 -0.2797 -0.3686
  919YOPE   GL213510   9.138  10.311   6.304 -0.1633  0.0549  0.4937
  919YOPE   C1A13511   8.817  10.100   6.638  0.1103 -0.3341 -0.0860
  919YOPE   D2A13512   8.744  10.404   7.051  0.1321  0.2930  0.0765
  919YOPE   C3A13513   8.834  10.226   7.476  0.0592 -0.4137 -0.0877
  919YOPE   C4A13514   8.895   9.999   7.759 -0.2435  0.0223 -0.0057
  919YOPE   C1B13515   9.238  10.387   6.781 -0.3339 -0.0224 -0.1853
  919YOPE   C2B13516   9.149  10.037   7.093  0.0170  0.0561  0.4030
  919YOPE   D3B13517   9.308   9.811   7.464 -0.0140  0.0775 -0.2128
  919YOPE   C4B13518   9.418   9.784   7.888  0.0883 -0.1929 -0.0019
  920YOPE   NH313519  10.139  11.411   6.367  0.0783  0.1686 -0.3532
  920YOPE   PO413520  10.256  11.698   6.186 -0.2334  0.3374  0.1531
  920YOPE   GL113521  10.492  12.080   6.314  0.0439 -0.2927 -0.2174
  920YOPE   GL213522  10.504  12.150   6.632 -0.3160 -0.2256  0.0282
  920YOPE   C1A13523  10.852  12.464   6.500  0.4326  0.0289 -0.1155
  920YOPE   D2A13524  11.300  12.652   6.577  0.1703  0.0276 -0.0657
  920YOPE   C3A13525  11.517  12.858   6.895 -0.0805 -0.0346  0.2689
  920YOPE   C4A13526  11.799  12.735   7.207  0.2482 -0.1661  0.3886
  920YOPE   C1B13527  10.791  12.172   6.931  0.0757  0.2396 -0.0530
  920YOPE   C2B13528  11.274  12.060   7.202 -0.1871  0.0835 -0.1506
  920YOPE   D3B13529  11.471  11.950   7.502 -0.0138 -0.1354 -0.2728
  920YOPE   C4B13530  11.674  11.587   7.715  0.2450  0.1455  0.0307
  921YOPE   NH313531  13.501   1.785   6.205  0.3032  0.0115  0.0149
  921YOPE   PO413532  13.321   1.466   6.400  0.3800 -0.0113 -0.0060
  921YOPE   GL113533  13.264   1.757   6.687  0.2371 -0.0700 -0.0298
  921YOPE   GL213534  13.274   2.065   6.609  0.1800 -0.0475 -0.1609
  921YOPE   C1A13535  13.419   1.891   7.024 -0.0280 -0.2447  0.1419
  921YOPE   D2A13536  13.685   2.127   7.308  0.1060 -0.1243  0.2230
  921YOPE   C3A13537  13.627   2.213   7.705  0.2508 -0.0306  0.1973
  921YOPE   C4A13538  13.565   2.260   8.174  0.1772  0.1718  0.1665
  921YOPE   C1B13539  12.913   2.116   6.904 -0.0803  0.4247 -0.3915
  921YOPE   C2B13540  12.840   2.387   7.198 -0.0087 -0.1303 -0.0229
  921YOPE   D3B13541  12.796   2.593   7.552 -0.0610  0.0509  0.0329
  921YOPE   C4B13542  13.201   2.564   7.860 -0.1376  0.2739 -0.0077
  922YOPE   NH313543  12.537   7.867   6.247 -0.0319  0.2506  0.0431
  922YOPE   PO413544  12.838   7.560   6.341 -0.0132 -0.0004  0.1295
  922YOPE   GL113545  13.028   7.688   6.718 -0.0044  0.2776 -0.2083
  922YOPE   GL213546  13.348   7.534   6.651  0.0445 -0.0173 -0.1732
  922YOPE   C1A13547  13.098   7.877   7.037 -0.1686 -0.1081  0.0054
  922YOPE   D2A13548  13.170   8.080   7.336  0.3523 -0.2077 -0.1007
  922YOPE   C3A13549  13.232   7.909   7.739  0.3423 -0.3587  0.2695
  922YOPE   C4A13550  13.301   7.997   8.110 -0.2268 -0.2059 -0.1958
  922YOPE   C1B13551  13.519   7.509   6.979 -0.1311 -0.4689 -0.2277
  922YOPE   C2B13552  13.499   7.714   7.335 -0.1864  0.0035 -0.3865
  922YOPE   D3B13553  13.613   7.469   7.694  0.0261  0.0587  0.1053
  922YOPE   C4B13554  13.829   7.306   8.126 -0.0547 -0.0065 -0.1880
  923YOPE   NH313555   6.940  13.087   6.216 -0.1838 -0.4856 -0.0429
  923YOPE   PO413556   6.818  13.476   6.204 -0.1789 -0.2509 -0.0925
  923YOPE   GL113557   6.565  13.446   6.539 -0.2505  0.2105  0.1230
  923YOPE   GL213558   6.363  13.660   6.822 -0.0638  0.0713  0.1554
  923YOPE   C1A13559   6.526  13.142   6.871 -0.1622  0.0112  0.0227
  923YOPE   D2A13560   6.506  13.338   7.279 -0.2107 -0.3199 -0.0290
  923YOPE   C3A13561   6.895  13.512   7.516  0.0447  0.0538  0.2608
  923YOPE   C4A13562   7.197  13.505   7.979  0.0874  0.0904  0.0189
  923YOPE   C1B13563   6.081  13.813   7.255 -0.0255 -0.0797  0.0934
  923YOPE   C2B13564   5.780  13.796   7.652  0.1284  0.0204  0.0415
  923YOPE   D3B13565   5.755  14.010   8.072 -0.0542  0.3443 -0.1372
  923YOPE   C4B13566   5.908  13.945   8.451 -0.0744 -0.2742 -0.0221
  924YOPE   NH313567   8.170  14.844   6.406 -0.2300 -0.2403 -0.0210
  924YOPE   PO413568   8.093  15.250   6.313 -0.4596  0.2441  0.0320
  924YOPE   GL113569   8.260  15.328   6.759 -0.0962 -0.0013  0.0905
  924YOPE   GL213570   8.162  15.628   6.974  0.0738 -0.3378  0.2240
  924YOPE   C1A13571   8.357  15.226   7.175 -0.1849  0.0087 -0.0643
  924YOPE   D2A13572   8.667  15.416   7.521 -0.0288  0.1116 -0.2570
  924YOPE   C3A13573   8.532  15.492   7.951  0.2668  0.1648  0.1587
  924YOPE   C4A13574   8.481  15.492   8.414  0.0355  0.0856 -0.0379
  924YOPE   C1B13575   8.194  15.616   7.452 -0.1433  0.1847  0.2125
  924YOPE   C2B13576   8.303  15.910   7.775  0.3584  0.0120 -0.3580
  924YOPE   D3B13577   8.156  16.235   8.050  0.3576 -0.1795 -0.0448
  924YOPE   C4B13578   8.050  16.183   8.447  0.0704  0.2481 -0.1380
  925POPC   NC313579   6.237   8.338   6.013 -0.0428  0.1559 -0.1142
  925POPC   PO413580   6.384   7.885   5.813  0.1537  0.1562  0.3547
  925POPC   GL113581   6.394   7.834   6.287  0.1186 -0.1079  0.2056
  925POPC   GL213582   6.285   7.514   6.245 -0.1290  0.0592  0.3326
  925POPC   C1A13583   6.581   7.894   6.599 -0.0412 -0.0111  0.1242
  925POPC   D2A13584   6.865   8.086   6.895  0.2216 -0.0910 -0.3389
  925POPC   C3A13585   6.947   8.042   7.336 -0.1380  0.0624 -0.0229
  925POPC   C4A13586   7.139   7.912   7.623 -0.0303  0.3584  0.3886
  925POPC   C1B13587   6.220   7.391   6.639  0.0171  0.0849  0.1948
  925POPC   C2B13588   6.517   7.539   6.976 -0.1622  0.1888 -0.2834
  925POPC   C3B13589   6.669   7.639   7.372  0.4403  0.0001 -0.0235
  925POPC   C4B13590   6.738   7.535   7.750 -0.1245 -0.1899  0.3080
  926POPC   NC313591   4.041  15.947   5.953  0.1810 -0.0064 -0.1233
  926POPC   PO413592   3.879  16.038   6.359 -0.0005 -0.2951  0.2746
  926POPC   GL113593   4.067  16.256   6.697  0.1580 -0.0540 -0.0824
  926POPC   GL213594   3.932  16.609   6.740  0.1225  0.1205  0.1816
  926POPC   C1A13595   4.089  16.193   7.131 -0.0565 -0.2346  0.0085
  926POPC   D2A13596   4.180  16.292   7.518 -0.1401  0.1301  0.0165
  926POPC   C3A13597   3.833  16.154   7.712 -0.0425 -0.2184  0.2376
  926POPC   C4A13598   3.655  16.053   8.077 -0.1648  0.3597 -0.2501
  926POPC   C1B13599   3.724  16.575   7.198  0.0357 -0.0018 -0.1351
  926POPC   C2B13600   3.395  16.382   7.474 -0.1335  0.1751 -0.2083
  926POPC   C3B13601   3.118  16.164   7.789 -0.0969 -0.0188 -0.0407
  926POPC   C4B13602   2.848  16.210   8.171  0.3488 -0.0592 -0.1504
  927POPC   NC313603   4.564   7.943   6.082 -0.0947  0.2391 -0.0777
  927POPC   PO413604   4.918   8.282   6.224  0.0683  0.0483 -0.0014
  927POPC   GL113605   5.147   8.363   6.455 -0.0954  0.3816 -0.0559
  927POPC   GL213606   5.393   8.578   6.453 -0.1507 -0.0273 -0.0562
  927POPC   C1A13607   5.067   8.194   6.951 -0.1659 -0.1750  0.1174
  927POPC   D2A13608   5.180   8.213   7.416  0.1511  0.0331 -0.0826
  927POPC   C3A13609   5.400   8.197   7.713 -0.2017  0.0347  0.0359
  927POPC   C4A13610   5.392   8.434   8.025 -0.0767  0.2034  0.1391
  927POPC   C1B13611   5.389   8.679   6.904  0.2736 -0.1154 -0.1826
  927POPC   C2B13612   5.241   8.719   7.348 -0.0671  0.2864  0.0870
  927POPC   C3B13613   4.999   8.629   7.750 -0.1043  0.2037 -0.2370
  927POPC   C4B13614   4.776   8.994   8.082 -0.0922 -0.0101  0.0018
  928POPC   NC313615   3.219   8.575   5.911  0.0963 -0.1438 -0.0094
  928POPC   PO413616   3.701   8.569   6.028  0.3460 -0.2023  0.0494
  928POPC   GL113617   3.620   8.700   6.409 -0.1429  0.1463 -0.1493
  928POPC   GL213618   3.992   8.728   6.421  0.0706  0.2893  0.1133
  928POPC   C1A13619   3.663   8.642   6.827  0.2360  0.1872 -0.2579
  928POPC   D2A13620   3.717   8.599   7.382  0.1010 -0.1000 -0.1432
  928POPC   C3A13621   4.002   8.572   7.661 -0.0577  0.1390 -0.0429
  928POPC   C4A13622   4.138   8.196   7.726  0.2047 -0.0886  0.0180
  928POPC   C1B13623   4.209   8.520   6.750  0.1876 -0.0415 -0.0943
  928POPC   C2B13624   4.171   8.611   7.189 -0.3334  0.1160  0.0506
  928POPC   C3B13625   4.360   8.922   7.430  0.0707  0.2270  0.1489
  928POPC   C4B13626   4.749   8.976   7.514  0.1026  0.0948  0.1955
  929POPC   NC313627   4.965  15.682   5.930 -0.0520 -0.3682  0.2372
  929POPC   PO413628   5.207  15.372   6.195  0.2470  0.1569 -0.4006
  929POPC   GL113629   4.985  15.238   6.641 -0.3514  0.0696 -0.0665
  929POPC   GL213630   5.062  14.827   6.555 -0.0238 -0.0170 -0.0860
  929POPC   C1A13631   4.993  15.206   7.039 -0.1808 -0.1491 -0.0555
  929POPC   D2A13632   5.194  15.230   7.430  0.1619  0.1518 -0.0690
  929POPC   C3A13633   5.081  14.950   7.732 -0.2943 -0.0532  0.0223
  929POPC   C4A13634   4.860  14.567   7.904 -0.0655 -0.2106  0.0021
  929POPC   C1B13635   4.889  14.597   6.831  0.1047 -0.0285 -0.0682
  929POPC   C2B13636   4.822  14.532   7.229 -0.2180  0.1693 -0.0254
  929POPC   C3B13637   4.524  14.346   7.587  0.0717  0.0948  0.1685
  929POPC   C4B13638   4.419  14.379   8.054 -0.0583 -0.0709 -0.0221
  930POPC   NC313639  17.445  10.817   6.357 -0.2074 -0.1042 -0.1382
  930POPC   PO413640  17.646  11.135   6.465 -0.2279  0.0191  0.0448
  930POPC   GL113641  17.662  11.011   6.884 -0.0953 -0.0529 -0.0654
  930POPC   GL213642  17.518  10.715   6.864 -0.0436  0.2336  0.0052
  930POPC   C1A13643  17.751  10.959   7.309  0.0137 -0.1694  0.3345
  930POPC   D2A13644  17.917  10.629   7.708  0.1344  0.0558 -0.0316
  930POPC   C3A13645  18.275  10.679   7.896  0.0755 -0.0036  0.0110
  930POPC   C4A13646  18.520  11.017   7.919 -0.0317 -0.2450 -0.0080
  930POPC   C1B13647  17.465  10.551   7.300 -0.1675  0.2097  0.0242
  930POPC   C2B13648  17.533  10.315   7.509  0.2555 -0.2400  0.0337
  930POPC   C3B13649  17.692  10.170   7.882 -0.0783  0.4098  0.3608
  930POPC   C4B13650  17.914  10.316   8.277  0.2623  0.1405  0.1440
  931POPC   NC313651   8.372  15.769   5.986  0.0960  0.0296  0.2788
  931POPC   PO413652   8.615  16.157   6.052  0.0172 -0.0132  0.0522
  931POPC   GL113653   8.880  16.035   6.302 -0.0610  0.3043 -0.3676
  931POPC   GL213654   8.702  16.298   6.535  0.1590  0.0613 -0.3318
  931POPC   C1A13655   9.174  15.988   6.651 -0.3555 -0.0173 -0.0778
  931POPC   D2A13656   9.315  15.630   6.987 -0.0069 -0.0815 -0.2881
  931POPC   C3A13657   9.175  15.588   7.434  0.0751 -0.2344  0.3784
  931POPC   C4A13658   8.856  15.819   7.707 -0.1216  0.0302  0.2288
  931POPC   C1B13659   8.340  16.178   6.806  0.0458  0.2076 -0.0076
  931POPC   C2B13660   8.178  16.067   7.256  0.0889  0.1220 -0.1230
  931POPC   C3B13661   7.786  15.994   7.482 -0.0999 -0.1213  0.0941
  931POPC   C4B13662   7.732  15.566   7.691  0.2953 -0.2542 -0.2345
  932POPC   NC313663   3.463   9.461   6.225 -0.0122 -0.1674  0.0703
  932POPC   PO413664   3.179   9.322   6.424  0.0168 -0.0254  0.0024
  932POPC   GL113665   3.277   8.982   6.687  0.2961  0.0651 -0.0634
  932POPC   GL213666   2.955   8.950   6.745 -0.0379  0.1036  0.2282
  932POPC   C1A13667   3.261   8.874   7.154  0.2118 -0.2216 -0.0622
  932POPC   D2A13668   3.262   8.762   7.498  0.0973 -0.0776  0.0075
  932POPC   C3A13669   3.514   8.911   7.795 -0.0897  0.1386 -0.0674
  932POPC   C4A13670   3.937   9.006   7.929  0.1924 -0.0966  0.0939
  932POPC   C1B13671   2.746   8.700   7.089 -0.2090 -0.2086 -0.0388
  932POPC   C2B13672   2.832   8.467   7.504 -0.1522 -0.0926 -0.3003
  932POPC   C3B13673   3.051   8.403   7.942 -0.3015 -0.0401  0.1965
  932POPC   C4B13674   3.116   8.352   8.331 -0.0544  0.2026 -0.6016
  933POPC   NC313675   3.713   0.224   6.021 -0.0619  0.0204  0.3657
  933POPC   PO413676   3.708   0.162   6.390 -0.0454  0.1180  0.2661
  933POPC   GL113677   3.603   0.296   6.716 -0.1409 -0.0199 -0.1070
  933POPC   GL213678   3.245   0.264   6.730 -0.1267 -0.1268 -0.3237
  933POPC   C1A13679   3.539   0.702   6.931  0.0124 -0.1506  0.1374
  933POPC   D2A13680   3.604   0.941   7.214  0.1980 -0.4174 -0.0214
  933POPC   C3A13681   3.530   1.075   7.635 -0.2947  0.0223 -0.0915
  933POPC   C4A13682   3.698   1.076   8.028 -0.0476 -0.3446 -0.2299
  933POPC   C1B13683   3.316   0.314   7.148  0.0052 -0.2617  0.0285
  933POPC   C2B13684   3.361   0.572   7.472 -0.0672 -0.1193 -0.0715
  933POPC   C3B13685   3.458   0.671   7.894  0.1877  0.1551  0.1745
  933POPC   C4B13686   3.261   0.867   8.247 -0.0712  0.1967 -0.0698
  934POPC   NC313687   1.980  15.491   6.284 -0.2713 -0.1027  0.2074
  934POPC   PO413688   2.268  15.739   6.162  0.1460  0.0316 -0.0833
  934POPC   GL113689   2.486  15.497   6.419 -0.2753  0.0040  0.1258
  934POPC   GL213690   2.277  15.695   6.656 -0.2163  0.3506 -0.0192
  934POPC   C1A13691   2.517  15.278   6.813 -0.1755  0.2170 -0.0856
  934POPC   D2A13692   2.804  15.298   7.134  0.1723  0.0984 -0.0739
  934POPC   C3A13693   2.779  15.170   7.624  0.0601  0.0258 -0.3048
  934POPC   C4A13694   2.545  15.417   7.861  0.0617  0.1414  0.2586
  934POPC   C1B13695   2.461  15.683   7.021 -0.1922 -0.2753 -0.2472
  934POPC   C2B13696   2.629  15.701   7.413  0.0045  0.1456 -0.5264
  934POPC   C3B13697   3.009  15.677   7.717 -0.2013 -0.1702 -0.5665
  934POPC   C4B13698   3.412  15.516   7.785 -0.3478  0.1899 -0.1181
  935POPC   NC313699   3.915  13.330   6.083 -0.2450 -0.0036 -0.1399
  935POPC   PO413700   3.580  13.167   6.150 -0.0786 -0.2038  0.1207
  935POPC   GL113701   3.577  13.583   6.464 -0.2469  0.0895  0.0208
  935POPC   GL213702   3.318  13.815   6.717 -0.2295 -0.3195  0.0941
  935POPC   C1A13703   3.840  13.913   6.670  0.1100 -0.1556 -0.0672
  935POPC   D2A13704   4.106  14.203   6.624  0.0164  0.1233 -0.2101
  935POPC   C3A13705   4.198  14.481   6.957 -0.2884  0.1448 -0.1317
  935POPC   C4A13706   4.286  14.592   7.249 -0.0485  0.3104  0.0815
  935POPC   C1B13707   3.543  13.886   7.160 -0.2041  0.0888  0.2488
  935POPC   C2B13708   3.462  13.977   7.475  0.1157 -0.2041 -0.0547
  935POPC   C3B13709   3.658  13.963   7.835 -0.0682 -0.2172  0.2493
  935POPC   C4B13710   3.951  14.238   8.036 -0.1490 -0.2108  0.0972
  936POPC   NC313711   2.326   2.613   5.674  0.3345  0.3180  0.3539
  936POPC   PO413712   2.219   2.198   5.886  0.1898  0.0035 -0.0768
  936POPC   GL113713   2.257   2.266   6.354  0.3984  0.1363 -0.2187
  936POPC   GL213714   2.427   2.326   6.478  0.0069 -0.0896 -0.0797
  936POPC   C1A13715   2.183   2.206   6.916  0.1935 -0.2704  0.0778
  936POPC   D2A13716   1.998   2.588   7.103 -0.1556 -0.3065 -0.1929
  936POPC   C3A13717   1.727   2.700   7.486 -0.2397 -0.0262  0.1144
  936POPC   C4A13718   1.776   2.745   7.914  0.2656 -0.1680  0.0401
  936POPC   C1B13719   2.418   2.630   6.744 -0.0965 -0.0825  0.1976
  936POPC   C2B13720   2.398   2.863   7.238 -0.0539  0.1246  0.0686
  936POPC   C3B13721   2.510   3.179   7.419 -0.0872  0.0329  0.3394
  936POPC   C4B13722   2.672   3.362   7.752 -0.0790  0.0943 -0.0617
  937POPC   NC313723   0.918   5.529   6.139 -0.1062  0.0629  0.3208
  937POPC   PO413724   1.163   5.229   5.938  0.0569 -0.2340 -0.3765
  937POPC   GL113725   1.223   5.288   6.396  0.0117 -0.2356 -0.2455
  937POPC   GL213726   1.477   5.054   6.567 -0.2236  0.0676 -0.2558
  937POPC   C1A13727   1.159   5.247   6.928  0.0477  0.0826  0.1104
  937POPC   D2A13728   1.261   5.157   7.284 -0.1783 -0.4880  0.2136
  937POPC   C3A13729   1.338   5.409   7.582  0.1409 -0.2551  0.0568
  937POPC   C4A13730   1.687   5.706   7.797  0.0889 -0.1729 -0.3590
  937POPC   C1B13731   1.719   5.066   6.961  0.1044  0.0672  0.0034
  937POPC   C2B13732   1.757   4.918   7.406 -0.0602 -0.0186  0.1282
  937POPC   C3B13733   1.820   4.799   7.882 -0.1275  0.0498 -0.0135
  937POPC   C4B13734   2.003   4.721   8.248 -0.3181  0.0824  0.1544
  938POPC   NC313735   8.290   5.201   6.416  0.0532  0.1156 -0.0541
  938POPC   PO413736   7.981   5.155   6.092  0.1026  0.1777 -0.0053
  938POPC   GL113737   7.694   5.218   6.488  0.0484  0.1392 -0.2236
  938POPC   GL213738   7.774   5.460   6.792 -0.0393  0.2719 -0.1806
  938POPC   C1A13739   7.509   4.989   6.844  0.1725 -0.0630 -0.1200
  938POPC   D2A13740   7.217   4.884   7.188 -0.1268  0.2356  0.1292
  938POPC   C3A13741   6.985   5.206   7.356 -0.0957  0.0037 -0.1640
  938POPC   C4A13742   6.761   5.077   7.848 -0.3062  0.2509  0.0181
  938POPC   C1B13743   7.517   5.455   7.202 -0.1997  0.2261  0.3336
  938POPC   C2B13744   7.466   5.284   7.537  0.0202  0.0880 -0.0738
  938POPC   C3B13745   7.449   5.124   7.938 -0.2156  0.0379  0.1158
  938POPC   C4B13746   7.508   5.236   8.388 -0.1669 -0.0302 -0.2576
  939POPC   NC313747  15.580   1.237   6.594  0.2038 -0.3624 -0.0361
  939POPC   PO413748  16.029   1.290   6.663  0.2657 -0.0703  0.1560
  939POPC   GL113749  15.762   1.239   7.015  0.3298  0.0081 -0.0536
  939POPC   GL213750  15.776   1.033   7.040  0.1848  0.0681  0.0755
  939POPC   C1A13751  15.562   1.309   7.458  0.0708 -0.0085  0.0554
  939POPC   D2A13752  15.384   1.334   7.981  0.0911 -0.1053 -0.1393
  939POPC   C3A13753  15.055   1.764   8.098  0.0936 -0.0572 -0.1192
  939POPC   C4A13754  14.579   1.865   8.300 -0.2333  0.0473 -0.0241
  939POPC   C1B13755  15.879   0.900   7.452 -0.0363 -0.1135 -0.0214
  939POPC   C2B13756  15.818   1.033   7.861 -0.1141  0.2060  0.0157
  939POPC   C3B13757  15.705   1.009   8.292  0.0359 -0.2336  0.1182
  939POPC   C4B13758  15.998   1.031   8.680  0.2895 -0.2002  0.0733
  940POPC   NC313759   6.509  16.458   5.856 -0.1221 -0.1162  0.2587
  940POPC   PO413760   6.094  16.347   6.122 -0.0168  0.2623  0.0755
  940POPC   GL113761   6.380  16.465   6.407 -0.1744  0.0477 -0.0446
  940POPC   GL213762   6.607  16.263   6.487 -0.0430  0.0279 -0.2021
  940POPC   C1A13763   6.382  16.621   6.839  0.1083  0.3625 -0.2091
  940POPC   D2A13764   6.438  16.566   7.261  0.1595 -0.1305  0.2796
  940POPC   C3A13765   6.211  16.873   7.436  0.0499 -0.0396 -0.0845
  940POPC   C4A13766   6.193  17.300   7.499  0.0055  0.3339 -0.0225
  940POPC   C1B13767   6.729  16.262   6.946 -0.2752  0.3823  0.1815
  940POPC   C2B13768   6.799  16.269   7.402 -0.0261 -0.0438  0.0044
  940POPC   C3B13769   6.956  16.226   7.792  0.1816 -0.0979  0.2181
  940POPC   C4B13770   6.767  16.153   8.133 -0.2773 -0.2101  0.3856
  941POPC   NC313771   8.568  17.629   6.303  0.0079 -0.0216  0.0569
  941POPC   PO413772   8.584  17.198   6.279  0.4756 -0.0895  0.1109
  941POPC   GL113773   8.573  17.339   6.690  0.0323 -0.2891 -0.1225
  941POPC   GL213774   8.299  17.438   6.941 -0.1632  0.2294 -0.0960
  941POPC   C1A13775   8.836  17.190   7.106 -0.1894  0.1252  0.0945
  941POPC   D2A13776   9.034  17.171   7.558 -0.1758 -0.2107  0.2101
  941POPC   C3A13777   9.139  17.511   7.744 -0.2924 -0.0925 -0.1890
  941POPC   C4A13778   9.063  17.885   7.969  0.3059 -0.1398  0.1596
  941POPC   C1B13779   8.343  17.431   7.317  0.0528 -0.2329  0.0656
  941POPC   C2B13780   8.110  17.374   7.741  0.0946 -0.1697  0.1044
  941POPC   C3B13781   8.024  17.478   8.095 -0.3963 -0.0258 -0.0126
  941POPC   C4B13782   8.167  17.794   8.358  0.2295 -0.2021  0.0629
  942POPC   NC313783  12.128   0.173   5.684  0.3566  0.0737  0.1533
  942POPC   PO413784  12.054   0.034   6.122 -0.2234  0.1496 -0.1487
  942POPC   GL113785  12.021  -0.036   6.546 -0.2220 -0.0121 -0.2459
  942POPC   GL213786  11.993   0.294   6.670  0.1701 -0.3168  0.2119
  942POPC   C1A13787  11.986  -0.389   6.951 -0.1153  0.0295 -0.0793
  942POPC   D2A13788  11.858  -0.531   7.276 -0.3037  0.0026 -0.0338
  942POPC   C3A13789  12.092  -0.556   7.654  0.4322 -0.0113  0.1303
  942POPC   C4A13790  12.301  -0.657   8.071  0.2059  0.0304 -0.0948
  942POPC   C1B13791  12.140   0.181   7.057  0.1829  0.2361  0.2126
  942POPC   C2B13792  12.216  -0.118   7.496 -0.2503  0.1716 -0.1251
  942POPC   C3B13793  12.335  -0.121   7.891 -0.1780 -0.0651 -0.2086
  942POPC   C4B13794  12.116   0.008   8.342 -0.1078 -0.1454 -0.0355
  943POPC   NC313795   3.711   4.377   6.520  0.1657  0.1542 -0.1834
  943POPC   PO413796   3.336   4.347   6.377  0.3237  0.1788 -0.1365
  943POPC   GL113797   3.311   4.072   6.799  0.1271  0.0985 -0.0287
  943POPC   GL213798   2.989   4.018   6.864 -0.1856  0.1806  0.0536
  943POPC   C1A13799   3.528   3.999   7.215 -0.3474  0.0073  0.1774
  943POPC   D2A13800   3.895   3.925   7.326  0.2003 -0.1060 -0.2009
  943POPC   C3A13801   3.984   3.982   7.741  0.2386 -0.0064 -0.1217
  943POPC   C4A13802   4.120   3.660   8.005 -0.0546  0.1015  0.0164
  943POPC   C1B13803   3.043   4.110   7.243 -0.3341 -0.0381 -0.2994
  943POPC   C2B13804   3.128   4.460   7.515  0.0569  0.3248 -0.3105
  943POPC   C3B13805   3.415   4.812   7.587  0.2570 -0.1537 -0.3222
  943POPC   C4B13806   3.638   4.920   7.909 -0.0582 -0.0190  0.1565
  944POPC   NC313807  16.675  10.508   6.371 -0.1243  0.1702  0.0156
  944POPC   PO413808  16.951  10.890   6.331  0.0857 -0.0531 -0.1863
  944POPC   GL113809  17.125  10.989   6.697  0.0492 -0.0626  0.0224
  944POPC   GL213810  17.246  11.307   6.759 -0.1654 -0.4946  0.1350
  944POPC   C1A13811  17.100  10.846   7.081  0.0487 -0.1386 -0.5845
  944POPC   D2A13812  16.947  10.476   7.315 -0.2420  0.1484  0.0226
  944POPC   C3A13813  16.778  10.639   7.646  0.0037 -0.1876  0.2940
  944POPC   C4A13814  16.887  10.602   8.197 -0.1748 -0.2201  0.1058
  944POPC   C1B13815  17.395  11.336   7.141 -0.0748  0.2030  0.1454
  944POPC   C2B13816  17.303  11.037   7.505 -0.1610  0.2322  0.0566
  944POPC   C3B13817  17.288  10.744   7.746  0.1034  0.1297 -0.0741
  944POPC   C4B13818  17.525  10.571   8.106  0.0924 -0.1053  0.1794
  945POPC   NC313819  17.609  14.068   6.218 -0.1095 -0.0567 -0.2703
  945POPC   PO413820  17.187  13.900   6.127 -0.2624 -0.0077 -0.1459
  945POPC   GL113821  17.254  14.216   6.531 -0.0551 -0.1667  0.0018
  945POPC   GL213822  17.072  14.008   6.711  0.1855  0.1162 -0.0800
  945POPC   C1A13823  17.542  14.235   6.993 -0.1119 -0.0828 -0.0973
  945POPC   D2A13824  17.491  14.516   7.410  0.1435 -0.1252  0.0385
  945POPC   C3A13825  17.822  14.569   7.679  0.0091 -0.1128 -0.0807
  945POPC   C4A13826  18.182  14.522   7.848 -0.1144 -0.0493 -0.0699
  945POPC   C1B13827  16.889  14.031   7.086 -0.1585  0.3603  0.1420
  945POPC   C2B13828  16.829  13.852   7.420  0.0634 -0.0510  0.0386
  945POPC   C3B13829  16.362  13.903   7.505  0.2369 -0.1027 -0.2720
  945POPC   C4B13830  16.084  13.695   7.330  0.0729  0.2414  0.1222
  946POPC   NC313831  11.535  16.103   6.419 -0.1533  0.2687  0.0989
  946POPC   PO413832  11.116  16.142   6.412  0.1953  0.0758  0.0358
  946POPC   GL113833  10.991  15.933   6.813 -0.0727  0.0921  0.0057
  946POPC   GL213834  10.926  15.614   6.855  0.0537 -0.1519 -0.0174
  946POPC   C1A13835  11.020  15.984   7.272 -0.0025 -0.2956 -0.4225
  946POPC   D2A13836  10.997  15.930   7.682 -0.0488  0.0872  0.2452
  946POPC   C3A13837  11.333  15.889   7.782 -0.2266 -0.2438  0.2614
  946POPC   C4A13838  11.722  15.870   7.878 -0.0572  0.0545  0.3913
  946POPC   C1B13839  10.458  15.419   6.978 -0.0139 -0.0092 -0.0748
  946POPC   C2B13840  10.271  15.376   7.435 -0.3751 -0.4213 -0.0434
  946POPC   C3B13841  10.178  15.597   7.810 -0.0600 -0.0256 -0.3406
  946POPC   C4B13842  10.172  15.608   8.265 -0.1289  0.1719 -0.1531
  947POPC   NC313843   7.890  11.110   5.987 -0.0785  0.0721 -0.0769
  947POPC   PO413844   8.028  11.430   6.270 -0.1282  0.1078 -0.1017
  947POPC   GL113845   7.693  11.297   6.564 -0.1377 -0.3170  0.1836
  947POPC   GL213846   7.812  10.870   6.507  0.2385 -0.4116 -0.1468
  947POPC   C1A13847   7.777  11.369   6.906 -0.0912  0.2623 -0.2942
  947POPC   D2A13848   8.012  11.613   7.221  0.1326  0.0805  0.1473
  947POPC   C3A13849   8.127  11.640   7.604  0.0749  0.2076  0.1553
  947POPC   C4A13850   8.408  11.713   7.920 -0.2040  0.1040 -0.4273
  947POPC   C1B13851   8.057  11.007   6.720  0.1015 -0.0139  0.3202
  947POPC   C2B13852   8.140  11.108   7.200  0.0933  0.2534 -0.3079
  947POPC   C3B13853   8.141  11.138   7.587  0.1875  0.2301  0.0000
  947POPC   C4B13854   8.260  11.236   7.990  0.1719  0.0027 -0.0577
  948POPC   NC313855  12.107  16.411   5.859 -0.0228 -0.1868 -0.3485
  948POPC   PO413856  12.028  16.153   6.203 -0.2758  0.1398 -0.0798
  948POPC   GL113857  12.018  16.458   6.532  0.3773 -0.2214 -0.0434
  948POPC   GL213858  11.757  16.549   6.593  0.0218  0.0836 -0.0149
  948POPC   C1A13859  12.296  16.433   6.826  0.2608 -0.0011 -0.2031
  948POPC   D2A13860  12.516  16.529   7.214  0.3466  0.2350 -0.3217
  948POPC   C3A13861  12.437  16.314   7.550 -0.1667 -0.2093 -0.1935
  948POPC   C4A13862  12.759  16.208   7.937  0.1731 -0.4231  0.0633
  948POPC   C1B13863  11.590  16.556   6.923  0.3600 -0.0792  0.1135
  948POPC   C2B13864  11.606  16.775   7.245 -0.2213 -0.4157  0.0494
  948POPC   C3B13865  11.614  16.817   7.610 -0.1029 -0.1542  0.0135
  948POPC   C4B13866  11.736  16.841   8.011 -0.0244 -0.0482  0.0495
  949POPC   NC313867   2.417  11.969   6.431 -0.0557  0.0538 -0.0273
  949POPC   PO413868   2.165  12.321   6.305  0.0346 -0.1801  0.1616
  949POPC   GL113869   2.059  12.238   6.766 -0.2728 -0.1598 -0.0240
  949POPC   GL213870   2.274  12.105   6.963 -0.2611 -0.1684 -0.0677
  949POPC   C1A13871   1.849  12.121   7.179  0.0163  0.4373  0.3575
  949POPC   D2A13872   1.391  12.091   7.305 -0.0832 -0.1336  0.0588
  949POPC   C3A13873   1.260  12.123   7.782 -0.0295  0.0402 -0.2003
  949POPC   C4A13874   1.393  11.846   8.182  0.0702 -0.1374 -0.0914
  949POPC   C1B13875   2.528  12.159   7.239 -0.4331  0.0113 -0.0370
  949POPC   C2B13876   2.691  12.319   7.601  0.1307  0.2101 -0.2541
  949POPC   C3B13877   2.720  12.431   7.956 -0.0138  0.3068 -0.2806
  949POPC   C4B13878   2.631  12.406   8.352 -0.0191  0.2123 -0.2526
  950POPC   NC313879   9.119  14.850   6.249 -0.1815  0.2383  0.1957
  950POPC   PO413880   9.419  15.181   6.272  0.3322 -0.3328  0.0967
  950POPC   GL113881   9.110  15.193   6.662  0.0706 -0.1748  0.3980
  950POPC   GL213882   9.131  14.852   6.764  0.1664 -0.0082 -0.1927
  950POPC   C1A13883   8.952  15.144   7.143  0.0652  0.0030 -0.0754
  950POPC   D2A13884   8.860  14.926   7.436  0.2047 -0.0234  0.0907
  950POPC   C3A13885   8.811  15.104   7.908 -0.2274 -0.1450  0.2085
  950POPC   C4A13886   8.761  15.136   8.327  0.1641  0.0824 -0.0775
  950POPC   C1B13887   9.215  14.329   6.916 -0.3885  0.0427  0.2251
  950POPC   C2B13888   9.402  14.111   7.251  0.0298 -0.0664  0.1014
  950POPC   C3B13889   9.291  14.035   7.708 -0.3426 -0.2911  0.0399
  950POPC   C4B13890   9.131  14.080   8.038  0.2245 -0.0249  0.0807
  951POPC   NC313891   0.759  14.452   6.386  0.3327 -0.0168  0.2563
  951POPC   PO413892   0.401  14.249   6.195 -0.0025 -0.0277  0.0466
  951POPC   GL113893   0.479  14.083   6.622  0.2190 -0.1511 -0.1071
  951POPC   GL213894   0.845  14.028   6.802  0.2223  0.1986 -0.1347
  951POPC   C1A13895   0.412  14.058   7.046  0.0194 -0.3029 -0.0202
  951POPC   D2A13896   0.421  14.207   7.383  0.0934 -0.7531 -0.1562
  951POPC   C3A13897   0.547  13.952   7.715 -0.3143 -0.1801  0.1714
  951POPC   C4A13898   0.743  13.549   7.826  0.0160 -0.1056 -0.0234
  951POPC   C1B13899   0.940  13.925   7.224 -0.1579 -0.3062  0.3502
  951POPC   C2B13900   1.056  13.883   7.636 -0.0630  0.0244  0.2787
  951POPC   C3B13901   0.905  14.023   8.071  0.3593  0.0177 -0.2298
  951POPC   C4B13902   0.437  14.095   8.225 -0.1945 -0.0842 -0.0448
  952POPC   NC313903   4.488   1.675   5.979 -0.1160 -0.2226  0.1170
  952POPC   PO413904   4.253   1.429   6.223  0.0556  0.0409 -0.0708
  952POPC   GL113905   4.576   1.399   6.554  0.2835 -0.3378 -0.0659
  952POPC   GL213906   4.832   1.163   6.535 -0.0429  0.1279  0.0423
  952POPC   C1A13907   4.572   1.389   7.041  0.2385 -0.0630 -0.0987
  952POPC   D2A13908   4.479   1.351   7.396  0.1544  0.0124 -0.1975
  952POPC   C3A13909   4.309   1.580   7.726  0.1673 -0.0239  0.2043
  952POPC   C4A13910   3.988   1.584   8.041 -0.2466 -0.0410  0.1131
  952POPC   C1B13911   5.030   0.879   6.760  0.1776  0.0589 -0.0465
  952POPC   C2B13912   4.935   0.553   6.945 -0.1253  0.1385 -0.1847
  952POPC   C3B13913   5.070   0.248   7.278 -0.3496  0.0950 -0.2338
  952POPC   C4B13914   4.851  -0.027   7.515 -0.1960 -0.0323  0.0726
  953POPC   NC313915   8.926   6.435   6.079  0.0496  0.0933 -0.0995
  953POPC   PO413916   8.918   6.884   6.265  0.4126  0.0887 -0.2341
  953POPC   GL113917   8.941   6.841   6.722 -0.2430 -0.2035 -0.0629
  953POPC   GL213918   8.764   7.133   6.863  0.0210 -0.3612  0.0216
  953POPC   C1A13919   9.023   6.779   7.219 -0.0357 -0.2622  0.0310
  953POPC   D2A13920   8.896   6.818   7.646  0.2916  0.2518  0.3751
  953POPC   C3A13921   9.157   6.791   8.080  0.1161 -0.0428 -0.1646
  953POPC   C4A13922   9.072   6.642   8.481 -0.2746 -0.1217 -0.2814
  953POPC   C1B13923   8.713   7.365   7.194  0.0911  0.2815  0.1336
  953POPC   C2B13924   8.620   7.598   7.603  0.0587  0.1688 -0.0260
  953POPC   C3B13925   8.384   7.684   7.906 -0.0246  0.2226 -0.2373
  953POPC   C4B13926   8.430   7.878   8.353  0.2029 -0.0344  0.0996
  954POPC   NC313927  15.395   4.297   6.113  0.1005 -0.4360 -0.1597
  954POPC   PO413928  15.132   4.463   6.434 -0.0250 -0.0925  0.0837
  954POPC   GL113929  14.897   4.335   6.754 -0.0530  0.3237 -0.1534
  954POPC   GL213930  14.592   4.389   6.784 -0.0907 -0.0204  0.2723
  954POPC   C1A13931  14.820   3.956   7.123 -0.2403 -0.0456  0.0614
  954POPC   D2A13932  14.487   3.874   7.510  0.0703  0.1361  0.0162
  954POPC   C3A13933  14.500   3.594   7.812  0.2479  0.0343 -0.0059
  954POPC   C4A13934  14.594   3.314   8.141  0.1413  0.1751  0.2168
  954POPC   C1B13935  14.403   4.399   7.201 -0.3287 -0.4013 -0.1007
  954POPC   C2B13936  14.240   4.277   7.675 -0.0158 -0.1417 -0.3639
  954POPC   C3B13937  14.374   4.065   8.002 -0.0352  0.1798 -0.0452
  954POPC   C4B13938  14.346   3.759   8.379 -0.3431 -0.0716  0.1114
  955POPC   NC313939   3.935   8.003   5.958  0.3093 -0.3153  0.0659
  955POPC   PO413940   4.066   7.517   5.923  0.3079 -0.2459  0.1962
  955POPC   GL113941   4.227   7.550   6.267  0.0420  0.1751 -0.4331
  955POPC   GL213942   4.404   7.776   6.510  0.2813  0.0362  0.1517
  955POPC   C1A13943   4.153   7.352   6.716 -0.1627  0.1450 -0.0481
  955POPC   D2A13944   4.065   7.404   7.156 -0.0496 -0.2612  0.1903
  955POPC   C3A13945   3.767   7.522   7.141 -0.2115 -0.0664  0.2595
  955POPC   C4A13946   3.547   7.826   6.965 -0.3323 -0.1948 -0.1888
  955POPC   C1B13947   4.667   7.839   6.921  0.1380  0.2658  0.0112
  955POPC   C2B13948   4.881   7.785   7.298 -0.3067 -0.0307 -0.5182
  955POPC   C3B13949   5.064   7.810   7.714 -0.0147 -0.3625 -0.0130
  955POPC   C4B13950   5.353   7.855   8.151  0.0906  0.1460  0.1614
  956POPC   NC313951   2.813   4.203   6.378  0.1120 -0.3143  0.0580
  956POPC   PO413952   3.010   3.792   6.394  0.1546  0.0341 -0.6222
  956POPC   GL113953   3.223   3.572   6.724  0.1219 -0.1939  0.2327
  956POPC   GL213954   2.910   3.288   6.861 -0.0215 -0.0625  0.0712
  956POPC   C1A13955   3.283   3.626   7.066 -0.0509 -0.1032 -0.0182
  956POPC   D2A13956   3.602   3.479   7.325 -0.0428  0.1043  0.1364
  956POPC   C3A13957   3.640   3.582   7.795  0.0767 -0.0510  0.1756
  956POPC   C4A13958   3.680   3.463   8.256 -0.3340  0.3492  0.1544
  956POPC   C1B13959   2.816   3.501   7.230 -0.0198 -0.0469 -0.1244
  956POPC   C2B13960   3.156   3.682   7.535  0.0073  0.1815  0.0361
  956POPC   C3B13961   3.142   3.971   7.982 -0.0286 -0.2400 -0.0668
  956POPC   C4B13962   3.630   4.007   8.105 -0.0615  0.0901 -0.4648
  957POPC   NC313963   4.153   6.507   5.494  0.1176 -0.4520  0.3022
  957POPC   PO413964   3.955   6.823   5.915 -0.1817  0.1544 -0.1881
  957POPC   GL113965   3.903   6.605   6.231  0.2757 -0.2035 -0.0874
  957POPC   GL213966   3.917   6.789   6.466 -0.1733 -0.0781 -0.1188
  957POPC   C1A13967   3.540   6.455   6.422 -0.1806  0.0285 -0.1649
  957POPC   D2A13968   3.350   6.558   6.771  0.1363 -0.1444  0.2603
  957POPC   C3A13969   3.406   6.756   7.118 -0.2484 -0.0116  0.1837
  957POPC   C4A13970   3.305   6.879   7.434  0.2839  0.0936  0.1907
  957POPC   C1B13971   3.773   7.068   6.888  0.1327 -0.2767  0.0329
  957POPC   C2B13972   3.722   7.163   7.414 -0.0768 -0.0071  0.2614
  957POPC   C3B13973   3.753   7.351   7.793 -0.2151  0.0164 -0.3636
  957POPC   C4B13974   3.846   7.112   8.114  0.1477 -0.1489 -0.0246
  958POPC   NC313975   0.827  16.161   6.402  0.0178 -0.1535  0.1264
  958POPC   PO413976   0.840  16.615   6.454  0.0155 -0.1664  0.2162
  958POPC   GL113977   1.044  16.542   6.857 -0.3109 -0.0206 -0.1051
  958POPC   GL213978   1.172  16.330   6.764  0.1324  0.0838 -0.2746
  958POPC   C1A13979   1.289  16.384   7.260  0.1171 -0.2103  0.2532
  958POPC   D2A13980   1.555  16.340   7.657 -0.3059 -0.1203 -0.0294
  958POPC   C3A13981   1.746  16.007   7.717  0.0938  0.1057 -0.1755
  958POPC   C4A13982   1.735  15.794   8.087  0.2429  0.0008  0.1294
  958POPC   C1B13983   1.640  16.295   6.823  0.1570  0.0338  0.2187
  958POPC   C2B13984   1.795  16.299   7.257 -0.0988  0.0129 -0.0304
  958POPC   C3B13985   2.024  16.480   7.489  0.3588 -0.2023  0.1830
  958POPC   C4B13986   2.183  16.332   7.766  0.4294 -0.0280 -0.3328
  959POPC   NC313987   8.938   3.475   5.705  0.1631 -0.1057 -0.3242
  959POPC   PO413988   8.786   3.601   6.109  0.1268  0.0456 -0.1301
  959POPC   GL113989   8.744   3.241   6.345  0.0391  0.0807 -0.2032
  959POPC   GL213990   8.797   3.404   6.616 -0.1133 -0.0992  0.1813
  959POPC   C1A13991   8.673   2.961   6.686  0.1066  0.0815  0.1837
  959POPC   D2A13992   8.475   2.952   7.033 -0.0187  0.0347 -0.2246
  959POPC   C3A13993   8.580   2.866   7.473 -0.0321  0.1319 -0.1322
  959POPC   C4A13994   8.340   2.756   7.880 -0.1366  0.0989 -0.2041
  959POPC   C1B13995   9.215   3.577   6.837  0.0467 -0.0267  0.3394
  959POPC   C2B13996   9.473   3.336   7.240  0.1376 -0.1048  0.1535
  959POPC   C3B13997   9.433   3.258   7.683  0.1639 -0.3277  0.1503
  959POPC   C4B13998   9.533   3.098   8.084 -0.2887 -0.1336 -0.4088
  960POPC   NC313999   3.399  16.082   6.181  0.3643  0.0015 -0.0453
  960POPC   PO414000   3.207  15.786   6.005 -0.2168  0.2379  0.0680
  960POPC   GL114001   3.008  15.810   6.356 -0.0993  0.0639 -0.1857
  960POPC   GL214002   2.660  15.963   6.528  0.1077 -0.0663 -0.0971
  960POPC   C1A14003   2.926  15.410   6.635 -0.2169 -0.1446 -0.0206
  960POPC   D2A14004   2.983  15.018   6.522 -0.0810  0.0557 -0.0132
  960POPC   C3A14005   2.806  14.786   6.844  0.0827  0.1881 -0.3348
  960POPC   C4A14006   2.625  14.784   7.226  0.1671 -0.0658 -0.0448
  960POPC   C1B14007   2.671  16.156   6.935 -0.3504  0.2688 -0.0762
  960POPC   C2B14008   2.493  16.217   7.393 -0.0713 -0.2167 -0.0346
  960POPC   C3B14009   2.625  16.036   7.799  0.0368 -0.0388  0.2388
  960POPC   C4B14010   2.582  15.772   8.224  0.0962 -0.3326  0.1227
  961POPC   NC314011   7.259  10.151   5.925  0.1560  0.1550  0.0700
  961POPC   PO414012   7.210   9.977   6.291  0.0607  0.1928  0.3108
  961POPC   GL114013   7.084  10.050   6.729 -0.1894 -0.0803  0.0755
  961POPC   GL214014   7.071  10.322   6.861  0.0448 -0.0719  0.2743
  961POPC   C1A14015   6.893   9.889   7.164 -0.1508 -0.0795 -0.0874
  961POPC   D2A14016   6.681   9.964   7.550 -0.2482  0.0392  0.0567
  961POPC   C3A14017   6.498  10.020   8.001  0.0525  0.2169 -0.2300
  961POPC   C4A14018   6.342   9.972   8.333  0.2792 -0.0379 -0.1938
  961POPC   C1B14019   7.294  10.494   7.177 -0.1272  0.4301  0.0173
  961POPC   C2B14020   7.437  10.598   7.609 -0.0313  0.1836 -0.0122
  961POPC   C3B14021   7.379  10.341   7.910 -0.0646 -0.0926  0.3530
  961POPC   C4B14022   7.320  10.379   8.345  0.0060  0.0952 -0.0706
  962POPC   NC314023   5.622   2.685   6.579 -0.0025 -0.2349  0.2823
  962POPC   PO414024   5.339   2.505   6.390 -0.0417 -0.0201  0.2118
  962POPC   GL114025   5.536   2.177   6.714 -0.1310  0.1034  0.0996
  962POPC   GL214026   5.835   2.183   6.732 -0.0984 -0.2219  0.1823
  962POPC   C1A14027   5.320   1.945   7.027 -0.0204  0.0234 -0.0465
  962POPC   D2A14028   5.176   1.898   7.457 -0.1779  0.0564 -0.0377
  962POPC   C3A14029   5.072   2.071   7.851 -0.1235 -0.4345 -0.1574
  962POPC   C4A14030   4.784   2.240   8.056 -0.0346 -0.1296 -0.1786
  962POPC   C1B14031   6.052   2.388   7.024  0.4428 -0.0335 -0.1011
  962POPC   C2B14032   5.918   2.511   7.377  0.1473 -0.1233 -0.2269
  962POPC   C3B14033   6.205   2.611   7.742  0.0341 -0.0943  0.1277
  962POPC   C4B14034   6.435   2.482   8.058 -0.1134 -0.2245 -0.1840
  963YOPC   NC314035   0.524   3.256   5.911  0.2417 -0.2263 -0.1426
  963YOPC   PO414036   0.664   2.884   5.876  0.0600  0.1486  0.0872
  963YOPC   GL114037   0.474   2.897   6.359 -0.2499 -0.0549 -0.2321
  963YOPC   GL214038   0.311   2.520   6.561 -0.2978  0.0228 -0.2332
  963YOPC   C1A14039   0.227   3.198   6.600  0.0348  0.1915 -0.0265
  963YOPC   D2A14040   0.122   3.281   7.032 -0.0696 -0.0208  0.0596
  963YOPC   C3A14041   0.285   3.437   7.427 -0.0306  0.0538 -0.0112
  963YOPC   C4A14042   0.528   3.424   7.743 -0.0803 -0.1188  0.3354
  963YOPC   C1B14043   0.562   2.820   6.884  0.1974 -0.1066  0.3283
  963YOPC   C2B14044   1.024   2.867   7.114 -0.1809  0.0401 -0.0476
  963YOPC   D3B14045   1.126   2.785   7.494  0.2884  0.1183 -0.1660
  963YOPC   C4B14046   1.309   2.434   7.671 -0.1658 -0.0309  0.3391
  964YOPC   NC314047  12.046  13.872   6.324 -0.0717 -0.0701  0.1636
  964YOPC   PO414048  11.635  13.633   6.437 -0.0800 -0.0150 -0.1148
  964YOPC   GL114049  11.677  13.547   6.833 -0.1151  0.2383 -0.0485
  964YOPC   GL214050  11.541  13.829   6.942  0.0042  0.4239 -0.4428
  964YOPC   C1A14051  11.560  13.348   7.114  0.0536  0.0864 -0.0136
  964YOPC   D2A14052  11.407  13.466   7.481  0.2023  0.4228  0.3990
  964YOPC   C3A14053  11.563  13.435   7.880 -0.3548 -0.0592 -0.1805
  964YOPC   C4A14054  11.881  13.405   8.252  0.0051 -0.0508  0.2357
  964YOPC   C1B14055  11.747  13.831   7.341  0.1277  0.0745  0.0983
  964YOPC   C2B14056  11.789  13.835   7.761  0.1656  0.0219  0.0596
  964YOPC   D3B14057  12.016  13.890   8.208  0.2361 -0.1978  0.1221
  964YOPC   C4B14058  12.401  13.915   8.040  0.0618  0.3074  0.1810
  965YOPC   NC314059  14.060  12.452   5.466 -0.0737 -0.1089 -0.0254
  965YOPC   PO414060  14.346  12.048   5.632  0.0064 -0.1322  0.4351
  965YOPC   GL114061  14.202  11.842   5.975 -0.5678  0.1363  0.2513
  965YOPC   GL214062  14.295  11.970   6.244 -0.0985 -0.0458  0.0759
  965YOPC   C1A14063  13.790  11.724   6.173 -0.0487 -0.0955  0.1049
  965YOPC   D2A14064  13.690  11.307   6.278  0.1014 -0.0617  0.3142
  965YOPC   C3A14065  13.701  11.189   6.647 -0.1342 -0.1413 -0.2960
  965YOPC   C4A14066  13.743  10.854   6.800 -0.1748 -0.2412  0.0516
  965YOPC   C1B14067  13.997  12.278   6.427 -0.0958 -0.1510 -0.1850
  965YOPC   C2B14068  13.998  12.680   6.236 -0.0750  0.4136 -0.0624
  965YOPC   D3B14069  14.150  12.998   6.478  0.1050 -0.2051 -0.2471
  965YOPC   C4B14070  14.543  13.069   6.582  0.1452 -0.2262 -0.2823
  966YOPC   NC314071  17.231   5.473   6.066 -0.1884 -0.1156 -0.1269
  966YOPC   PO414072  17.217   5.118   6.295 -0.1193  0.3739  0.3670
  966YOPC   GL114073  17.387   4.823   6.641  0.1363  0.0475 -0.0709
  966YOPC   GL214074  17.531   4.964   6.904 -0.0565 -0.2985 -0.2600
  966YOPC   C1A14075  17.634   4.518   6.930 -0.0110 -0.2077  0.2474
  966YOPC   D2A14076  17.988   4.554   7.102 -0.2701  0.0679 -0.1683
  966YOPC   C3A14077  18.121   4.734   7.499  0.0502  0.0820 -0.2568
  966YOPC   C4A14078  18.080   4.677   7.923 -0.2787  0.0686  0.1103
  966YOPC   C1B14079  17.558   4.765   7.329 -0.3956  0.1409 -0.0153
  966YOPC   C2B14080  17.587   4.644   7.716  0.1200  0.0280  0.1399
  966YOPC   D3B14081  17.278   4.287   7.834 -0.0274 -0.1685 -0.1473
  966YOPC   C4B14082  17.050   4.222   8.193 -0.3027 -0.1067  0.0884
  967YOPC   NC314083  17.521   3.746   6.011 -0.0926  0.0450  0.1213
  967YOPC   PO414084  17.403   3.188   6.062 -0.0147  0.0263  0.1327
  967YOPC   GL114085  17.446   3.220   6.506  0.0527  0.3810 -0.0744
  967YOPC   GL214086  17.494   3.057   6.746  0.0269  0.2042  0.1411
  967YOPC   C1A14087  17.437   3.522   6.948  0.0487 -0.2016 -0.1052
  967YOPC   D2A14088  17.539   3.478   7.313  0.1117  0.0116 -0.2313
  967YOPC   C3A14089  17.595   3.236   7.636 -0.0562  0.0467  0.1119
  967YOPC   C4A14090  17.677   3.328   8.029  0.1762  0.1702 -0.1071
  967YOPC   C1B14091  17.433   3.000   7.186 -0.1895 -0.0637 -0.1242
  967YOPC   C2B14092  17.096   3.140   7.535 -0.2419  0.3287 -0.3052
  967YOPC   D3B14093  16.975   3.396   7.679  0.0331  0.0763 -0.0331
  967YOPC   C4B14094  17.227   3.685   7.908 -0.0681  0.3097  0.0240
  968YOPC   NC314095  16.919   2.996   5.976  0.1623 -0.1091  0.1084
  968YOPC   PO414096  16.661   2.871   6.379  0.1885  0.3398 -0.2115
  968YOPC   GL114097  16.741   2.749   6.698 -0.1577  0.1708  0.2328
  968YOPC   GL214098  16.929   2.390   6.725  0.2044  0.1934 -0.0232
  968YOPC   C1A14099  16.992   2.761   7.120 -0.4382 -0.0849  0.0893
  968YOPC   D2A14100  17.204   2.618   7.468 -0.2673 -0.0111  0.1469
  968YOPC   C3A14101  17.590   2.652   7.717 -0.1773 -0.2517 -0.0872
  968YOPC   C4A14102  17.358   2.845   7.991  0.1623 -0.3370  0.6432
  968YOPC   C1B14103  16.579   2.489   7.088  0.1361  0.1343 -0.1957
  968YOPC   C2B14104  16.382   2.373   7.438 -0.2349  0.1139 -0.2159
  968YOPC   D3B14105  16.349   2.518   7.779 -0.0695  0.0366 -0.0670
  968YOPC   C4B14106  16.370   2.920   7.933  0.1664 -0.0583  0.3267
  969YOPC   NC314107  12.371   2.768   6.288 -0.0673  0.0613  0.1762
  969YOPC   PO414108  11.956   2.758   6.118  0.0402 -0.1569 -0.1618
  969YOPC   GL114109  11.907   2.678   6.494 -0.0220  0.0112  0.1543
  969YOPC   GL214110  12.014   2.878   6.678 -0.1658  0.2445  0.0117
  969YOPC   C1A14111  11.814   2.460   6.890 -0.0080 -0.1478 -0.1547
  969YOPC   D2A14112  11.834   2.325   7.247 -0.0345 -0.1976  0.0195
  969YOPC   C3A14113  11.467   2.533   7.514 -0.0338  0.2601 -0.2065
  969YOPC   C4A14114  11.078   2.824   7.463 -0.0824 -0.0031  0.0553
  969YOPC   C1B14115  12.348   2.924   7.049  0.0265  0.0499  0.2203
  969YOPC   C2B14116  12.484   2.959   7.424  0.0914 -0.0206  0.2311
  969YOPC   D3B14117  12.303   3.204   7.794 -0.2617 -0.1330  0.2920
  969YOPC   C4B14118  11.920   2.986   7.986  0.0485 -0.1296  0.0395
  970YOPC   NC314119   4.778   5.484   5.603 -0.0714 -0.2461 -0.1649
  970YOPC   PO414120   5.011   5.442   5.973 -0.0185 -0.3129 -0.2428
  970YOPC   GL114121   4.966   5.319   6.433  0.0852  0.0012  0.2254
  970YOPC   GL214122   4.641   5.252   6.541  0.2980 -0.0219 -0.0508
  970YOPC   C1A14123   5.055   5.574   6.817  0.2801 -0.0405 -0.1254
  970YOPC   D2A14124   5.165   5.528   7.155  0.0235 -0.2113  0.1455
  970YOPC   C3A14125   5.440   5.210   7.364  0.1330  0.2007 -0.1922
  970YOPC   C4A14126   5.658   4.854   7.279  0.2863 -0.0396  0.1446
  970YOPC   C1B14127   4.685   5.197   7.012  0.0337 -0.2554 -0.2140
  970YOPC   C2B14128   4.626   5.294   7.427  0.3685 -0.2468  0.2949
  970YOPC   D3B14129   4.898   5.472   7.603  0.2626  0.3567 -0.1224
  970YOPC   C4B14130   5.312   5.585   7.679 -0.0330 -0.1128 -0.0226
  971YOPC   NC314131   9.915  17.487   5.908 -0.0855 -0.0341  0.5075
  971YOPC   PO414132   9.639  17.223   6.203 -0.0746 -0.0756  0.0079
  971YOPC   GL114133   9.449  16.955   6.572 -0.0158 -0.2686  0.2669
  971YOPC   GL214134   9.690  16.978   6.771 -0.1666  0.1168 -0.3529
  971YOPC   C1A14135   9.284  17.037   7.028 -0.0646  0.2882  0.1457
  971YOPC   D2A14136   9.498  17.054   7.480  0.1569 -0.1490  0.1573
  971YOPC   C3A14137   9.439  17.123   7.876  0.1734  0.1514 -0.0444
  971YOPC   C4A14138   9.452  16.780   8.266  0.0717 -0.0122  0.1662
  971YOPC   C1B14139   9.732  17.313   7.097  0.2449 -0.3849 -0.3486
  971YOPC   C2B14140   9.678  17.500   7.636  0.2502 -0.0790  0.4595
  971YOPC   D3B14141   9.516  17.824   7.887 -0.0438 -0.2230  0.0076
  971YOPC   C4B14142   9.406  17.998   8.287 -0.0256 -0.1625 -0.0996
  972YOPC   NC314143   2.678  14.211   6.259  0.1129  0.1729 -0.0734
  972YOPC   PO414144   2.338  14.050   6.331  0.1439  0.1739 -0.1568
  972YOPC   GL114145   2.270  13.926   6.639 -0.2608 -0.1000  0.3356
  972YOPC   GL214146   1.972  13.805   6.792  0.1497  0.0870  0.0440
  972YOPC   C1A14147   2.431  13.771   7.048  0.3067  0.2275 -0.0088
  972YOPC   D2A14148   2.482  13.540   7.458  0.0389  0.2425  0.2544
  972YOPC   C3A14149   2.668  13.785   7.858 -0.0048  0.1363 -0.2384
  972YOPC   C4A14150   2.733  13.769   8.240  0.1993 -0.0396 -0.1888
  972YOPC   C1B14151   1.796  13.595   7.103 -0.1930  0.1030 -0.3600
  972YOPC   C2B14152   1.653  13.412   7.491  0.0836  0.0472  0.0786
  972YOPC   D3B14153   1.664  13.446   7.961  0.3380  0.0629  0.0540
  972YOPC   C4B14154   1.980  13.607   8.399  0.0800  0.0241  0.3788
  973YOPC   NC314155  17.036  16.279   6.032  0.2662 -0.0488  0.0830
  973YOPC   PO414156  17.418  16.506   5.851 -0.0906 -0.1697  0.0369
  973YOPC   GL114157  17.687  16.765   6.266 -0.2827 -0.1802  0.3628
  973YOPC   GL214158  17.789  17.111   6.398  0.1270  0.1427 -0.4023
  973YOPC   C1A14159  17.627  16.452   6.601 -0.2096  0.2526 -0.1375
  973YOPC   D2A14160  17.807  16.313   7.071  0.0132 -0.1937 -0.2343
  973YOPC   C3A14161  17.512  16.508   7.439 -0.1147  0.0027  0.0463
  973YOPC   C4A14162  17.560  16.518   7.931 -0.0292 -0.0870 -0.0079
  973YOPC   C1B14163  17.578  16.949   6.756  0.1830 -0.1375  0.0479
  973YOPC   C2B14164  17.540  17.068   7.202 -0.0653 -0.1549  0.0252
  973YOPC   D3B14165  17.554  16.965   7.643  0.3288 -0.1232 -0.1007
  973YOPC   C4B14166  17.708  16.993   7.980 -0.0293 -0.1501  0.1628
  974YOPC   NC314167   4.485  17.259   6.260  0.2203 -0.2175 -0.0198
  974YOPC   PO414168   4.508  16.855   6.365 -0.0784  0.3161  0.4395
  974YOPC   GL114169   4.397  16.705   6.765  0.2759  0.1071 -0.0801
  974YOPC   GL214170   4.484  16.471   6.923 -0.0524 -0.0155 -0.1202
  974YOPC   C1A14171   4.168  16.794   7.172  0.0428  0.0975 -0.1380
  974YOPC   D2A14172   4.138  16.780   7.636  0.0468  0.1055  0.0292
  974YOPC   C3A14173   3.760  16.707   7.718 -0.1833 -0.4036  0.0427
  974YOPC   C4A14174   3.405  16.482   8.032 -0.1604 -0.2515  0.0833
  974YOPC   C1B14175   4.609  16.372   7.316 -0.0632  0.3027  0.0683
  974YOPC   C2B14176   4.830  16.212   7.634  0.1688 -0.3577 -0.4256
  974YOPC   D3B14177   4.662  16.158   8.011  0.0595 -0.0770 -0.0476
  974YOPC   C4B14178   4.478  16.359   8.319  0.0437  0.1587  0.1503
  975YOPC   NC314179  13.074  12.315   5.771 -0.1061 -0.1176 -0.1020
  975YOPC   PO414180  12.934  11.924   5.633  0.0101  0.0108  0.1206
  975YOPC   GL114181  13.021  11.873   6.064  0.0623  0.0371  0.2393
  975YOPC   GL214182  12.835  11.806   6.341  0.0260  0.2546 -0.2547
  975YOPC   C1A14183  13.353  11.969   6.285 -0.0137 -0.1184 -0.2822
  975YOPC   D2A14184  13.707  11.939   6.622 -0.0590 -0.2539 -0.2180
  975YOPC   C3A14185  13.675  11.870   7.121  0.0171  0.3434  0.2177
  975YOPC   C4A14186  13.700  12.059   7.523  0.3717 -0.0435  0.0876
  975YOPC   C1B14187  12.857  11.962   6.636  0.1786 -0.3376  0.0400
  975YOPC   C2B14188  13.159  12.093   6.903  0.1193  0.2373  0.0992
  975YOPC   D3B14189  13.163  12.250   7.288  0.1049  0.0323 -0.0807
  975YOPC   C4B14190  12.896  12.246   7.725 -0.1196  0.3278 -0.0825
  976YOPC   NC314191   9.317   7.952   6.647 -0.0422  0.0425 -0.1873
  976YOPC   PO414192   9.436   7.547   6.492  0.1168 -0.0566  0.4719
  976YOPC   GL114193   9.218   7.423   6.891  0.1011 -0.1024  0.1240
  976YOPC   GL214194   9.390   7.625   7.065 -0.1068  0.1953 -0.0312
  976YOPC   C1A14195   9.169   7.211   7.350 -0.1399  0.0839 -0.1854
  976YOPC   D2A14196   9.085   7.242   7.772 -0.1176  0.3489 -0.1511
  976YOPC   C3A14197   8.994   7.628   7.927  0.1752 -0.1543 -0.4869
  976YOPC   C4A14198   9.280   8.061   8.048 -0.1334  0.0516 -0.0064
  976YOPC   C1B14199   9.262   7.660   7.476 -0.0348 -0.1693 -0.2751
  976YOPC   C2B14200   9.562   7.712   7.761  0.1056 -0.0751 -0.1476
  976YOPC   D3B14201   9.452   7.584   8.158  0.3548 -0.2274  0.1874
  976YOPC   C4B14202   9.126   7.332   8.309  0.0032  0.1933 -0.1021
  977YOPC   NC314203   3.097   1.664   6.057 -0.0352  0.2939 -0.2044
  977YOPC   PO414204   3.379   1.911   6.311 -0.1112 -0.2767  0.4268
  977YOPC   GL114205   3.435   1.715   6.689 -0.2164  0.1909 -0.0465
  977YOPC   GL214206   3.630   1.919   6.866  0.1334  0.2699  0.1472
  977YOPC   C1A14207   3.129   1.632   7.028 -0.0156 -0.2484 -0.0414
  977YOPC   D2A14208   2.731   1.549   7.194 -0.1551  0.2254 -0.0019
  977YOPC   C3A14209   2.687   1.864   7.449 -0.0201 -0.1383 -0.3274
  977YOPC   C4A14210   2.703   2.157   7.716 -0.0087  0.1499 -0.1664
  977YOPC   C1B14211   3.924   2.100   7.046 -0.1066 -0.1797  0.2392
  977YOPC   C2B14212   3.921   2.319   7.413 -0.3094 -0.1156 -0.1014
  977YOPC   D3B14213   4.257   2.569   7.635  0.0551  0.1938  0.1174
  977YOPC   C4B14214   4.320   2.448   8.055  0.0456 -0.2980  0.2235
  978YOPC   NC314215  15.614  12.503   5.938  0.3051 -0.1666 -0.1395
  978YOPC   PO414216  15.749  12.851   6.295  0.0817 -0.1848  0.3602
  978YOPC   GL114217  15.932  12.832   6.664  0.0194  0.1035  0.1754
  978YOPC   GL214218  16.250  13.066   6.702 -0.2245  0.1174 -0.0156
  978YOPC   C1A14219  15.779  12.799   7.059  0.1589  0.3465  0.0717
  978YOPC   D2A14220  15.569  12.878   7.455 -0.2823 -0.1434 -0.3507
  978YOPC   C3A14221  15.673  13.086   7.869  0.0495 -0.5231 -0.1136
  978YOPC   C4A14222  15.777  13.280   8.221  0.2276 -0.2461  0.0693
  978YOPC   C1B14223  16.215  13.144   7.116 -0.1940 -0.1095  0.0715
  978YOPC   C2B14224  16.100  13.208   7.512 -0.0505 -0.3614 -0.1559
  978YOPC   D3B14225  16.139  13.121   7.930 -0.2113  0.0271  0.0768
  978YOPC   C4B14226  16.547  13.235   8.225  0.2024  0.1652 -0.1785
  979YOPC   NC314227  15.287  13.748   5.943 -0.2898 -0.1459  0.0405
  979YOPC   PO414228  14.827  13.698   5.804  0.0862  0.0458 -0.1180
  979YOPC   GL114229  14.905  13.444   6.083 -0.1993 -0.2210 -0.0527
  979YOPC   GL214230  14.848  13.147   6.061 -0.3225  0.0009  0.0221
  979YOPC   C1A14231  14.896  13.396   6.569  0.0844 -0.0802  0.0486
  979YOPC   D2A14232  15.192  13.548   6.957 -0.2232  0.0893  0.2202
  979YOPC   C3A14233  15.050  13.437   7.405 -0.0082 -0.1839  0.0508
  979YOPC   C4A14234  15.191  13.165   7.701 -0.2480  0.0891  0.3140
  979YOPC   C1B14235  14.805  12.763   6.237  0.1123  0.3088  0.2681
  979YOPC   C2B14236  14.947  12.369   6.242 -0.1175  0.1717 -0.0359
  979YOPC   D3B14237  15.148  12.173   6.663  0.0448  0.0843  0.0490
  979YOPC   C4B14238  15.118  11.789   6.677 -0.1759 -0.4665  0.0946
  980YOPC   NC314239  15.789   3.971   6.174 -0.1578 -0.1143  0.0795
  980YOPC   PO414240  16.218   3.812   6.277  0.1271 -0.0461 -0.0844
  980YOPC   GL114241  16.255   3.658   6.794 -0.1979  0.1398  0.3535
  980YOPC   GL214242  16.067   3.415   6.833  0.0317 -0.0003 -0.0046
  980YOPC   C1A14243  15.966   3.796   7.139  0.0040 -0.2831  0.0394
  980YOPC   D2A14244  15.709   3.546   7.479  0.3703  0.1951  0.0393
  980YOPC   C3A14245  15.528   3.557   7.821  0.1667  0.1529  0.2442
  980YOPC   C4A14246  15.740   3.405   8.282  0.0677 -0.1004  0.1836
  980YOPC   C1B14247  16.117   3.307   7.288  0.2473  0.1968 -0.1088
  980YOPC   C2B14248  16.464   3.247   7.589  0.4476  0.0475 -0.0619
  980YOPC   D3B14249  16.534   3.397   7.953  0.5935  0.0964 -0.3869
  980YOPC   C4B14250  16.644   3.544   8.375 -0.0336 -0.0786 -0.2107
  981YOPC   NC314251   9.163   8.674   6.256 -0.0548 -0.1899  0.0155
  981YOPC   PO414252   9.397   8.439   6.541 -0.1478 -0.1082  0.2438
  981YOPC   GL114253   9.295   8.496   7.007  0.2017 -0.0727 -0.0051
  981YOPC   GL214254   9.305   8.216   7.127 -0.1270  0.0740 -0.4251
  981YOPC   C1A14255   9.168   8.685   7.453 -0.1367  0.0362 -0.0087
  981YOPC   D2A14256   8.867   8.933   7.644 -0.1045  0.0000  0.1088
  981YOPC   C3A14257   8.624   9.210   7.952  0.1197  0.0311  0.0417
  981YOPC   C4A14258   8.508   9.670   7.870 -0.2995 -0.2018 -0.2141
  981YOPC   C1B14259   9.449   8.109   7.513 -0.0232 -0.3161 -0.4397
  981YOPC   C2B14260   9.534   8.377   7.790  0.0079  0.3005  0.0159
  981YOPC   D3B14261   9.738   8.490   8.226  0.1072  0.1989 -0.2751
  981YOPC   C4B14262   9.930   8.532   8.671 -0.1789 -0.0088  0.5205
  982YOPC   NC314263  11.478  13.077   5.961  0.2623 -0.1701 -0.0121
  982YOPC   PO414264  11.581  12.759   6.192  0.0721 -0.2957  0.2664
  982YOPC   GL114265  11.658  13.119   6.449 -0.1167  0.0351 -0.0822
  982YOPC   GL214266  11.312  13.259   6.595 -0.0779  0.0673 -0.1790
  982YOPC   C1A14267  11.941  13.105   6.938 -0.0425 -0.1175 -0.0825
  982YOPC   D2A14268  12.048  13.437   7.150  0.0767  0.1082  0.2555
  982YOPC   C3A14269  12.036  13.422   7.517 -0.1262  0.1322  0.0455
  982YOPC   C4A14270  12.311  13.330   7.833  0.1673  0.3445 -0.0172
  982YOPC   C1B14271  11.087  13.512   6.922  0.1521  0.1757  0.2278
  982YOPC   C2B14272  10.815  13.512   7.322 -0.0027 -0.0004 -0.1127
  982YOPC   D3B14273  11.049  13.341   7.781  0.0704 -0.1617  0.3822
  982YOPC   C4B14274  11.304  13.022   8.130 -0.2212  0.2781 -0.1686
  983YOPC   NC314275  13.424  16.870   6.452  0.1176 -0.1456  0.0047
  983YOPC   PO414276  13.543  16.494   6.615  0.0720 -0.2265 -0.1085
  983YOPC   GL114277  13.652  16.784   6.912  0.1564  0.1346  0.1816
  983YOPC   GL214278  13.849  16.925   6.929 -0.1686  0.1521 -0.0511
  983YOPC   C1A14279  13.414  16.643   7.293  0.0910  0.0834 -0.0140
  983YOPC   D2A14280  13.378  16.539   7.713  0.0627  0.1176 -0.1575
  983YOPC   C3A14281  13.169  16.618   8.119  0.2158 -0.2387 -0.1102
  983YOPC   C4A14282  13.036  16.464   8.411  0.4394 -0.1319  0.0311
  983YOPC   C1B14283  13.795  16.911   7.397  0.1752 -0.2086  0.1777
  983YOPC   C2B14284  13.581  16.944   7.892 -0.1742  0.1289  0.1373
  983YOPC   D3B14285  13.658  16.685   8.088 -0.0764  0.2751 -0.1618
  983YOPC   C4B14286  13.549  16.493   8.439  0.0406  0.0996 -0.0509
  984YOPC   NC314287  17.308   7.388   6.252  0.2005 -0.0539  0.0404
  984YOPC   PO414288  17.304   6.928   6.315 -0.0193  0.0121 -0.1840
  984YOPC   GL114289  17.478   6.990   6.647  0.2380 -0.1119 -0.1848
  984YOPC   GL214290  17.693   6.776   6.768  0.2506  0.1158 -0.1847
  984YOPC   C1A14291  17.461   7.244   6.997  0.0968 -0.0716  0.1163
  984YOPC   D2A14292  17.152   7.503   7.080  0.1501 -0.0676  0.1973
  984YOPC   C3A14293  16.977   7.831   7.413  0.2134  0.0167  0.1152
  984YOPC   C4A14294  16.624   7.900   7.572  0.0963  0.1420 -0.1419
  984YOPC   C1B14295  17.494   6.693   7.088 -0.0642 -0.0306 -0.2094
  984YOPC   C2B14296  17.492   6.608   7.423  0.1198 -0.2857  0.2073
  984YOPC   D3B14297  17.290   6.709   7.660 -0.0011  0.0548  0.5905
  984YOPC   C4B14298  17.086   6.758   8.013  0.3421  0.2303  0.1310
  985YOPC   NC314299  14.633   3.802   6.168  0.1328 -0.1889 -0.0222
  985YOPC   PO414300  14.945   4.010   6.131  0.2497  0.2982  0.3538
  985YOPC   GL114301  14.945   3.887   6.581 -0.0546 -0.1286  0.0365
  985YOPC   GL214302  14.565   3.883   6.702  0.2024  0.0829  0.2363
  985YOPC   C1A14303  15.067   3.630   6.835 -0.0521  0.2690  0.1168
  985YOPC   D2A14304  15.229   3.572   7.264 -0.1113  0.0451  0.0253
  985YOPC   C3A14305  15.061   3.644   7.737 -0.5073  0.3324  0.0566
  985YOPC   C4A14306  15.211   3.600   8.209 -0.0804  0.1917  0.0061
  985YOPC   C1B14307  14.300   3.966   6.940  0.1201  0.1681 -0.2606
  985YOPC   C2B14308  14.016   4.111   7.267  0.2324  0.0334  0.5233
  985YOPC   D3B14309  13.874   3.936   7.703  0.3905  0.0951 -0.0032
  985YOPC   C4B14310  13.869   3.944   8.122 -0.2634  0.1014  0.1786
  986YOPC   NC314311   0.955  15.420   6.340 -0.2264  0.0549  0.2792
  986YOPC   PO414312   0.697  15.775   6.113  0.0424 -0.2269 -0.0233
  986YOPC   GL114313   0.527  15.727   6.556  0.2080  0.0126 -0.2082
  986YOPC   GL214314   0.751  15.566   6.766 -0.1851 -0.1410  0.1410
  986YOPC   C1A14315   0.303  15.788   6.923 -0.1994 -0.0714 -0.1670
  986YOPC   D2A14316   0.115  15.807   7.242 -0.0156 -0.3224 -0.4708
  986YOPC   C3A14317   0.133  16.141   7.586  0.0282 -0.3488  0.0127
  986YOPC   C4A14318   0.155  16.175   8.082 -0.0544 -0.1870 -0.2271
  986YOPC   C1B14319   0.693  15.701   7.252 -0.1990 -0.3395  0.3300
  986YOPC   C2B14320   0.529  15.856   7.605 -0.0474  0.2927 -0.2080
  986YOPC   D3B14321   0.811  15.963   7.962 -0.4259  0.3333  0.0150
  986YOPC   C4B14322   0.536  15.882   8.278 -0.1419  0.1681  0.3368
  987YOPC   NC314323  16.867  12.133   6.306  0.0557 -0.2843 -0.1025
  987YOPC   PO414324  16.549  11.824   6.250 -0.2858  0.2269 -0.2087
  987YOPC   GL114325  16.556  11.729   6.702 -0.1806 -0.1524  0.2803
  987YOPC   GL214326  16.318  11.556   6.627  0.0274 -0.3137  0.0894
  987YOPC   C1A14327  16.483  11.742   7.101  0.1308  0.3703  0.4201
  987YOPC   D2A14328  16.249  11.635   7.493  0.2539  0.1636  0.1890
  987YOPC   C3A14329  16.004  11.770   7.862  0.0637 -0.0868 -0.1731
  987YOPC   C4A14330  15.744  11.961   8.112 -0.4574  0.1288 -0.1023
  987YOPC   C1B14331  16.176  11.236   6.950 -0.0943 -0.0089 -0.1887
  987YOPC   C2B14332  16.206  11.077   7.356 -0.0292  0.0088 -0.0423
  987YOPC   D3B14333  15.967  11.254   7.731  0.3368  0.2093  0.1802
  987YOPC   C4B14334  15.777  11.377   8.176  0.0487  0.0245 -0.1227
  988YOPC   NC314335   5.972   0.654   6.189  0.0865  0.3180  0.0061
  988YOPC   PO414336   5.918   0.467   6.510 -0.0069  0.1471  0.2502
  988YOPC   GL114337   5.774   0.134   6.742  0.1809  0.1859  0.1719
  988YOPC   GL214338   5.942  -0.141   6.693 -0.3363 -0.1822 -0.4142
  988YOPC   C1A14339   5.553   0.022   7.077 -0.3218 -0.0129  0.1504
  988YOPC   D2A14340   5.423   0.002   7.537 -0.1422  0.0043  0.2600
  988YOPC   C3A14341   5.128   0.000   7.930 -0.0710 -0.0831 -0.2752
  988YOPC   C4A14342   5.094   0.156   8.442 -0.2103 -0.2117  0.2224
  988YOPC   C1B14343   6.098  -0.118   7.157  0.1973  0.0174 -0.4070
  988YOPC   C2B14344   5.905   0.003   7.497 -0.3598 -0.3757 -0.0601
  988YOPC   D3B14345   5.877  -0.076   7.889  0.0551 -0.1292  0.0977
  988YOPC   C4B14346   5.683   0.060   8.127 -0.1805 -0.1845  0.1691
  989YOPC   NC314347  14.652  16.711   6.553  0.1864  0.1644 -0.0470
  989YOPC   PO414348  14.920  16.309   6.480 -0.0493 -0.0299 -0.2154
  989YOPC   GL114349  14.799  16.126   6.864 -0.0195  0.2273 -0.0304
  989YOPC   GL214350  14.498  16.168   7.050 -0.0392 -0.5354  0.1648
  989YOPC   C1A14351  14.977  16.061   7.143 -0.0814 -0.0420 -0.1113
  989YOPC   D2A14352  15.040  15.836   7.450 -0.1438  0.3257  0.0714
  989YOPC   C3A14353  15.191  16.002   7.768  0.5601 -0.1429 -0.2236
  989YOPC   C4A14354  15.313  16.005   8.171  0.0974  0.3487 -0.0568
  989YOPC   C1B14355  14.521  16.159   7.429  0.2016 -0.2977  0.1367
  989YOPC   C2B14356  14.464  16.388   7.830 -0.0141 -0.0370 -0.3521
  989YOPC   D3B14357  14.688  16.786   8.009 -0.0907 -0.0882  0.3074
  989YOPC   C4B14358  14.958  17.128   8.223 -0.0176  0.1786 -0.0589
  990YOPC   NC314359   9.868   2.349   6.389 -0.0670  0.0293 -0.0550
  990YOPC   PO414360   9.654   2.136   6.282  0.0557  0.1324  0.1809
  990YOPC   GL114361   9.607   2.097   6.712  0.0456  0.0616 -0.0870
  990YOPC   GL214362   9.578   1.768   6.707 -0.2335  0.1680 -0.0913
  990YOPC   C1A14363   9.516   2.184   7.131 -0.0384 -0.1456 -0.0110
  990YOPC   D2A14364   9.320   2.345   7.465  0.1038 -0.1373 -0.3634
  990YOPC   C3A14365   9.091   2.236   7.867  0.0284 -0.1311  0.2214
  990YOPC   C4A14366   8.747   2.434   8.047 -0.0357  0.0355  0.1791
  990YOPC   C1B14367   9.617   1.590   7.134 -0.2668 -0.0512 -0.2255
  990YOPC   C2B14368   9.527   1.444   7.513  0.1461 -0.0131 -0.0356
  990YOPC   D3B14369   9.555   1.373   7.969  0.1459 -0.0998 -0.0987
  990YOPC   C4B14370   9.520   1.286   8.288 -0.0115 -0.1449 -0.2477
  991YOPC   NC314371  15.016   1.832   6.060 -0.1727  0.1574  0.2800
  991YOPC   PO414372  14.824   2.074   5.979  0.1458 -0.1013 -0.0278
  991YOPC   GL114373  14.725   1.887   6.482  0.0742 -0.2662  0.1209
  991YOPC   GL214374  15.055   1.986   6.561  0.0756  0.1019 -0.2470
  991YOPC   C1A14375  14.737   1.511   6.861  0.0457 -0.2604  0.0884
  991YOPC   D2A14376  14.390   1.340   7.158 -0.2560  0.0643 -0.1838
  991YOPC   C3A14377  14.312   1.480   7.545  0.1044 -0.0770  0.1665
  991YOPC   C4A14378  14.264   1.525   7.978 -0.0248  0.3253  0.0382
  991YOPC   C1B14379  14.891   2.005   6.926 -0.0171 -0.1379  0.0792
  991YOPC   C2B14380  14.676   1.810   7.389  0.0302 -0.1104 -0.1568
  991YOPC   D3B14381  14.521   2.082   7.728  0.0265 -0.0904 -0.2698
  991YOPC   C4B14382  14.899   2.226   7.851 -0.0086  0.0160  0.1425
  992YOPC   NC314383   1.305   0.761   6.348 -0.2675  0.0614  0.2598
  992YOPC   PO414384   1.763   0.855   6.449  0.0417  0.1250  0.0211
  992YOPC   GL114385   1.532   0.580   6.759  0.1324 -0.3368  0.0819
  992YOPC   GL214386   1.808   0.500   6.876 -0.1019 -0.2475  0.1772
  992YOPC   C1A14387   1.430   0.488   7.215  0.2307 -0.1941 -0.2707
  992YOPC   D2A14388   1.402   0.516   7.674  0.3483  0.0358  0.3818
  992YOPC   C3A14389   1.482   0.675   8.074 -0.1093  0.1485  0.0787
  992YOPC   C4A14390   1.541   0.593   8.504 -0.1265  0.0820  0.0872
  992YOPC   C1B14391   2.326   0.726   6.914 -0.2034  0.2239  0.0794
  992YOPC   C2B14392   2.609   0.555   7.299  0.1611 -0.2287  0.0463
  992YOPC   D3B14393   2.513   0.498   7.702 -0.1124  0.2645 -0.1142
  992YOPC   C4B14394   2.490   0.489   8.070  0.2734  0.0113 -0.1085
  993YOPC   NC314395   8.445  11.075   6.194  0.3154 -0.0058 -0.0999
  993YOPC   PO414396   8.367  10.622   6.062  0.0834  0.1513 -0.2463
  993YOPC   GL114397   8.232  10.601   6.495 -0.0133 -0.0454 -0.1784
  993YOPC   GL214398   7.966  10.425   6.445  0.0313 -0.2447 -0.0742
  993YOPC   C1A14399   8.398  10.745   6.894 -0.0809 -0.0704 -0.1000
  993YOPC   D2A14400   8.559  10.852   7.294 -0.2175  0.1005  0.2159
  993YOPC   C3A14401   8.726  10.984   7.750 -0.1490 -0.0256 -0.0454
  993YOPC   C4A14402   9.110  11.021   7.903  0.0484 -0.2013 -0.2708
  993YOPC   C1B14403   7.930  10.531   6.911 -0.1233  0.2422 -0.1163
  993YOPC   C2B14404   7.901  10.692   7.331 -0.2539 -0.0516 -0.0903
  993YOPC   D3B14405   8.003  10.678   7.828  0.3280  0.0630 -0.2287
  993YOPC   C4B14406   8.269  10.774   8.141 -0.3577 -0.2158  0.0446
  994YOPC   NC314407   2.049   4.448   6.170 -0.0351  0.4259  0.2376
  994YOPC   PO414408   1.838   4.061   6.123 -0.0025 -0.1186 -0.1317
  994YOPC   GL114409   1.449   4.052   6.393 -0.1343  0.0042  0.1813
  994YOPC   GL214410   1.312   3.772   6.491  0.1312 -0.0006 -0.0907
  994YOPC   C1A14411   1.409   4.131   6.826 -0.0260 -0.0582 -0.0840
  994YOPC   D2A14412   1.151   4.043   7.200  0.3662  0.0277 -0.0602
  994YOPC   C3A14413   1.175   4.132   7.592  0.0283  0.1841  0.4003
  994YOPC   C4A14414   1.216   4.243   8.084  0.0832 -0.2760  0.1786
  994YOPC   C1B14415   1.099   3.696   6.805  0.3139 -0.0357  0.0880
  994YOPC   C2B14416   1.131   3.395   7.121  0.1413 -0.0846 -0.0395
  994YOPC   D3B14417   1.006   3.471   7.562 -0.0439 -0.0018 -0.1835
  994YOPC   C4B14418   0.962   3.708   8.016 -0.1878  0.1882  0.3192
  995YOPC   NC314419  11.712   7.251   6.223 -0.1881  0.0599  0.2719
  995YOPC   PO414420  12.182   7.437   6.190  0.2948  0.0250 -0.1743
  995YOPC   GL114421  11.933   7.381   6.626 -0.2593 -0.0723 -0.1338
  995YOPC   GL214422  11.631   7.493   6.647  0.2447 -0.0752  0.0341
  995YOPC   C1A14423  11.918   7.223   7.012 -0.3089 -0.0586 -0.1027
  995YOPC   D2A14424  11.686   7.044   7.312  0.0480 -0.0231 -0.3879
  995YOPC   C3A14425  11.738   7.236   7.688 -0.1826  0.2443  0.0708
  995YOPC   C4A14426  11.936   7.405   8.070  0.3063  0.1731  0.0339
  995YOPC   C1B14427  11.592   7.672   7.070 -0.1560  0.0508  0.1582
  995YOPC   C2B14428  11.814   8.120   7.121  0.3149 -0.3902 -0.3898
  995YOPC   D3B14429  12.130   8.184   7.331 -0.0336  0.3026  0.0874
  995YOPC   C4B14430  12.302   8.503   7.473 -0.4736  0.2887 -0.3227
  996YOPC   NC314431   8.757  11.587   5.950 -0.0300 -0.1465  0.0900
  996YOPC   PO414432   8.846  11.345   6.182 -0.1159 -0.2117  0.2693
  996YOPC   GL114433   8.859  11.313   6.534 -0.0897  0.1028 -0.1000
  996YOPC   GL214434   9.200  11.356   6.596 -0.0196  0.1012 -0.1072
  996YOPC   C1A14435   8.778  11.424   6.852 -0.0408 -0.0347 -0.0262
  996YOPC   D2A14436   8.581  11.329   7.083 -0.3193  0.4016 -0.0326
  996YOPC   C3A14437   8.560  11.356   7.427 -0.3464  0.0342 -0.0709
  996YOPC   C4A14438   8.826  11.442   7.831 -0.1830  0.1405  0.0250
  996YOPC   C1B14439   9.240  11.639   6.929  0.0114 -0.1482 -0.3214
  996YOPC   C2B14440   9.147  12.052   7.154  0.2040  0.1209 -0.0856
  996YOPC   D3B14441   9.151  12.130   7.586  0.1088 -0.1631  0.2278
  996YOPC   C4B14442   8.893  11.941   7.774 -0.2162  0.1210 -0.1635
  997YOPC   NC314443  15.421   2.841   6.264  0.0863 -0.1227  0.2129
  997YOPC   PO414444  15.651   2.537   6.321 -0.0713 -0.0226 -0.3520
  997YOPC   GL114445  15.432   2.376   6.630 -0.1296 -0.0062 -0.0990
  997YOPC   GL214446  15.179   2.441   6.496  0.3473  0.1272 -0.4397
  997YOPC   C1A14447  15.453   2.193   6.994 -0.1611 -0.1494  0.0453
  997YOPC   D2A14448  15.061   2.116   7.356 -0.0656  0.2050  0.0285
  997YOPC   C3A14449  15.267   1.911   7.666 -0.2371 -0.2100 -0.1356
  997YOPC   C4A14450  15.577   2.072   7.905 -0.0706  0.3025 -0.2017
  997YOPC   C1B14451  15.042   2.475   7.018  0.0284  0.2789 -0.0911
  997YOPC   C2B14452  14.691   2.534   7.444 -0.0326 -0.1323  0.4557
  997YOPC   D3B14453  14.657   2.683   7.905  0.4409 -0.0192 -0.1103
  997YOPC   C4B14454  14.511   2.345   8.241 -0.2340 -0.0775  0.1146
  998YOPC   NC314455   3.397  14.259   5.388  0.0133  0.4971  0.0761
  998YOPC   PO414456   3.507  14.555   5.750 -0.0653  0.3187 -0.1449
  998YOPC   GL114457   3.738  14.568   6.064 -0.0829  0.2219  0.0697
  998YOPC   GL214458   3.465  14.630   6.272  0.1516  0.0504 -0.0149
  998YOPC   C1A14459   3.914  14.644   6.530 -0.1603 -0.2745  0.2020
  998YOPC   D2A14460   4.018  14.967   6.765 -0.0226  0.0859  0.0517
  998YOPC   C3A14461   4.123  15.104   7.119 -0.3425  0.0011 -0.0003
  998YOPC   C4A14462   4.215  15.200   7.525  0.4492  0.1870  0.2969
  998YOPC   C1B14463   3.537  15.000   6.524  0.0908 -0.1369  0.1317
  998YOPC   C2B14464   3.457  15.373   6.784 -0.1958 -0.1870  0.4719
  998YOPC   D3B14465   3.518  15.768   6.588  0.0299 -0.1101  0.0014
  998YOPC   C4B14466   3.548  16.077   6.963  0.2654 -0.0621 -0.1144
  999YOPC   NC314467   1.785  14.639   6.366 -0.2337  0.0498  0.2414
  999YOPC   PO414468   2.129  14.525   6.165  0.1058 -0.1100  0.1466
  999YOPC   GL114469   2.210  14.510   6.612  0.1838 -0.2342 -0.1145
  999YOPC   GL214470   2.488  14.360   6.740  0.2505  0.2704 -0.0385
  999YOPC   C1A14471   2.195  14.812   6.946  0.2108 -0.1087  0.1719
  999YOPC   D2A14472   2.098  14.716   7.333 -0.2410 -0.2442 -0.2279
  999YOPC   C3A14473   2.357  14.509   7.565  0.3402  0.0098  0.0654
  999YOPC   C4A14474   2.352  14.144   7.932  0.1857 -0.0640  0.1126
  999YOPC   C1B14475   2.444  14.318   7.076 -0.3873  0.1727 -0.2456
  999YOPC   C2B14476   2.574  14.129   7.423 -0.1211  0.3089 -0.2200
  999YOPC   D3B14477   2.825  14.522   7.703 -0.2088  0.0755 -0.0632
  999YOPC   C4B14478   2.977  14.695   8.129 -0.3950 -0.2215 -0.1662
 1000YOPC   NC314479   0.552  12.832   6.049  0.0268  0.1297  0.0698
 1000YOPC   PO414480   0.744  12.422   6.137  0.3684 -0.1395  0.1168
 1000YOPC   GL114481   0.620  12.601   6.515 -0.3476  0.2085  0.2906
 1000YOPC   GL214482   0.607  12.981   6.598  0.0762  0.0167  0.2554
 1000YOPC   C1A14483   0.548  12.472   6.926  0.1972 -0.0841  0.0840
 1000YOPC   D2A14484   0.500  12.233   7.401 -0.0694  0.0084  0.2356
 1000YOPC   C3A14485   0.303  12.093   7.788  0.2412 -0.1086 -0.2726
 1000YOPC   C4A14486   0.166  12.196   8.137 -0.4850  0.0124 -0.0520
 1000YOPC   C1B14487   0.611  13.031   6.953  0.2685  0.1881 -0.0573
 1000YOPC   C2B14488   0.701  13.201   7.383 -0.1209  0.0397  0.1228
 1000YOPC   D3B14489   0.784  12.967   7.780 -0.0331 -0.1260 -0.1020
 1000YOPC   C4B14490   0.896  12.803   8.125  0.1162 -0.0495  0.0524
 1001YOPC   NC314491  10.563   2.961   6.445  0.0450  0.1731  0.1072
 1001YOPC   PO414492  10.924   2.626   6.519  0.1066 -0.0548 -0.0779
 1001YOPC   GL114493  10.835   2.549   6.941  0.0729  0.0277 -0.0647
 1001YOPC   GL214494  10.676   2.230   6.878  0.0294  0.2247  0.3167
 1001YOPC   C1A14495  10.663   2.561   7.315  0.1812  0.1228  0.2501
 1001YOPC   D2A14496  10.636   2.661   7.641  0.2177 -0.3402 -0.0175
 1001YOPC   C3A14497  10.949   2.820   7.932 -0.0822  0.0327  0.0141
 1001YOPC   C4A14498  11.137   2.922   8.368  0.2470 -0.0883  0.0713
 1001YOPC   C1B14499  10.393   2.111   7.261 -0.3686 -0.2401 -0.0867
 1001YOPC   C2B14500  10.438   2.077   7.662 -0.0613 -0.3155 -0.1575
 1001YOPC   D3B14501  10.224   1.909   7.962 -0.3350 -0.2626  0.0637
 1001YOPC   C4B14502  10.200   1.810   8.427  0.3516  0.1267  0.0281
 1002YOPC   NC314503  10.003   6.598   6.089 -0.0545  0.0540 -0.0898
 1002YOPC   PO414504   9.505   6.586   6.145  0.0649 -0.1095 -0.2187
 1002YOPC   GL114505   9.275   6.531   6.519 -0.0963 -0.2198 -0.0266
 1002YOPC   GL214506   8.978   6.349   6.581 -0.1007  0.0771  0.2169
 1002YOPC   C1A14507   9.307   6.355   6.960  0.2358 -0.0571  0.2832
 1002YOPC   D2A14508   9.518   6.072   7.258 -0.1795  0.0405  0.0954
 1002YOPC   C3A14509   9.724   6.060   7.693  0.0114  0.2233  0.0692
 1002YOPC   C4A14510   9.975   5.860   7.818 -0.1242  0.0901  0.0484
 1002YOPC   C1B14511   8.792   6.397   6.964 -0.1226 -0.0849  0.0392
 1002YOPC   C2B14512   8.712   6.451   7.361 -0.2798  0.1087  0.0971
 1002YOPC   D3B14513   8.377   6.577   7.691  0.0788 -0.0102  0.2033
 1002YOPC   C4B14514   8.046   6.665   7.905  0.0207  0.0189 -0.1480
 1003YOPC   NC314515   6.765   5.404   5.253  0.1533 -0.0807  0.3239
 1003YOPC   PO414516   6.861   5.168   5.641  0.1134  0.1056  0.0586
 1003YOPC   GL114517   6.694   5.146   6.040 -0.2659  0.0287  0.0963
 1003YOPC   GL214518   6.458   5.438   6.086 -0.0258 -0.0053 -0.1298
 1003YOPC   C1A14519   6.747   5.162   6.402 -0.0605 -0.0821 -0.1589
 1003YOPC   D2A14520   6.869   4.924   6.809  0.0465  0.3596 -0.2841
 1003YOPC   C3A14521   6.559   5.030   7.030 -0.1874 -0.2082 -0.0929
 1003YOPC   C4A14522   6.468   5.226   7.368  0.1876  0.2350 -0.0153
 1003YOPC   C1B14523   6.270   5.359   6.478  0.1117  0.0159  0.1283
 1003YOPC   C2B14524   5.962   5.396   6.753  0.0090  0.0340  0.3204
 1003YOPC   D3B14525   6.028   5.206   7.149 -0.2702  0.2438  0.0999
 1003YOPC   C4B14526   5.980   5.094   7.540 -0.1687 -0.0352  0.2969
 1004YOPC   NC314527   6.464  10.646   6.338 -0.0502 -0.1714  0.0831
 1004YOPC   PO414528   6.246  11.007   6.218  0.0680  0.2415 -0.2754
 1004YOPC   GL114529   6.312  11.006   6.697  0.0523 -0.1001  0.0096
 1004YOPC   GL214530   6.261  10.634   6.888  0.1961  0.2425  0.2408
 1004YOPC   C1A14531   6.472  11.024   7.103 -0.0197  0.3451  0.0210
 1004YOPC   D2A14532   6.416  11.011   7.485  0.1679 -0.0865  0.0844
 1004YOPC   C3A14533   6.113  10.964   7.833  0.3500 -0.0387 -0.1397
 1004YOPC   C4A14534   5.834  10.723   8.035 -0.0707 -0.0093 -0.1457
 1004YOPC   C1B14535   6.126  10.666   7.295  0.0124  0.0195 -0.0237
 1004YOPC   C2B14536   5.806  10.658   7.511 -0.1976  0.0252  0.1362
 1004YOPC   D3B14537   5.772  10.355   7.717 -0.2145  0.0332  0.0413
 1004YOPC   C4B14538   5.929  10.067   7.984 -0.0222 -0.1799 -0.0723
 1005YOPC   NC314539  10.865   8.665   6.290 -0.1012 -0.0837 -0.1233
 1005YOPC   PO414540  10.599   9.026   6.182 -0.1910 -0.0903 -0.0293
 1005YOPC   GL114541  10.637   9.084   6.646  0.2045  0.0145 -0.0815
 1005YOPC   GL214542  10.449   9.423   6.810 -0.2339  0.0581  0.2715
 1005YOPC   C1A14543  10.694   9.047   7.036 -0.0770 -0.1337  0.2278
 1005YOPC   D2A14544  11.023   9.081   7.382 -0.1129 -0.1944 -0.0261
 1005YOPC   C3A14545  10.969   8.650   7.497 -0.0879  0.0708 -0.2627
 1005YOPC   C4A14546  10.972   8.241   7.435  0.0795 -0.0124 -0.3807
 1005YOPC   C1B14547  10.325   9.450   7.187  0.0366 -0.0713  0.2385
 1005YOPC   C2B14548  10.565   9.272   7.448 -0.0460 -0.2027  0.0106
 1005YOPC   D3B14549  10.487   8.788   7.453  0.0141 -0.1102  0.1390
 1005YOPC   C4B14550  10.518   8.343   7.677  0.2351  0.1956  0.0347
 1006YOPC   NC314551   0.665  14.901   5.955 -0.1291 -0.0119  0.3496
 1006YOPC   PO414552   0.851  14.930   6.339  0.0207 -0.4744 -0.0145
 1006YOPC   GL114553   1.060  15.047   6.719  0.1841 -0.0929 -0.0349
 1006YOPC   GL214554   1.282  15.349   6.848  0.2772  0.0541  0.1576
 1006YOPC   C1A14555   1.188  14.908   7.170  0.3131  0.2196  0.0819
 1006YOPC   D2A14556   1.281  14.767   7.631  0.0017  0.1449  0.1675
 1006YOPC   C3A14557   1.045  15.019   8.021  0.0716 -0.0027  0.0158
 1006YOPC   C4A14558   0.706  15.042   8.340 -0.0309 -0.1657  0.0083
 1006YOPC   C1B14559   1.374  15.419   7.245 -0.2387  0.0444  0.0939
 1006YOPC   C2B14560   1.361  15.249   7.696  0.2493  0.0898 -0.0272
 1006YOPC   D3B14561   1.391  15.363   8.101 -0.0918  0.0412  0.1580
 1006YOPC   C4B14562   1.687  15.354   8.382  0.4250 -0.0382  0.2503
 1007YOPC   NC314563   1.138   1.697   6.371 -0.1851  0.1665  0.0479
 1007YOPC   PO414564   1.581   1.883   6.389  0.0603 -0.0790 -0.1444
 1007YOPC   GL114565   1.580   1.926   6.857  0.0651  0.0587 -0.1455
 1007YOPC   GL214566   1.761   1.654   6.838 -0.1579 -0.0862  0.2289
 1007YOPC   C1A14567   1.808   2.092   7.213  0.1444  0.1768 -0.2318
 1007YOPC   D2A14568   2.203   2.068   7.453 -0.0499 -0.0037 -0.0619
 1007YOPC   C3A14569   2.224   1.953   7.898 -0.2867 -0.1068  0.0327
 1007YOPC   C4A14570   2.523   2.029   8.193  0.0523 -0.0976  0.2440
 1007YOPC   C1B14571   1.572   1.681   7.300 -0.2469 -0.2234  0.2527
 1007YOPC   C2B14572   1.801   1.628   7.557  0.0450 -0.0053  0.2424
 1007YOPC   D3B14573   1.846   1.574   7.868  0.2035  0.1872 -0.0506
 1007YOPC   C4B14574   2.157   1.644   8.267  0.3131  0.1367  0.1446
 1008YOPC   NC314575   7.419   5.147   5.872 -0.1028  0.0980  0.1201
 1008YOPC   PO414576   7.217   4.791   6.119 -0.1176  0.0448 -0.2441
 1008YOPC   GL114577   7.245   4.655   6.461  0.0172  0.3137 -0.1677
 1008YOPC   GL214578   6.893   4.582   6.449  0.0620 -0.0176 -0.0136
 1008YOPC   C1A14579   7.319   4.489   6.904  0.0080 -0.1013  0.4795
 1008YOPC   D2A14580   7.260   4.411   7.346  0.0799 -0.0105  0.3758
 1008YOPC   C3A14581   7.681   4.334   7.568  0.1304 -0.2454  0.0691
 1008YOPC   C4A14582   8.045   4.108   7.728 -0.0701 -0.1002  0.2236
 1008YOPC   C1B14583   6.482   4.710   6.632  0.0372  0.0821 -0.2252
 1008YOPC   C2B14584   6.078   4.930   6.669  0.2075  0.2050 -0.0484
 1008YOPC   D3B14585   5.718   5.053   6.504  0.0749 -0.2618 -0.1358
 1008YOPC   C4B14586   5.485   5.204   6.829  0.0165 -0.0770 -0.0646
 1009YOPC   NC314587  14.896  14.835   6.246 -0.1130  0.0519 -0.0734
 1009YOPC   PO414588  14.496  14.812   6.417  0.2005  0.2228  0.0245
 1009YOPC   GL114589  14.674  14.966   6.748 -0.1406  0.0609  0.1609
 1009YOPC   GL214590  14.559  15.265   6.790  0.2199  0.2085  0.1142
 1009YOPC   C1A14591  14.639  14.785   7.159 -0.2547  0.3784 -0.1957
 1009YOPC   D2A14592  14.400  14.818   7.488  0.2864 -0.0308 -0.0850
 1009YOPC   C3A14593  14.343  14.448   7.725  0.3029 -0.3163 -0.5189
 1009YOPC   C4A14594  14.301  14.466   8.169  0.0663  0.1223 -0.0727
 1009YOPC   C1B14595  14.401  15.227   7.213 -0.1892 -0.1642 -0.0974
 1009YOPC   C2B14596  14.294  15.293   7.637  0.1000  0.2230 -0.1190
 1009YOPC   D3B14597  14.526  15.435   7.918 -0.1325 -0.2369  0.0929
 1009YOPC   C4B14598  14.751  15.274   8.281 -0.0328 -0.0024 -0.0690
 1010YOPC   NC314599   5.453   3.679   6.441 -0.2072 -0.3488 -0.1944
 1010YOPC   PO414600   5.881   4.010   6.295  0.0946  0.0655 -0.2270
 1010YOPC   GL114601   5.875   3.900   6.731 -0.2116  0.0250 -0.2428
 1010YOPC   GL214602   5.707   3.778   6.856  0.3117  0.1898  0.1816
 1010YOPC   C1A14603   6.064   3.926   7.213 -0.0825  0.0366 -0.0356
 1010YOPC   D2A14604   6.136   3.850   7.559 -0.1386  0.0361  0.1405
 1010YOPC   C3A14605   6.175   3.567   7.818  0.2064 -0.1143  0.0420
 1010YOPC   C4A14606   6.542   3.417   8.129 -0.0144 -0.3659  0.1884
 1010YOPC   C1B14607   5.580   3.872   7.228  0.4289 -0.1043  0.2458
 1010YOPC   C2B14608   5.324   4.040   7.509  0.4863 -0.0324 -0.2220
 1010YOPC   D3B14609   5.353   4.106   7.937 -0.2035 -0.1046 -0.1512
 1010YOPC   C4B14610   5.401   4.019   8.400 -0.1450 -0.1741 -0.0593
 1011YOPC   NC314611   8.654   0.033   5.561 -0.1680 -0.1073 -0.2997
 1011YOPC   PO414612   8.601   0.213   5.968  0.2139  0.3971 -0.1216
 1011YOPC   GL114613   8.466   0.353   6.428 -0.1633  0.2345  0.0997
 1011YOPC   GL214614   8.652   0.622   6.493 -0.0443 -0.1710 -0.0121
 1011YOPC   C1A14615   8.459   0.309   6.901  0.0075  0.0237 -0.0774
 1011YOPC   D2A14616   8.473   0.546   7.366  0.2446  0.0087 -0.0991
 1011YOPC   C3A14617   8.254   0.615   7.782  0.0674 -0.1476  0.0459
 1011YOPC   C4A14618   7.901   0.962   7.908 -0.2546  0.3991 -0.0613
 1011YOPC   C1B14619   8.506   0.769   6.875  0.2931  0.1221  0.0337
 1011YOPC   C2B14620   8.583   1.018   7.275  0.0462 -0.0747 -0.0122
 1011YOPC   D3B14621   8.765   0.972   7.677  0.0943 -0.0739 -0.1319
 1011YOPC   C4B14622   8.621   0.821   8.074 -0.1039 -0.0711  0.0689
 1012YOPC   NC314623   5.894   3.547   6.398 -0.0905  0.3535 -0.0669
 1012YOPC   PO414624   6.332   3.356   6.543  0.0574  0.4313  0.3465
 1012YOPC   GL114625   6.253   3.540   6.897  0.0026 -0.0402  0.0932
 1012YOPC   GL214626   5.955   3.380   6.874 -0.0781  0.1304  0.0281
 1012YOPC   C1A14627   6.469   3.541   7.302  0.1016 -0.1246 -0.0145
 1012YOPC   D2A14628   6.584   3.747   7.756  0.1818  0.0341  0.0733
 1012YOPC   C3A14629   6.318   3.858   8.181  0.0091 -0.1571 -0.0105
 1012YOPC   C4A14630   6.234   3.689   8.529 -0.3009  0.2437  0.0768
 1012YOPC   C1B14631   5.925   3.485   7.293  0.1770  0.1963 -0.1590
 1012YOPC   C2B14632   5.637   3.632   7.633  0.0749 -0.0122 -0.1889
 1012YOPC   D3B14633   5.757   3.723   8.059 -0.1734 -0.0400  0.1003
 1012YOPC   C4B14634   5.894   4.063   8.433 -0.1776 -0.1299  0.0853
 1013YOPC   NC314635  14.617  15.798   6.506 -0.2758  0.1286  0.2822
 1013YOPC   PO414636  14.818  15.333   6.350 -0.2392  0.0562  0.0817
 1013YOPC   GL114637  15.223  15.277   6.491 -0.0053 -0.3085 -0.1129
 1013YOPC   GL214638  15.386  15.468   6.709  0.1495 -0.1711  0.0371
 1013YOPC   C1A14639  15.281  14.972   6.815  0.1581  0.0479 -0.1556
 1013YOPC   D2A14640  15.136  14.741   7.116 -0.2404 -0.1082 -0.3314
 1013YOPC   C3A14641  15.139  14.348   7.233 -0.0155  0.0671  0.2664
 1013YOPC   C4A14642  15.216  13.908   7.316  0.4169 -0.0115 -0.0138
 1013YOPC   C1B14643  15.342  15.615   7.127 -0.3023  0.2193 -0.1249
 1013YOPC   C2B14644  15.479  15.616   7.601 -0.2248 -0.4186  0.2917
 1013YOPC   D3B14645  15.107  15.512   7.876  0.0058 -0.0168 -0.0030
 1013YOPC   C4B14646  14.929  15.695   8.259 -0.0647 -0.3139  0.0315
 1014YOPC   NC314647  11.679   3.119   6.331 -0.0864  0.0245 -0.1977
 1014YOPC   PO414648  11.442   2.767   6.217  0.2663 -0.1116 -0.1331
 1014YOPC   GL114649  11.438   2.764   6.661  0.0408 -0.1167 -0.4772
 1014YOPC   GL214650  11.182   2.996   6.827  0.1421  0.3934 -0.2958
 1014YOPC   C1A14651  11.369   2.539   7.052 -0.0621  0.2458  0.0029
 1014YOPC   D2A14652  11.063   2.313   7.276  0.1435  0.1094  0.1638
 1014YOPC   C3A14653  10.999   2.317   7.706  0.1586  0.0467  0.0830
 1014YOPC   C4A14654  10.758   2.362   8.042 -0.0821 -0.0648  0.0592
 1014YOPC   C1B14655  11.059   3.292   7.122 -0.0954  0.0083  0.3262
 1014YOPC   C2B14656  11.251   3.481   7.370 -0.0784  0.1067 -0.3151
 1014YOPC   D3B14657  11.298   3.226   7.717 -0.3895  0.2048  0.1637
 1014YOPC   C4B14658  11.454   2.886   7.848  0.1336 -0.1625 -0.0470
 1015YOPC   NC314659   1.308   3.813   6.006 -0.2089  0.2587 -0.0451
 1015YOPC   PO414660   0.992   3.578   5.955 -0.1055 -0.1718 -0.2339
 1015YOPC   GL114661   1.196   3.352   6.251 -0.1599  0.1231 -0.5105
 1015YOPC   GL214662   1.010   3.095   6.310 -0.1419 -0.2310  0.0935
 1015YOPC   C1A14663   1.397   3.243   6.711  0.3901 -0.1419  0.1146
 1015YOPC   D2A14664   1.481   3.076   7.133 -0.0181 -0.0911  0.0097
 1015YOPC   C3A14665   1.391   3.183   7.589 -0.1163 -0.0305 -0.0920
 1015YOPC   C4A14666   1.346   3.347   8.021  0.0824  0.0163 -0.0837
 1015YOPC   C1B14667   0.911   3.171   6.733  0.2723 -0.0290  0.0976
 1015YOPC   C2B14668   0.622   3.255   7.054 -0.1259  0.1293  0.0605
 1015YOPC   D3B14669   0.708   3.043   7.449 -0.0527  0.1535 -0.0750
 1015YOPC   C4B14670   0.769   3.025   7.885  0.1831  0.0907  0.1428
 1016YOPC   NC314671   5.902   1.436   6.362  0.3596 -0.1812  0.1171
 1016YOPC   PO414672   6.072   1.042   6.486 -0.2859  0.2450 -0.2260
 1016YOPC   GL114673   5.992   1.272   6.894 -0.1827  0.0898  0.0419
 1016YOPC   GL214674   5.979   1.669   6.886 -0.2485 -0.3171  0.2028
 1016YOPC   C1A14675   6.102   1.398   7.272 -0.1688 -0.1751  0.0139
 1016YOPC   D2A14676   5.935   1.670   7.671 -0.0439  0.0054 -0.0130
 1016YOPC   C3A14677   6.182   1.481   7.954 -0.1040 -0.1421  0.0984
 1016YOPC   C4A14678   6.148   1.382   8.320  0.1519 -0.0888  0.3816
 1016YOPC   C1B14679   5.825   1.893   7.211 -0.0366 -0.0268  0.2647
 1016YOPC   C2B14680   5.621   2.157   7.468  0.1926  0.0705  0.2446
 1016YOPC   D3B14681   5.805   2.328   7.882 -0.0518  0.1476  0.1694
 1016YOPC   C4B14682   6.000   2.344   8.279  0.0909 -0.3854 -0.0743
 1017YOPC   NC314683   3.960  10.065   5.430  0.0428  0.2704 -0.0960
 1017YOPC   PO414684   4.073  10.223   5.854  0.1755 -0.0633 -0.1726
 1017YOPC   GL114685   4.156  10.013   6.141 -0.0307  0.2123 -0.2268
 1017YOPC   GL214686   4.077  10.088   6.476  0.3354 -0.1941  0.1218
 1017YOPC   C1A14687   4.427   9.769   6.421 -0.0126 -0.0225  0.0368
 1017YOPC   D2A14688   4.495   9.766   6.853  0.0534 -0.0266 -0.0817
 1017YOPC   C3A14689   4.833   9.831   7.227 -0.0964 -0.4829  0.0038
 1017YOPC   C4A14690   5.248  10.056   7.097 -0.0140 -0.0305 -0.1741
 1017YOPC   C1B14691   4.030  10.156   6.891  0.1059 -0.0317  0.1461
 1017YOPC   C2B14692   3.987   9.884   7.270  0.1861  0.0693 -0.0579
 1017YOPC   D3B14693   4.055   9.977   7.618  0.1699 -0.1070 -0.2674
 1017YOPC   C4B14694   4.316  10.177   7.921 -0.1647  0.1281 -0.0409
 1018YOPC   NC314695   9.984   0.761   5.912 -0.2604 -0.0082  0.1575
 1018YOPC   PO414696  10.293   0.568   6.123 -0.0428  0.1540 -0.0786
 1018YOPC   GL114697  10.127   0.364   6.399  0.2632  0.0202  0.2252
 1018YOPC   GL214698  10.096   0.020   6.418  0.1621 -0.0269  0.1384
 1018YOPC   C1A14699   9.711   0.441   6.574 -0.2055  0.1449  0.0435
 1018YOPC   D2A14700   9.474   0.655   6.836 -0.1898 -0.0200 -0.1327
 1018YOPC   C3A14701   9.420   0.548   7.219  0.0434  0.1261  0.0585
 1018YOPC   C4A14702   9.744   0.367   7.567 -0.2246 -0.1750 -0.1896
 1018YOPC   C1B14703   9.717  -0.134   6.706 -0.1888 -0.0500 -0.0260
 1018YOPC   C2B14704   9.329  -0.266   6.819  0.1147  0.0248 -0.3894
 1018YOPC   D3B14705   9.300  -0.247   7.279 -0.1106  0.3080 -0.3016
 1018YOPC   C4B14706   9.302   0.115   7.463 -0.0091  0.1467  0.0464
 1019YOPC   NC314707  14.653   5.764   5.554  0.2132 -0.1627 -0.2135
 1019YOPC   PO414708  14.379   5.870   5.921  0.2165  0.0650 -0.0634
 1019YOPC   GL114709  14.397   5.960   6.349 -0.0494 -0.1103 -0.0466
 1019YOPC   GL214710  14.072   6.125   6.440 -0.0933  0.0139 -0.3919
 1019YOPC   C1A14711  14.408   6.057   6.822  0.4177 -0.1470 -0.0121
 1019YOPC   D2A14712  14.506   6.249   7.236  0.0151 -0.1140 -0.0812
 1019YOPC   C3A14713  14.353   6.319   7.593  0.5182 -0.3432  0.0171
 1019YOPC   C4A14714  14.019   6.392   7.954  0.0954 -0.1616  0.2863
 1019YOPC   C1B14715  14.129   6.533   6.762  0.0403  0.0445 -0.0882
 1019YOPC   C2B14716  14.301   6.693   7.174 -0.0147  0.1960 -0.0463
 1019YOPC   D3B14717  14.353   6.812   7.640 -0.0513  0.0184 -0.3400
 1019YOPC   C4B14718  14.143   6.857   8.023  0.1995 -0.1883  0.1706
 1020YOPC   NC314719   4.464  12.807   5.802 -0.1304 -0.1002 -0.0461
 1020YOPC   PO414720   4.406  13.119   6.167  0.2957  0.0857  0.2000
 1020YOPC   GL114721   4.278  12.861   6.526 -0.4657  0.0799  0.0160
 1020YOPC   GL214722   4.084  12.453   6.547 -0.1828 -0.1206  0.1163
 1020YOPC   C1A14723   4.344  13.058   6.941  0.0671 -0.0403  0.0597
 1020YOPC   D2A14724   4.228  12.826   7.272  0.0682 -0.1691 -0.0794
 1020YOPC   C3A14725   4.254  12.962   7.658 -0.1033  0.0023  0.2081
 1020YOPC   C4A14726   4.308  12.754   8.038  0.2349 -0.1436  0.2440
 1020YOPC   C1B14727   3.940  12.776   6.862  0.1472  0.2258  0.1501
 1020YOPC   C2B14728   3.778  12.986   7.115  0.1987  0.0064  0.0410
 1020YOPC   D3B14729   3.822  13.140   7.598  0.0258  0.2554 -0.2557
 1020YOPC   C4B14730   3.981  13.160   8.056  0.0083 -0.1338 -0.0327
 1021YOPC   NC314731  16.007  11.017   6.010  0.0951  0.0069 -0.0657
 1021YOPC   PO414732  15.867  11.014   6.307  0.1558  0.1315 -0.1461
 1021YOPC   GL114733  15.601  10.904   6.520 -0.2308 -0.0744  0.0954
 1021YOPC   GL214734  15.614  10.584   6.582  0.1647  0.0510  0.0709
 1021YOPC   C1A14735  15.383  10.919   6.923  0.1028 -0.0819 -0.2391
 1021YOPC   D2A14736  15.255  11.019   7.352  0.1517  0.0149  0.0986
 1021YOPC   C3A14737  15.506  11.080   7.710 -0.2561 -0.3675 -0.0776
 1021YOPC   C4A14738  15.383  11.115   8.163 -0.1136  0.0562  0.1902
 1021YOPC   C1B14739  15.505  10.469   7.017 -0.1561  0.0766  0.0187
 1021YOPC   C2B14740  15.495  10.569   7.402 -0.0838 -0.4371 -0.0588
 1021YOPC   D3B14741  15.616  10.363   7.769  0.0755 -0.0648  0.0871
 1021YOPC   C4B14742  15.816  10.238   8.199 -0.1427 -0.2221  0.1184
 1022YOPC   NC314743   8.148   2.297   6.094  0.0212 -0.2512  0.1439
 1022YOPC   PO414744   7.689   2.418   5.914 -0.0629  0.3057  0.3272
 1022YOPC   GL114745   7.753   2.062   6.287  0.0528 -0.1757  0.1110
 1022YOPC   GL214746   7.414   2.124   6.337 -0.1097  0.0015 -0.4163
 1022YOPC   C1A14747   7.790   1.721   6.638  0.0982 -0.2885  0.2266
 1022YOPC   D2A14748   7.864   1.861   7.067 -0.0345 -0.2248 -0.1674
 1022YOPC   C3A14749   7.976   2.261   7.229  0.0659 -0.0761  0.0548
 1022YOPC   C4A14750   8.168   2.666   7.320 -0.1677 -0.2087  0.1441
 1022YOPC   C1B14751   7.286   1.774   6.667 -0.2090 -0.1565  0.2565
 1022YOPC   C2B14752   7.277   1.659   7.078  0.2679  0.0212  0.0389
 1022YOPC   D3B14753   7.425   1.873   7.401  0.1964 -0.1168  0.0253
 1022YOPC   C4B14754   7.664   2.173   7.571  0.1628  0.0375 -0.1460
 1023YOPC   NC314755  13.934   5.703   6.203  0.0844 -0.0608 -0.1005
 1023YOPC   PO414756  13.573   6.068   6.268 -0.0771 -0.2552  0.1703
 1023YOPC   GL114757  13.400   5.994   6.673 -0.1788 -0.0432  0.3056
 1023YOPC   GL214758  13.156   6.201   6.729 -0.0940  0.1719  0.0051
 1023YOPC   C1A14759  13.400   5.913   7.111 -0.0496  0.5182  0.1184
 1023YOPC   D2A14760  13.448   5.786   7.622  0.3746 -0.2719 -0.1510
 1023YOPC   C3A14761  13.218   6.005   8.011  0.1410  0.2530 -0.0629
 1023YOPC   C4A14762  12.977   5.821   8.301 -0.0512  0.2910  0.2956
 1023YOPC   C1B14763  12.957   6.238   7.073 -0.0800  0.1428 -0.0545
 1023YOPC   C2B14764  12.588   6.085   7.207 -0.2164  0.1001  0.3929
 1023YOPC   D3B14765  12.239   6.302   7.196 -0.1230 -0.5273  0.3879
 1023YOPC   C4B14766  12.065   6.292   7.553  0.3401 -0.0428  0.1732
 1024YOPC   NC314767   7.304  14.617   6.305  0.2410  0.2506  0.0264
 1024YOPC   PO414768   6.956  14.352   6.450 -0.2439 -0.0375 -0.3829
 1024YOPC   GL114769   6.977  14.415   6.819  0.0224  0.2856  0.1959
 1024YOPC   GL214770   6.666  14.580   6.836 -0.2289 -0.0445 -0.1730
 1024YOPC   C1A14771   6.966  14.270   7.300 -0.1126 -0.0594  0.3003
 1024YOPC   D2A14772   7.083  14.023   7.706 -0.1061 -0.0616 -0.0582
 1024YOPC   C3A14773   7.447  13.985   7.799  0.2791 -0.0953 -0.2899
 1024YOPC   C4A14774   7.644  13.668   7.939  0.2453  0.3687 -0.1484
 1024YOPC   C1B14775   6.677  14.728   7.226 -0.0814  0.1868  0.0036
 1024YOPC   C2B14776   6.704  14.617   7.582  0.1246  0.1561  0.0728
 1024YOPC   D3B14777   6.359  14.680   7.874  0.0001 -0.1464  0.0799
 1024YOPC   C4B14778   5.963  14.642   8.149 -0.2183  0.0803 -0.3020
 1025YOPC   NC314779  15.151   7.857   5.669 -0.0999  0.0815 -0.3579
 1025YOPC   PO414780  15.414   8.044   5.929  0.1778 -0.2907 -0.2304
 1025YOPC   GL114781  15.337   8.078   6.279 -0.0363  0.0726 -0.3026
 1025YOPC   GL214782  14.984   8.243   6.426 -0.2162 -0.0404 -0.0434
 1025YOPC   C1A14783  15.220   7.942   6.742  0.2113  0.1164 -0.0169
 1025YOPC   D2A14784  15.236   7.636   7.045 -0.0424  0.3228  0.0947
 1025YOPC   C3A14785  15.287   7.284   6.910  0.1402 -0.3294  0.3328
 1025YOPC   C4A14786  15.503   7.090   6.559 -0.0463  0.0147 -0.1183
 1025YOPC   C1B14787  14.822   8.251   6.852 -0.0650  0.1470 -0.3187
 1025YOPC   C2B14788  14.862   7.969   7.218  0.0546 -0.0233  0.1318
 1025YOPC   D3B14789  14.940   8.037   7.555 -0.0559  0.1063  0.2231
 1025YOPC   C4B14790  14.643   8.022   7.872 -0.0967  0.1581 -0.2534
 1026YOPC   NC314791   1.336   6.124   5.880 -0.4112 -0.1431  0.1721
 1026YOPC   PO414792   1.167   5.752   5.762  0.1055  0.1484 -0.0502
 1026YOPC   GL114793   1.309   5.853   6.328  0.3309  0.0676 -0.1598
 1026YOPC   GL214794   1.608   6.032   6.431  0.0804 -0.0092 -0.2476
 1026YOPC   C1A14795   1.353   5.698   6.730 -0.2012  0.2491  0.0085
 1026YOPC   D2A14796   1.332   5.651   7.135  0.0655 -0.0776  0.1746
 1026YOPC   C3A14797   1.105   5.904   7.560  0.0769 -0.0423  0.0462
 1026YOPC   C4A14798   1.313   6.110   7.850 -0.1042 -0.0940 -0.0033
 1026YOPC   C1B14799   1.766   6.113   6.808 -0.1518 -0.2556 -0.1223
 1026YOPC   C2B14800   1.780   5.984   7.302  0.0444  0.1371 -0.1058
 1026YOPC   D3B14801   1.780   6.164   7.801 -0.4197 -0.1035  0.2703
 1026YOPC   C4B14802   1.984   6.095   8.200  0.0071 -0.1610 -0.0622
 1027YOPC   NC314803   6.918   0.959   5.950 -0.0396 -0.0999 -0.0793
 1027YOPC   PO414804   7.315   0.768   6.068  0.2640 -0.1534 -0.0995
 1027YOPC   GL114805   7.329   0.541   6.433  0.3283  0.2864  0.3002
 1027YOPC   GL214806   7.600   0.676   6.500  0.2018  0.0036 -0.2981
 1027YOPC   C1A14807   7.282   0.397   6.824  0.1595  0.1723  0.1379
 1027YOPC   D2A14808   7.577   0.322   7.026  0.2524 -0.0917  0.0530
 1027YOPC   C3A14809   7.681   0.103   7.473  0.0149  0.0625 -0.4209
 1027YOPC   C4A14810   7.636  -0.143   7.760 -0.2875  0.4423  0.2116
 1027YOPC   C1B14811   7.683   0.791   6.945  0.0141  0.2528  0.1461
 1027YOPC   C2B14812   7.637   0.893   7.354  0.0158  0.0023  0.1005
 1027YOPC   D3B14813   7.767   0.588   7.547  0.0989 -0.0257  0.0715
 1027YOPC   C4B14814   7.934   0.258   7.945  0.2405 -0.3459  0.0717
 1028YOPC   NC314815   3.266  11.602   6.258  0.0389  0.0407 -0.1672
 1028YOPC   PO414816   3.149  11.231   6.390 -0.0228 -0.3092 -0.0934
 1028YOPC   GL114817   3.317  11.434   6.779 -0.3028 -0.2393 -0.0121
 1028YOPC   GL214818   3.270  11.754   6.804  0.2388 -0.2019  0.1746
 1028YOPC   C1A14819   3.232  11.299   7.156 -0.2239  0.1730 -0.0458
 1028YOPC   D2A14820   3.596  11.093   7.445  0.3556 -0.1174 -0.2117
 1028YOPC   C3A14821   3.557  11.376   7.760 -0.0081  0.1106 -0.1965
 1028YOPC   C4A14822   3.801  11.613   8.050 -0.1418  0.0683  0.1303
 1028YOPC   C1B14823   3.484  11.836   7.234  0.0562 -0.0023  0.0532
 1028YOPC   C2B14824   3.808  11.737   7.494  0.3519  0.3100 -0.1266
 1028YOPC   D3B14825   4.007  12.073   7.537 -0.1037 -0.1183 -0.3003
 1028YOPC   C4B14826   4.162  12.274   7.936 -0.0477  0.0722 -0.1593
 1029YOPC   NC314827   8.311   1.089   5.878 -0.0943 -0.1150 -0.0025
 1029YOPC   PO414828   8.420   0.836   6.122  0.1831  0.1045  0.0085
 1029YOPC   GL114829   8.162   0.854   6.482  0.1253  0.3769  0.0406
 1029YOPC   GL214830   8.076   0.563   6.613 -0.0091  0.1628 -0.0206
 1029YOPC   C1A14831   8.068   1.085   6.857 -0.3070 -0.1582 -0.1604
 1029YOPC   D2A14832   8.208   1.393   7.231 -0.0567 -0.1481 -0.2587
 1029YOPC   C3A14833   7.945   1.574   7.457  0.0187 -0.2332 -0.1901
 1029YOPC   C4A14834   7.691   1.646   7.808  0.1843 -0.3093  0.0933
 1029YOPC   C1B14835   8.101   0.582   7.055 -0.0843 -0.0383 -0.1128
 1029YOPC   C2B14836   8.107   0.934   7.333  0.0999  0.0841 -0.2908
 1029YOPC   D3B14837   8.288   1.080   7.643  0.0910  0.2587 -0.3153
 1029YOPC   C4B14838   8.166   1.406   7.846  0.1546  0.2646  0.1414
 1030YOPC   NC314839  12.510   2.794   5.855 -0.1361  0.0508  0.1239
 1030YOPC   PO414840  12.632   3.197   6.018 -0.0304  0.1880  0.1788
 1030YOPC   GL114841  12.789   3.277   6.473  0.3070  0.2039  0.3476
 1030YOPC   GL214842  12.526   3.155   6.634 -0.0004 -0.1172  0.3957
 1030YOPC   C1A14843  12.706   3.610   6.658 -0.1665 -0.1758  0.1234
 1030YOPC   D2A14844  12.596   4.092   6.700 -0.1676  0.0348  0.3172
 1030YOPC   C3A14845  12.600   4.155   7.119  0.0916  0.1730  0.2065
 1030YOPC   C4A14846  12.503   3.986   7.525  0.2454  0.0105  0.0866
 1030YOPC   C1B14847  12.565   3.396   7.104  0.0347 -0.0991  0.2309
 1030YOPC   C2B14848  12.595   3.451   7.428  0.0671 -0.1736 -0.0223
 1030YOPC   D3B14849  12.828   3.207   7.699 -0.2109  0.0278 -0.0229
 1030YOPC   C4B14850  13.246   3.028   7.785  0.0804  0.0960  0.1918
 1031YOPC   NC314851   1.881  14.170   6.450 -0.3416  0.3007 -0.0698
 1031YOPC   PO414852   1.440  14.249   6.550  0.1197  0.1457  0.0691
 1031YOPC   GL114853   1.298  14.252   6.952  0.1973  0.0708  0.1623
 1031YOPC   GL214854   1.496  13.985   6.993 -0.1671  0.1138  0.0219
 1031YOPC   C1A14855   1.008  14.395   7.337  0.0012 -0.0398 -0.1537
 1031YOPC   D2A14856   0.893  14.329   7.642  0.0172 -0.3715 -0.0436
 1031YOPC   C3A14857   0.871  14.546   8.021 -0.1763 -0.0805 -0.1265
 1031YOPC   C4A14858   0.681  14.499   8.488 -0.1545  0.1307 -0.1816
 1031YOPC   C1B14859   1.480  13.946   7.384 -0.1004 -0.1650 -0.1134
 1031YOPC   C2B14860   1.511  13.876   7.777  0.1643  0.1862  0.1260
 1031YOPC   D3B14861   1.853  14.172   8.035 -0.2817 -0.2153  0.0677
 1031YOPC   C4B14862   1.777  14.341   8.378  0.1575 -0.1181 -0.0559
 1032YOPC   NC314863   2.350   5.877   6.080 -0.0323 -0.0590  0.1290
 1032YOPC   PO414864   1.880   6.038   6.029 -0.0078  0.1218  0.0654
 1032YOPC   GL114865   2.158   6.168   6.413 -0.1165 -0.3901 -0.1302
 1032YOPC   GL214866   2.164   5.882   6.569  0.0705 -0.1001 -0.3437
 1032YOPC   C1A14867   2.116   6.422   6.725  0.2711  0.1175 -0.2524
 1032YOPC   D2A14868   2.120   6.282   7.081 -0.1286 -0.0619  0.1889
 1032YOPC   C3A14869   1.905   6.565   7.441 -0.1914 -0.0857  0.3841
 1032YOPC   C4A14870   1.984   6.618   7.819 -0.3139 -0.0687 -0.2910
 1032YOPC   C1B14871   2.287   5.844   7.031 -0.0606 -0.1459 -0.2613
 1032YOPC   C2B14872   2.553   6.162   7.268 -0.1511 -0.1208  0.2064
 1032YOPC   D3B14873   2.926   6.077   7.604  0.1464  0.0311  0.1759
 1032YOPC   C4B14874   2.898   5.643   7.737 -0.0773 -0.0466 -0.2388
 1033YOPC   NC314875   7.796   8.941   5.619  0.2064  0.0312  0.0748
 1033YOPC   PO414876   8.020   9.092   5.997 -0.0023  0.1262  0.0301
 1033YOPC   GL114877   7.841   8.801   6.260 -0.1741 -0.0586 -0.0295
 1033YOPC   GL214878   7.835   9.056   6.518  0.0571 -0.2209  0.1254
 1033YOPC   C1A14879   7.454   8.649   6.535 -0.3131 -0.3773  0.0320
 1033YOPC   D2A14880   7.176   8.332   6.636  0.0979  0.1707  0.3060
 1033YOPC   C3A14881   7.402   7.888   6.826  0.4576 -0.0108  0.1046
 1033YOPC   C4A14882   7.458   7.767   7.283 -0.1114 -0.0346  0.0901
 1033YOPC   C1B14883   7.885   9.333   6.816 -0.2796 -0.2314 -0.0224
 1033YOPC   C2B14884   8.091   9.311   7.183 -0.0770 -0.0959 -0.0118
 1033YOPC   D3B14885   8.590   9.404   7.383 -0.2315  0.0762 -0.0804
 1033YOPC   C4B14886   8.929   9.532   7.617  0.1639  0.0173 -0.1761
 1034YOPC   NC314887  15.992   7.913   5.920  0.0165 -0.1199  0.0054
 1034YOPC   PO414888  15.835   8.327   6.194 -0.1516  0.1011  0.1264
 1034YOPC   GL114889  15.788   8.016   6.439 -0.3891 -0.0571  0.0262
 1034YOPC   GL214890  15.660   8.124   6.682 -0.1793 -0.0103 -0.1875
 1034YOPC   C1A14891  16.045   7.831   6.729 -0.2522 -0.2122 -0.1699
 1034YOPC   D2A14892  16.299   7.661   7.045 -0.0476 -0.3197  0.1083
 1034YOPC   C3A14893  16.202   7.401   7.373 -0.3368 -0.0146 -0.0040
 1034YOPC   C4A14894  15.782   7.481   7.657  0.0962  0.0096  0.1217
 1034YOPC   C1B14895  15.637   7.956   7.023 -0.0559  0.2348 -0.0697
 1034YOPC   C2B14896  15.752   7.584   7.201 -0.3715  0.2563 -0.0846
 1034YOPC   D3B14897  15.430   7.267   7.398 -0.2625 -0.1739 -0.1652
 1034YOPC   C4B14898  15.091   7.475   7.669  0.1326  0.1926 -0.2161
 1035YOPC   NC314899   6.273   1.992   6.491  0.3043  0.1272  0.2197
 1035YOPC   PO414900   6.362   1.490   6.656  0.1393 -0.1542  0.2594
 1035YOPC   GL114901   6.428   1.658   7.003 -0.4659 -0.2842 -0.3074
 1035YOPC   GL214902   6.714   1.642   7.177  0.2748 -0.1651 -0.0665
 1035YOPC   C1A14903   6.400   2.062   7.250  0.3277  0.1553 -0.0295
 1035YOPC   D2A14904   6.534   2.483   7.262 -0.1059 -0.0717  0.0059
 1035YOPC   C3A14905   6.712   2.644   7.548 -0.3256  0.0192  0.0469
 1035YOPC   C4A14906   6.664   2.908   7.886 -0.1165  0.0830  0.1356
 1035YOPC   C1B14907   6.497   1.510   7.525 -0.0632 -0.1984  0.1358
 1035YOPC   C2B14908   6.673   1.224   7.915 -0.0773  0.1954  0.0026
 1035YOPC   D3B14909   7.141   1.387   8.054  0.1276 -0.3951  0.0391
 1035YOPC   C4B14910   7.507   1.145   8.242 -0.1588 -0.0676  0.0519
 1036YOPC   NC314911   6.819   3.684   5.995  0.0317 -0.0139  0.1293
 1036YOPC   PO414912   6.627   4.125   5.966  0.0979 -0.1189 -0.2917
 1036YOPC   GL114913   6.526   4.198   6.423  0.1825 -0.1906 -0.1852
 1036YOPC   GL214914   6.329   4.008   6.610 -0.0218  0.0970  0.0011
 1036YOPC   C1A14915   6.799   4.357   6.857  0.0163  0.3327 -0.1353
 1036YOPC   D2A14916   6.794   4.579   7.207  0.3386 -0.2536  0.1742
 1036YOPC   C3A14917   6.803   4.471   7.613  0.2586  0.1204 -0.0238
 1036YOPC   C4A14918   6.892   4.487   8.065 -0.0647 -0.0609 -0.2761
 1036YOPC   C1B14919   6.556   3.935   6.981 -0.0677 -0.2775 -0.1475
 1036YOPC   C2B14920   6.634   4.064   7.362  0.0869 -0.1322  0.1366
 1036YOPC   D3B14921   6.428   4.207   7.786  0.3378  0.1522 -0.1433
 1036YOPC   C4B14922   6.251   4.456   8.100 -0.0989 -0.0332 -0.2551
 1037YOPC   NC314923   3.809  12.243   6.192 -0.2949  0.1053 -0.0792
 1037YOPC   PO414924   3.454  12.054   6.367  0.0038 -0.1533 -0.2611
 1037YOPC   GL114925   3.430  12.242   6.768  0.2022 -0.1785 -0.0940
 1037YOPC   GL214926   3.206  12.482   6.615 -0.5676 -0.0687  0.1082
 1037YOPC   C1A14927   3.558  12.295   7.162 -0.0071  0.2301 -0.1029
 1037YOPC   D2A14928   3.824  12.530   7.371 -0.2995 -0.1752 -0.1313
 1037YOPC   C3A14929   3.796  12.654   7.850  0.0915  0.0387 -0.1372
 1037YOPC   C4A14930   3.503  13.004   7.981  0.3690 -0.0808  0.1248
 1037YOPC   C1B14931   3.344  12.717   7.013 -0.1737  0.0052  0.1077
 1037YOPC   C2B14932   3.433  12.805   7.490 -0.1981 -0.1812 -0.0144
 1037YOPC   D3B14933   3.355  12.533   7.720 -0.2110  0.3343  0.1968
 1037YOPC   C4B14934   3.219  12.356   8.117 -0.2965  0.2785  0.3256
 1038YOPC   NC314935  10.140   9.108   5.557 -0.2468  0.0995  0.0764
 1038YOPC   PO414936  10.089   8.848   5.992  0.1035 -0.1148 -0.0479
 1038YOPC   GL114937  10.273   8.682   6.411  0.3903 -0.3113 -0.1044
 1038YOPC   GL214938  10.421   8.500   6.463  0.3709  0.1625 -0.2081
 1038YOPC   C1A14939  10.260   8.899   6.785  0.1284  0.0885  0.3861
 1038YOPC   D2A14940  10.063   9.025   7.123 -0.1121  0.0208 -0.2102
 1038YOPC   C3A14941  10.106   9.168   7.492  0.0596  0.2213 -0.1644
 1038YOPC   C4A14942  10.253   9.200   7.885 -0.3448 -0.4208 -0.3228
 1038YOPC   C1B14943  10.441   8.491   6.969 -0.1300  0.2682 -0.1874
 1038YOPC   C2B14944  10.464   8.325   7.209 -0.1053  0.1893  0.1062
 1038YOPC   D3B14945  10.239   7.976   7.353 -0.1399 -0.0613 -0.2589
 1038YOPC   C4B14946   9.884   7.798   7.379 -0.1983  0.0532  0.3403
 1039YOPC   NC314947   9.338   2.450   5.870 -0.2055  0.3547  0.1255
 1039YOPC   PO414948   8.969   2.381   6.059 -0.2648 -0.1197 -0.0809
 1039YOPC   GL114949   8.829   2.292   6.411  0.1738  0.4948 -0.1573
 1039YOPC   GL214950   8.553   2.538   6.308  0.1501 -0.2736  0.0525
 1039YOPC   C1A14951   8.467   2.021   6.573  0.1443 -0.0092 -0.1022
 1039YOPC   D2A14952   8.299   1.731   6.904  0.1388  0.3194  0.4133
 1039YOPC   C3A14953   8.291   1.882   7.404  0.2544 -0.0112 -0.2563
 1039YOPC   C4A14954   8.341   1.887   7.802 -0.1707  0.2717  0.3342
 1039YOPC   C1B14955   8.539   2.497   6.757 -0.1153  0.1525  0.1668
 1039YOPC   C2B14956   8.444   2.291   7.028  0.1275  0.1348 -0.1286
 1039YOPC   D3B14957   8.793   2.070   6.955 -0.4409 -0.2512 -0.0755
 1039YOPC   C4B14958   9.138   2.056   6.669  0.2690 -0.0786 -0.1034
 1040YOPC   NC314959  16.264  16.206   5.769  0.1126 -0.5055  0.1534
 1040YOPC   PO414960  16.565  16.437   5.974 -0.1229 -0.0276 -0.2447
 1040YOPC   GL114961  16.671  16.466   6.340  0.0625 -0.0521  0.1857
 1040YOPC   GL214962  16.679  16.762   6.490 -0.1849 -0.0893 -0.1075
 1040YOPC   C1A14963  17.082  16.496   6.654 -0.1189  0.0151  0.2555
 1040YOPC   D2A14964  17.341  16.588   7.006 -0.1723 -0.1198 -0.3078
 1040YOPC   C3A14965  17.142  16.774   7.346 -0.2879 -0.2251  0.0530
 1040YOPC   C4A14966  17.085  16.807   7.818  0.0181  0.0196  0.3518
 1040YOPC   C1B14967  16.730  16.643   6.967 -0.1821 -0.2053 -0.0515
 1040YOPC   C2B14968  16.535  16.702   7.388 -0.1232 -0.0111  0.0057
 1040YOPC   D3B14969  16.591  16.670   7.766  0.3171  0.1635  0.0817
 1040YOPC   C4B14970  16.816  16.581   8.130  0.1017 -0.2562  0.0409
 1041YOPC   NC314971   7.658  17.084   5.521  0.1792 -0.1714  0.0317
 1041YOPC   PO414972   7.521  17.007   5.983 -0.5837 -0.4876  0.4242
 1041YOPC   GL114973   7.598  16.899   6.447  0.0286  0.2298 -0.2765
 1041YOPC   GL214974   7.726  17.030   6.633 -0.0027  0.0546  0.2957
 1041YOPC   C1A14975   7.485  16.637   6.842  0.4240  0.2067  0.2986
 1041YOPC   D2A14976   7.488  16.899   7.270  0.0427  0.0942 -0.4934
 1041YOPC   C3A14977   7.080  16.895   7.589 -0.0512  0.3026  0.2628
 1041YOPC   C4A14978   7.049  16.716   7.897 -0.1002  0.5225 -0.0300
 1041YOPC   C1B14979   7.933  17.068   6.938 -0.0562 -0.1082  0.2508
 1041YOPC   C2B14980   8.010  17.097   7.360 -0.1562  0.3708  0.0249
 1041YOPC   D3B14981   8.204  16.818   7.816  0.4701 -0.2137  0.1378
 1041YOPC   C4B14982   8.388  16.623   8.228 -0.2371 -0.2357  0.1104
 1042YOPC   NC314983   0.013   2.413   5.707 -0.0558  0.1452 -0.1972
 1042YOPC   PO414984  -0.248   2.260   6.165  0.1124 -0.0126 -0.0068
 1042YOPC   GL114985  -0.081   2.217   6.576  0.1803  0.1712 -0.1110
 1042YOPC   GL214986   0.130   2.092   6.728  0.1339 -0.0286 -0.1156
 1042YOPC   C1A14987  -0.274   2.140   7.024  0.0229  0.1951 -0.0897
 1042YOPC   D2A14988  -0.118   2.228   7.455 -0.2416  0.0446  0.1762
 1042YOPC   C3A14989  -0.372   2.139   7.839 -0.2601 -0.1690 -0.1708
 1042YOPC   C4A14990  -0.519   1.842   8.105 -0.0602 -0.3181 -0.0406
 1042YOPC   C1B14991   0.316   2.228   7.101  0.1899 -0.1014 -0.1563
 1042YOPC   C2B14992   0.370   2.134   7.497 -0.0161  0.0323  0.6048
 1042YOPC   D3B14993   0.206   2.390   7.856 -0.1043 -0.0305 -0.1159
 1042YOPC   C4B14994   0.220   2.570   8.276  0.2412  0.0339 -0.1627
 1043YOPC   NC314995   1.207  13.510   6.086 -0.1778  0.0457 -0.1793
 1043YOPC   PO414996   0.809  13.305   6.128 -0.2275 -0.0895  0.1789
 1043YOPC   GL114997   0.917  13.530   6.565  0.0887 -0.2544  0.2834
 1043YOPC   GL214998   1.209  13.709   6.635 -0.0291 -0.1723 -0.0343
 1043YOPC   C1A14999   0.838  13.483   6.908 -0.3141  0.1921 -0.0691
 1043YOPC   D2A15000   0.581  13.628   7.320  0.0277 -0.4525 -0.0157
 1043YOPC   C3A15001   0.319  13.430   7.638 -0.1107  0.0286  0.1175
 1043YOPC   C4A15002   0.038  13.450   7.954  0.1721 -0.0905  0.1070
 1043YOPC   C1B15003   1.357  13.510   6.986  0.1229 -0.1409 -0.1448
 1043YOPC   C2B15004   1.173  13.458   7.318  0.0565  0.0887 -0.0640
 1043YOPC   D3B15005   1.175  13.316   7.725 -0.1793  0.1556  0.0824
 1043YOPC   C4B15006   1.229  13.537   8.137  0.0142 -0.0280 -0.1529
 1044YOPC   NC315007   5.409   4.274   6.153  0.0574 -0.1772  0.3199
 1044YOPC   PO415008   5.127   4.117   6.518  0.3348 -0.0309  0.2178
 1044YOPC   GL115009   5.085   4.374   6.839  0.0335  0.1422 -0.3123
 1044YOPC   GL215010   4.750   4.535   6.936  0.2074  0.3258 -0.1904
 1044YOPC   C1A15011   5.198   4.473   7.247 -0.1024 -0.1961 -0.0435
 1044YOPC   D2A15012   5.466   4.563   7.676 -0.1241 -0.1168  0.0618
 1044YOPC   C3A15013   5.915   4.661   7.703 -0.0507  0.3028 -0.2088
 1044YOPC   C4A15014   6.073   4.902   8.209 -0.0434 -0.1006  0.0246
 1044YOPC   C1B15015   4.717   4.650   7.301 -0.2507  0.0883  0.1211
 1044YOPC   C2B15016   4.571   4.833   7.660  0.0758 -0.0817 -0.1057
 1044YOPC   D3B15017   4.207   4.796   7.962  0.0242 -0.1382 -0.0445
 1044YOPC   C4B15018   3.830   4.471   7.965  0.1152 -0.2265 -0.0516
 1045YOPC   NC315019  11.218  10.065   5.983  0.5479 -0.0113  0.0517
 1045YOPC   PO415020  10.865  10.026   6.307  0.0601  0.3181  0.0057
 1045YOPC   GL115021  11.040  10.280   6.553  0.2223  0.0362  0.0874
 1045YOPC   GL215022  11.205  10.443   6.542  0.0358  0.0761 -0.1489
 1045YOPC   C1A15023  10.921  10.314   6.944 -0.2150  0.2115 -0.1341
 1045YOPC   D2A15024  10.985  10.536   7.336  0.0591 -0.1751  0.1373
 1045YOPC   C3A15025  10.763  10.530   7.784  0.0069 -0.1734  0.1440
 1045YOPC   C4A15026  10.710  10.546   8.284  0.0507  0.0534 -0.1907
 1045YOPC   C1B15027  11.419  10.353   6.958  0.0411  0.2073  0.0299
 1045YOPC   C2B15028  11.833  10.139   7.073  0.1688 -0.0377  0.0186
 1045YOPC   D3B15029  11.922  10.068   7.459  0.0087  0.3510 -0.0816
 1045YOPC   C4B15030  12.003   9.629   7.708 -0.0361 -0.2643  0.2388
 1046YOPC   NC315031   7.048   7.102   5.509  0.0716 -0.0288  0.0034
 1046YOPC   PO415032   6.973   7.089   5.981  0.0395 -0.0417  0.0486
 1046YOPC   GL115033   6.841   6.910   6.260  0.1629  0.1178 -0.2404
 1046YOPC   GL215034   6.779   7.150   6.409 -0.0297  0.1423 -0.1578
 1046YOPC   C1A15035   6.851   6.509   6.628  0.1454  0.3791 -0.3288
 1046YOPC   D2A15036   6.835   6.041   6.850 -0.1598 -0.3903  0.0996
 1046YOPC   C3A15037   6.778   6.091   7.303  0.0264  0.1954 -0.0248
 1046YOPC   C4A15038   6.716   5.651   7.499 -0.0519  0.0075  0.0680
 1046YOPC   C1B15039   6.825   7.000   6.765 -0.1815  0.1626 -0.0933
 1046YOPC   C2B15040   6.993   6.818   7.154 -0.3964  0.3490  0.6196
 1046YOPC   D3B15041   7.326   6.761   6.919  0.2363  0.0823  0.0111
 1046YOPC   C4B15042   7.650   6.695   6.627  0.0732  0.1994  0.2194
 1047YOPC   NC315043   4.022  14.847   5.722  0.3333 -0.0248 -0.0193
 1047YOPC   PO415044   4.321  15.003   5.944 -0.0819 -0.4303  0.1349
 1047YOPC   GL115045   4.414  14.974   6.423 -0.0382 -0.1208 -0.2215
 1047YOPC   GL215046   4.477  14.709   6.604  0.2393  0.1360 -0.0858
 1047YOPC   C1A15047   4.488  15.253   6.706 -0.0380 -0.2827 -0.0272
 1047YOPC   D2A15048   4.466  15.504   6.952  0.2136 -0.2409 -0.1891
 1047YOPC   C3A15049   4.580  15.390   7.271 -0.1618 -0.0332 -0.1678
 1047YOPC   C4A15050   4.776  15.399   7.661 -0.3150  0.0560 -0.0427
 1047YOPC   C1B15051   4.569  14.909   7.057 -0.1025  0.1656 -0.0976
 1047YOPC   C2B15052   4.614  14.873   7.506  0.3545 -0.1813  0.1992
 1047YOPC   D3B15053   4.184  14.716   7.698 -0.1087 -0.1475  0.2577
 1047YOPC   C4B15054   3.835  14.706   8.051  0.1102 -0.1596 -0.3549
 1048YOPC   NC315055  11.997  15.269   6.353  0.0345  0.0525 -0.0897
 1048YOPC   PO415056  11.518  15.390   6.483 -0.1615 -0.2437  0.0339
 1048YOPC   GL115057  11.429  15.662   6.770 -0.2763  0.2958  0.0249
 1048YOPC   GL215058  11.664  15.617   7.006  0.0061  0.1318  0.0406
 1048YOPC   C1A15059  11.437  16.065   7.039  0.1034 -0.0056  0.2066
 1048YOPC   D2A15060  11.454  16.323   7.381 -0.1165  0.0761 -0.1349
 1048YOPC   C3A15061  11.223  16.406   7.715 -0.1301  0.1676 -0.0925
 1048YOPC   C4A15062  11.321  16.614   7.977 -0.0082  0.1507  0.1247
 1048YOPC   C1B15063  11.396  15.674   7.367  0.1063  0.0457 -0.2815
 1048YOPC   C2B15064  11.208  15.433   7.636 -0.1149 -0.0530 -0.0448
 1048YOPC   D3B15065  11.017  15.535   8.064  0.1729 -0.1596 -0.3396
 1048YOPC   C4B15066  11.000  15.520   8.478 -0.1486 -0.0924 -0.1707
 1049YOPC   NC315067   7.149   0.210   6.023 -0.1273 -0.1351  0.0846
 1049YOPC   PO415068   6.813  -0.078   6.209 -0.2550 -0.2086  0.1457
 1049YOPC   GL115069   6.691  -0.208   6.545  0.1614 -0.1067  0.0710
 1049YOPC   GL215070   6.604  -0.005   6.798  0.1611  0.0780  0.1575
 1049YOPC   C1A15071   6.719  -0.585   6.744  0.2787  0.0210 -0.0758
 1049YOPC   D2A15072   6.852  -0.991   6.842 -0.0352  0.0206  0.0546
 1049YOPC   C3A15073   7.083  -1.155   7.187  0.2847 -0.0136  0.0462
 1049YOPC   C4A15074   7.385  -1.368   7.541  0.0747  0.0082  0.2359
 1049YOPC   C1B15075   6.584  -0.266   7.153 -0.1369  0.0867  0.0664
 1049YOPC   C2B15076   6.757  -0.378   7.589  0.0749 -0.0406  0.0505
 1049YOPC   D3B15077   6.641  -0.705   7.797  0.1049 -0.0164 -0.0542
 1049YOPC   C4B15078   6.570  -1.140   7.718 -0.0782 -0.1445  0.0737
 1050YOPC   NC315079  16.289  15.144   5.537 -0.1114 -0.0327  0.2017
 1050YOPC   PO415080  16.186  15.089   5.930 -0.0061  0.4234 -0.1658
 1050YOPC   GL115081  16.074  14.997   6.318  0.1615  0.1125  0.0513
 1050YOPC   GL215082  16.202  15.238   6.522  0.2502 -0.1022 -0.4302
 1050YOPC   C1A15083  15.949  14.774   6.705 -0.0245  0.1007  0.0502
 1050YOPC   D2A15084  16.179  14.695   7.131  0.0701 -0.0961  0.0924
 1050YOPC   C3A15085  16.022  14.471   7.572  0.1354  0.0723  0.3521
 1050YOPC   C4A15086  15.977  14.109   7.761  0.0218 -0.1474 -0.2026
 1050YOPC   C1B15087  16.088  15.204   6.987 -0.2829  0.0703  0.1545
 1050YOPC   C2B15088  16.198  15.079   7.444  0.0050  0.2107  0.0555
 1050YOPC   D3B15089  15.880  14.848   7.855 -0.1919 -0.3275  0.0074
 1050YOPC   C4B15090  15.597  14.849   8.256  0.0773 -0.1193  0.0238
 1051YOPC   NC315091   0.180  15.815   6.133  0.3121 -0.3738 -0.0882
 1051YOPC   PO415092   0.056  15.522   6.410  0.1008 -0.1169  0.0021
 1051YOPC   GL115093   0.192  15.214   6.659 -0.2700 -0.0732 -0.1944
 1051YOPC   GL215094   0.556  15.034   6.712  0.1445 -0.1686 -0.1214
 1051YOPC   C1A15095   0.243  15.315   7.079 -0.0488 -0.0115  0.0807
 1051YOPC   D2A15096   0.276  15.409   7.480  0.0624  0.0459  0.1463
 1051YOPC   C3A15097   0.085  15.701   7.824  0.1141  0.3171  0.1126
 1051YOPC   C4A15098   0.023  15.702   8.261  0.5055 -0.1027  0.1222
 1051YOPC   C1B15099   0.723  15.166   7.092  0.0756  0.0567 -0.0591
 1051YOPC   C2B15100   0.935  15.281   7.416  0.1122  0.2089 -0.0377
 1051YOPC   D3B15101   0.865  15.451   7.731 -0.0249 -0.1257 -0.0457
 1051YOPC   C4B15102   0.882  15.497   8.192 -0.2638  0.1407  0.1253
 1052YOPC   NC315103  17.188  10.263   5.778 -0.0065 -0.0299 -0.1346
 1052YOPC   PO415104  17.159  10.456   6.226  0.1361 -0.3335  0.2216
 1052YOPC   GL115105  17.100  10.482   6.667 -0.5534 -0.1667  0.0069
 1052YOPC   GL215106  16.783  10.516   6.861 -0.1999  0.2333  0.0000
 1052YOPC   C1A15107  17.236  10.322   6.945 -0.0802 -0.1625 -0.0120
 1052YOPC   D2A15108  17.749  10.289   6.958  0.0913  0.2926 -0.1355
 1052YOPC   C3A15109  17.957  10.473   7.137  0.2017  0.0846  0.0296
 1052YOPC   C4A15110  18.144  10.803   6.998 -0.2241 -0.2056  0.3463
 1052YOPC   C1B15111  16.523  10.779   7.088 -0.2718  0.1444 -0.3021
 1052YOPC   C2B15112  16.361  10.601   7.409 -0.0350  0.1466  0.0234
 1052YOPC   D3B15113  16.355  10.887   7.755  0.3461 -0.1205  0.1313
 1052YOPC   C4B15114  16.182  10.995   8.193  0.1411  0.0718 -0.1748
 1053YOPC   NC315115   5.320   5.113   6.166  0.5889  0.1758  0.2486
 1053YOPC   PO415116   5.261   4.732   5.968 -0.1656  0.1895 -0.0117
 1053YOPC   GL115117   5.119   4.779   6.463 -0.3105 -0.0823  0.0681
 1053YOPC   GL215118   5.375   4.651   6.517  0.3896  0.2395  0.1272
 1053YOPC   C1A15119   5.093   4.884   6.835  0.2584  0.0037  0.0696
 1053YOPC   D2A15120   5.025   5.064   7.265  0.0757  0.3381 -0.2025
 1053YOPC   C3A15121   5.082   4.974   7.741 -0.0815 -0.0390  0.2957
 1053YOPC   C4A15122   5.485   5.071   7.881 -0.0771 -0.4152  0.0400
 1053YOPC   C1B15123   5.543   4.625   6.863  0.0732  0.0867  0.2160
 1053YOPC   C2B15124   5.574   4.298   6.954  0.5175 -0.1457  0.0323
 1053YOPC   D3B15125   5.793   4.351   7.343 -0.2450  0.3177  0.1950
 1053YOPC   C4B15126   5.824   4.143   7.748 -0.1421  0.0894 -0.2082
 1054YOPC   NC315127   1.113   4.854   6.217  0.1405 -0.0382  0.0063
 1054YOPC   PO415128   0.711   5.038   6.249 -0.1925 -0.0118  0.0824
 1054YOPC   GL115129   0.798   5.122   6.585 -0.0250  0.1017  0.0661
 1054YOPC   GL215130   0.681   4.855   6.780 -0.2528  0.2381  0.0044
 1054YOPC   C1A15131   0.506   5.352   6.889  0.0295 -0.1591 -0.0943
 1054YOPC   D2A15132   0.239   5.072   7.151  0.0212 -0.2140 -0.2128
 1054YOPC   C3A15133  -0.161   5.288   7.225  0.0001 -0.1694  0.0286
 1054YOPC   C4A15134  -0.569   5.319   7.076 -0.2691 -0.1584  0.0390
 1054YOPC   C1B15135   0.798   4.890   7.243 -0.1248 -0.0508  0.1024
 1054YOPC   C2B15136   0.838   4.993   7.677 -0.5033  0.0242 -0.0537
 1054YOPC   D3B15137   0.943   5.458   7.828 -0.2635  0.2045 -0.2988
 1054YOPC   C4B15138   1.247   5.657   8.026  0.2068  0.1551 -0.2277
 1055YOPC   NC315139  15.053   0.624   6.289  0.0577  0.0282  0.0909
 1055YOPC   PO415140  15.163   0.268   6.551 -0.0549  0.0722 -0.1328
 1055YOPC   GL115141  15.219   0.336   6.908 -0.1053  0.1273 -0.2133
 1055YOPC   GL215142  15.016   0.542   7.098 -0.3252  0.0003  0.1064
 1055YOPC   C1A15143  15.433   0.204   7.410  0.1664 -0.0844  0.0833
 1055YOPC   D2A15144  15.692   0.377   7.756  0.0001 -0.0104 -0.1802
 1055YOPC   C3A15145  15.905   0.101   7.879 -0.1079 -0.1959  0.1509
 1055YOPC   C4A15146  16.267  -0.155   8.054  0.0162 -0.3789 -0.1615
 1055YOPC   C1B15147  15.002   0.459   7.525  0.0010 -0.2009  0.0937
 1055YOPC   C2B15148  15.071   0.257   7.913 -0.1453  0.1009 -0.0660
 1055YOPC   D3B15149  15.469   0.029   8.094 -0.0428  0.0077  0.1800
 1055YOPC   C4B15150  15.829  -0.110   8.454 -0.0058  0.1675  0.1953
 1056YOPC   NC315151   4.825  13.323   6.342 -0.0025 -0.1012  0.0858
 1056YOPC   PO415152   5.217  13.057   6.388 -0.0604  0.2196  0.0000
 1056YOPC   GL115153   5.154  13.332   6.768 -0.2366 -0.0875  0.0660
 1056YOPC   GL215154   5.512  13.389   6.708  0.0317  0.1100 -0.2391
 1056YOPC   C1A15155   5.104  13.612   7.157 -0.2912  0.0239  0.1389
 1056YOPC   D2A15156   4.881  13.740   7.471 -0.1187 -0.1139  0.1475
 1056YOPC   C3A15157   4.644  14.021   7.252 -0.3863  0.1521 -0.0284
 1056YOPC   C4A15158   4.631  14.173   6.852 -0.0373  0.0435 -0.1110
 1056YOPC   C1B15159   5.397  13.217   7.176 -0.0152  0.2501  0.2238
 1056YOPC   C2B15160   5.348  13.481   7.534 -0.0838 -0.2489  0.1820
 1056YOPC   D3B15161   5.122  13.342   7.927  0.0658 -0.0580 -0.2933
 1056YOPC   C4B15162   5.230  13.316   8.435 -0.3963 -0.2127  0.0803
 1057YOPC   NC315163   3.271  14.081   5.854 -0.1312 -0.2059 -0.1728
 1057YOPC   PO415164   3.137  13.910   6.219  0.0332  0.0602  0.2416
 1057YOPC   GL115165   3.155  14.227   6.471 -0.0162 -0.2215 -0.0337
 1057YOPC   GL215166   3.057  14.498   6.500  0.2438 -0.2910 -0.1871
 1057YOPC   C1A15167   3.592  14.342   6.762  0.2102 -0.0830 -0.2001
 1057YOPC   D2A15168   3.745  14.578   7.168  0.1178 -0.0435  0.2348
 1057YOPC   C3A15169   3.721  14.456   7.545  0.1948 -0.0369 -0.0019
 1057YOPC   C4A15170   3.314  14.394   7.776 -0.0140  0.3186  0.0455
 1057YOPC   C1B15171   3.293  14.736   6.827 -0.1978  0.2384 -0.2904
 1057YOPC   C2B15172   3.269  14.995   7.016  0.0570  0.2698  0.1056
 1057YOPC   D3B15173   3.597  15.072   7.182  0.1776 -0.0329  0.1750
 1057YOPC   C4B15174   3.760  15.066   7.599  0.2871  0.0524 -0.2130
 1058YOPC   NC315175   9.625   8.904   6.295  0.2574 -0.0778  0.0225
 1058YOPC   PO415176   9.658   9.297   6.564 -0.0956 -0.4363  0.0192
 1058YOPC   GL115177   9.483   9.325   6.961 -0.0542  0.1363 -0.2820
 1058YOPC   GL215178   9.305   9.494   7.094 -0.0490 -0.4727  0.0322
 1058YOPC   C1A15179   9.604   8.947   7.199 -0.0293  0.1181  0.0464
 1058YOPC   D2A15180   9.631   8.900   7.642 -0.0816  0.0264 -0.1876
 1058YOPC   C3A15181   9.747   9.098   7.959 -0.1176 -0.2516  0.4281
 1058YOPC   C4A15182   9.563   9.436   8.215 -0.1508 -0.0222 -0.1384
 1058YOPC   C1B15183   9.384   9.292   7.526 -0.1708 -0.1555  0.1064
 1058YOPC   C2B15184   9.182   9.273   7.913  0.0931  0.0016 -0.1868
 1058YOPC   D3B15185   8.981   9.595   8.151 -0.4831 -0.1745  0.0131
 1058YOPC   C4B15186   8.664   9.928   8.232 -0.1783 -0.1171  0.4040
 1059YOPC   NC315187   2.181   3.635   6.137  0.0878  0.0024  0.1338
 1059YOPC   PO415188   2.321   4.090   6.371 -0.1583  0.3312 -0.2709
 1059YOPC   GL115189   2.414   4.341   6.683  0.1740 -0.0470 -0.2044
 1059YOPC   GL215190   2.700   4.405   6.972  0.2233  0.1890 -0.0089
 1059YOPC   C1A15191   2.254   4.399   7.132  0.2366 -0.2192  0.1458
 1059YOPC   D2A15192   2.054   4.430   7.522 -0.0650 -0.0466  0.2111
 1059YOPC   C3A15193   2.280   4.454   7.883 -0.3939  0.1039  0.1630
 1059YOPC   C4A15194   2.234   4.286   8.247  0.0625  0.0072  0.2551
 1059YOPC   C1B15195   2.582   4.491   7.485 -0.0225 -0.0967  0.2562
 1059YOPC   C2B15196   2.777   4.362   7.909 -0.0533  0.1957  0.0111
 1059YOPC   D3B15197   2.807   4.267   8.369  0.2090 -0.0697 -0.2284
 1059YOPC   C4B15198   2.518   4.219   8.651 -0.0720  0.0399 -0.4415
 1060YOPC   NC315199  12.990  17.454   6.012  0.1703 -0.2078  0.0676
 1060YOPC   PO415200  12.604  17.691   6.006  0.3324 -0.1945  0.2210
 1060YOPC   GL115201  12.650  17.520   6.463 -0.0286  0.0287 -0.0281
 1060YOPC   GL215202  12.947  17.334   6.598 -0.1565 -0.1391 -0.1561
 1060YOPC   C1A15203  12.468  17.568   6.908  0.4237  0.0184  0.0033
 1060YOPC   D2A15204  12.663  17.725   7.232 -0.0829 -0.1441 -0.1224
 1060YOPC   C3A15205  12.489  18.013   7.474 -0.0226  0.1411  0.0369
 1060YOPC   C4A15206  12.175  18.072   7.770  0.1835 -0.0442  0.4452
 1060YOPC   C1B15207  12.920  17.345   7.045  0.1995  0.2206 -0.1895
 1060YOPC   C2B15208  12.802  17.264   7.419 -0.3049 -0.0754 -0.4503
 1060YOPC   D3B15209  12.793  17.486   7.654 -0.1700 -0.1591 -0.3267
 1060YOPC   C4B15210  12.913  17.737   7.954 -0.2927 -0.0575 -0.0151
 1061YOPC   NC315211   7.724   2.860   5.584  0.0923 -0.1681 -0.1143
 1061YOPC   PO415212   8.029   2.772   5.993 -0.2693 -0.1850 -0.0547
 1061YOPC   GL115213   8.177   2.908   6.466  0.1169 -0.0970  0.2730
 1061YOPC   GL215214   8.206   3.341   6.629 -0.2471  0.0742  0.0435
 1061YOPC   C1A15215   8.091   2.673   6.817 -0.2550 -0.4177  0.1726
 1061YOPC   D2A15216   8.021   2.202   6.731  0.2398 -0.1515 -0.1565
 1061YOPC   C3A15217   7.677   2.326   6.830  0.3702  0.1166  0.1075
 1061YOPC   C4A15218   7.344   2.188   6.960 -0.3383  0.0130 -0.3270
 1061YOPC   C1B15219   8.407   3.564   6.919  0.2307 -0.2392  0.1214
 1061YOPC   C2B15220   8.498   3.429   7.270 -0.0549 -0.0780 -0.0325
 1061YOPC   D3B15221   8.840   3.524   7.455 -0.2095 -0.1095  0.2549
 1061YOPC   C4B15222   9.181   3.714   7.617 -0.4830 -0.1325 -0.3359
 1062YOPC   NC315223   9.215   7.749   6.024  0.0958  0.6149  0.2180
 1062YOPC   PO415224   8.980   7.715   6.305 -0.1034  0.2181  0.0554
 1062YOPC   GL115225   8.820   7.795   6.669 -0.2709  0.0637  0.1065
 1062YOPC   GL215226   8.910   8.156   6.767  0.0738 -0.0803  0.2594
 1062YOPC   C1A15227   8.919   7.798   7.134 -0.1115  0.0597 -0.1255
 1062YOPC   D2A15228   8.929   8.011   7.557 -0.1136 -0.1187 -0.0434
 1062YOPC   C3A15229   8.786   8.049   7.964  0.0467  0.0995  0.0185
 1062YOPC   C4A15230   8.938   7.813   8.448 -0.1424 -0.1287 -0.1319
 1062YOPC   C1B15231   8.839   8.345   7.154 -0.2249  0.0004 -0.0125
 1062YOPC   C2B15232   8.749   8.482   7.568 -0.1412 -0.5022 -0.1850
 1062YOPC   D3B15233   9.071   8.451   7.878  0.3458  0.1944  0.1479
 1062YOPC   C4B15234   9.363   8.766   8.040  0.2319 -0.0956  0.1172
 1063YOPC   NC315235   5.979  15.802   5.983  0.1575  0.1481  0.0631
 1063YOPC   PO415236   5.778  15.422   6.243 -0.1884  0.1669  0.0171
 1063YOPC   GL115237   5.778  15.537   6.629  0.0659  0.2467  0.0143
 1063YOPC   GL215238   5.437  15.571   6.708  0.0201  0.0145 -0.3128
 1063YOPC   C1A15239   5.926  15.722   6.963 -0.2116  0.0565  0.0919
 1063YOPC   D2A15240   5.847  15.688   7.396 -0.0502 -0.1525  0.2974
 1063YOPC   C3A15241   5.562  15.501   7.746 -0.5067 -0.2967  0.1614
 1063YOPC   C4A15242   5.302  15.460   8.133  0.1207 -0.3798  0.0945
 1063YOPC   C1B15243   5.440  15.458   7.098 -0.0202 -0.0626 -0.4511
 1063YOPC   C2B15244   5.684  15.135   7.463  0.0139  0.2532  0.1979
 1063YOPC   D3B15245   5.537  14.932   7.897  0.2407 -0.1875  0.0044
 1063YOPC   C4B15246   5.260  14.784   8.261 -0.0876  0.1123  0.2409
 1064YOPC   NC315247   5.091   9.907   6.015  0.0935 -0.1823 -0.4682
 1064YOPC   PO415248   5.253  10.268   6.273  0.1102  0.4645  0.0699
 1064YOPC   GL115249   5.048  10.324   6.626  0.0735 -0.0261  0.1122
 1064YOPC   GL215250   5.043  10.666   6.575 -0.0640  0.1787 -0.0432
 1064YOPC   C1A15251   4.699  10.182   6.830  0.1308 -0.0737  0.0064
 1064YOPC   D2A15252   4.449  10.148   7.219  0.3726 -0.0916  0.0909
 1064YOPC   C3A15253   4.282  10.445   7.500 -0.0547  0.0490  0.2917
 1064YOPC   C4A15254   3.964  10.811   7.695  0.1068 -0.3093 -0.1423
 1064YOPC   C1B15255   5.113  10.632   7.006  0.0265 -0.1188 -0.0078
 1064YOPC   C2B15256   5.325  10.604   7.377  0.2105  0.1428  0.2972
 1064YOPC   D3B15257   5.262  10.172   7.608 -0.0768  0.1894  0.2113
 1064YOPC   C4B15258   5.270   9.762   7.516 -0.0211 -0.1895  0.1791
 1065YOPC   NC315259   3.754   8.894   5.630 -0.1077 -0.3281  0.2955
 1065YOPC   PO415260   3.790   9.273   5.914 -0.3135 -0.1553  0.0355
 1065YOPC   GL115261   3.841   9.181   6.335  0.1098  0.2125 -0.2501
 1065YOPC   GL215262   3.924   9.541   6.337 -0.1883  0.1321 -0.1739
 1065YOPC   C1A15263   3.890   9.108   6.757  0.0018  0.2019 -0.0821
 1065YOPC   D2A15264   3.831   8.974   7.106 -0.1513  0.0269  0.3105
 1065YOPC   C3A15265   3.897   9.112   7.477  0.3024  0.0792 -0.0162
 1065YOPC   C4A15266   3.955   9.511   7.673  0.1448  0.4841 -0.0462
 1065YOPC   C1B15267   4.008   9.634   6.787 -0.0144  0.0575 -0.0078
 1065YOPC   C2B15268   4.147   9.368   7.180  0.1143 -0.0917 -0.0605
 1065YOPC   D3B15269   4.417   9.639   7.403 -0.2611  0.2510  0.0562
 1065YOPC   C4B15270   4.631   9.860   7.691 -0.2575 -0.0815 -0.1000
 1066YOPC   NC315271  16.142   9.661   6.154 -0.1082  0.0372 -0.2633
 1066YOPC   PO415272  16.394  10.089   6.240  0.1744 -0.0889 -0.3130
 1066YOPC   GL115273  16.596  10.015   6.626  0.4416  0.1058  0.3691
 1066YOPC   GL215274  16.447   9.863   6.765 -0.0347  0.0136 -0.2419
 1066YOPC   C1A15275  16.876  10.007   6.943  0.2347  0.3674 -0.0026
 1066YOPC   D2A15276  17.339   9.874   7.078 -0.3003  0.1999 -0.0856
 1066YOPC   C3A15277  17.433   9.717   7.476  0.1041 -0.1026 -0.0496
 1066YOPC   C4A15278  17.289   9.768   7.935 -0.1093 -0.0989  0.3463
 1066YOPC   C1B15279  16.470   9.587   7.116 -0.0818 -0.1018 -0.0952
 1066YOPC   C2B15280  16.451   9.199   7.374  0.0921 -0.0445 -0.0095
 1066YOPC   D3B15281  16.242   9.060   7.797 -0.1340  0.1042 -0.0417
 1066YOPC   C4B15282  16.377   8.615   8.006 -0.1045  0.1728 -0.0188
 1067YOPC   NC315283  15.011  13.249   5.594  0.3691 -0.0360 -0.3923
 1067YOPC   PO415284  15.399  13.278   6.035  0.0650 -0.0716  0.1002
 1067YOPC   GL115285  15.236  13.020   6.428  0.1388  0.3098 -0.1774
 1067YOPC   GL215286  15.435  13.024   6.706 -0.0125  0.0298  0.0026
 1067YOPC   C1A15287  14.977  12.807   6.741  0.2482  0.2717  0.0766
 1067YOPC   D2A15288  14.864  12.433   6.972  0.2283 -0.0040  0.1637
 1067YOPC   C3A15289  14.931  12.050   7.100  0.1479  0.2407 -0.0672
 1067YOPC   C4A15290  14.618  11.622   7.161  0.0335 -0.0426 -0.1646
 1067YOPC   C1B15291  15.313  13.083   7.093  0.1450  0.1646  0.0656
 1067YOPC   C2B15292  14.963  12.849   7.286  0.2285 -0.2225 -0.2935
 1067YOPC   D3B15293  14.688  12.545   7.442 -0.2357  0.1006 -0.1186
 1067YOPC   C4B15294  14.484  12.189   7.530  0.0067 -0.1113  0.0096
 1068YOPC   NC315295   8.832   1.916   6.031  0.0259 -0.0600  0.2247
 1068YOPC   PO415296   8.508   1.535   5.834  0.4239 -0.2250  0.0511
 1068YOPC   GL115297   8.610   1.480   6.250  0.0750 -0.1518 -0.1669
 1068YOPC   GL215298   8.455   1.220   6.374  0.1710  0.0794 -0.2734
 1068YOPC   C1A15299   8.802   1.629   6.647  0.0298  0.0075  0.0538
 1068YOPC   D2A15300   9.186   1.656   6.909 -0.1608 -0.0028 -0.1848
 1068YOPC   C3A15301   9.152   1.827   7.332 -0.0378 -0.2375 -0.3582
 1068YOPC   C4A15302   8.790   1.895   7.528  0.2044 -0.3239  0.2117
 1068YOPC   C1B15303   8.536   1.300   6.821 -0.0682  0.0833 -0.0852
 1068YOPC   C2B15304   8.685   1.560   7.100  0.2681  0.1908 -0.1505
 1068YOPC   D3B15305   8.547   1.453   7.554  0.0024 -0.0873  0.0060
 1068YOPC   C4B15306   8.668   1.467   7.966 -0.3791  0.2544 -0.1672
 1069YOPC   NC315307  16.056  12.003   6.412  0.3083  0.0599  0.0496
 1069YOPC   PO415308  15.964  12.423   6.362 -0.3538 -0.1162 -0.3138
 1069YOPC   GL115309  16.037  12.344   6.799 -0.3816  0.0861 -0.0410
 1069YOPC   GL215310  16.122  12.032   6.895 -0.1938 -0.0070  0.0180
 1069YOPC   C1A15311  15.878  12.335   7.207 -0.0673 -0.0552  0.0683
 1069YOPC   D2A15312  15.807  12.283   7.677  0.0477 -0.0461 -0.0487
 1069YOPC   C3A15313  15.488  12.519   7.835 -0.1577 -0.1207 -0.1779
 1069YOPC   C4A15314  15.119  12.679   7.739 -0.1037  0.0601  0.2431
 1069YOPC   C1B15315  15.552  11.899   6.909  0.0033  0.0748 -0.2110
 1069YOPC   C2B15316  15.315  11.789   7.271 -0.0466 -0.1508 -0.0514
 1069YOPC   D3B15317  15.508  11.822   7.663 -0.3087  0.1459  0.0485
 1069YOPC   C4B15318  15.377  11.614   7.956 -0.4080 -0.0927 -0.1993
 1070YOPC   NC315319   1.619  15.362   5.928 -0.4449 -0.0582  0.0192
 1070YOPC   PO415320   1.307  15.592   6.045 -0.3666  0.1758  0.0552
 1070YOPC   GL115321   1.456  15.570   6.450  0.3914  0.0784  0.1217
 1070YOPC   GL215322   1.140  15.821   6.609  0.0253 -0.1696  0.3317
 1070YOPC   C1A15323   1.527  15.751   6.839  0.1873  0.0477  0.0011
 1070YOPC   D2A15324   1.556  15.872   7.281  0.1492 -0.0070  0.3132
 1070YOPC   C3A15325   1.727  15.545   7.634  0.3307 -0.1932 -0.2758
 1070YOPC   C4A15326   1.803  15.214   7.912 -0.0358 -0.3944 -0.1490
 1070YOPC   C1B15327   1.077  15.916   7.038 -0.2835  0.0021 -0.1455
 1070YOPC   C2B15328   1.051  15.971   7.474 -0.0308 -0.0540 -0.0304
 1070YOPC   D3B15329   1.304  15.816   7.801  0.2895  0.0797 -0.2207
 1070YOPC   C4B15330   1.275  15.801   8.265  0.1861  0.2162 -0.1037
 1071YOPC   NC315331   1.520   7.135   5.916 -0.0822  0.2966 -0.2213
 1071YOPC   PO415332   1.487   7.395   6.230  0.2132 -0.1805  0.2966
 1071YOPC   GL115333   1.334   7.316   6.615 -0.1802  0.2167 -0.0389
 1071YOPC   GL215334   1.383   7.061   6.851 -0.4708 -0.0611  0.3297
 1071YOPC   C1A15335   1.367   7.523   7.051  0.0446 -0.1357  0.1872
 1071YOPC   D2A15336   1.445   7.548   7.436 -0.2102 -0.0304 -0.3116
 1071YOPC   C3A15337   1.516   8.003   7.572  0.0548 -0.0121 -0.1321
 1071YOPC   C4A15338   1.797   8.338   7.308  0.1695  0.1615  0.1155
 1071YOPC   C1B15339   1.071   7.135   7.023 -0.2282  0.0457  0.1245
 1071YOPC   C2B15340   0.831   6.905   7.347 -0.0135  0.0526  0.3326
 1071YOPC   D3B15341   0.961   6.960   7.736  0.0494  0.1556 -0.1768
 1071YOPC   C4B15342   1.286   7.267   7.908 -0.1277 -0.1160 -0.1931
 1072YOPC   NC315343   2.562   8.459   5.426 -0.2708  0.0480  0.0917
 1072YOPC   PO415344   2.709   8.582   5.865 -0.1551  0.0807  0.0979
 1072YOPC   GL115345   2.608   8.373   6.280 -0.0701 -0.1587  0.0446
 1072YOPC   GL215346   2.693   8.608   6.459 -0.3409 -0.1516  0.0304
 1072YOPC   C1A15347   2.689   8.159   6.662  0.1883  0.1239 -0.0675
 1072YOPC   D2A15348   2.693   8.173   7.086  0.1272 -0.1703  0.1337
 1072YOPC   C3A15349   2.398   8.459   7.332  0.2007 -0.2088 -0.2154
 1072YOPC   C4A15350   2.188   8.816   7.561  0.0316 -0.0636  0.0445
 1072YOPC   C1B15351   2.426   8.636   6.718  0.0950 -0.1157  0.0166
 1072YOPC   C2B15352   2.321   8.942   7.070  0.0099  0.1017 -0.1597
 1072YOPC   D3B15353   2.483   9.382   6.968 -0.3392 -0.0187  0.3137
 1072YOPC   C4B15354   2.597   9.754   7.139 -0.0360 -0.0650  0.1056
 1073YOPC   NC315355  16.391  12.703   6.365  0.2448 -0.0077  0.1643
 1073YOPC   PO415356  16.666  12.605   6.242  0.2859  0.1008 -0.1720
 1073YOPC   GL115357  16.823  12.555   6.627 -0.1191  0.2135  0.4041
 1073YOPC   GL215358  17.073  12.664   6.759 -0.0279  0.3695  0.0026
 1073YOPC   C1A15359  16.802  12.167   6.972  0.2193  0.1281  0.1498
 1073YOPC   D2A15360  17.006  11.813   6.975  0.2857 -0.1782  0.1548
 1073YOPC   C3A15361  17.024  11.584   7.320  0.3593 -0.1745 -0.0702
 1073YOPC   C4A15362  17.271  11.458   7.685 -0.1908 -0.1832  0.0673
 1073YOPC   C1B15363  16.914  12.548   7.189 -0.1547 -0.1504 -0.0467
 1073YOPC   C2B15364  16.850  12.613   7.668 -0.0445  0.0473  0.2038
 1073YOPC   D3B15365  16.830  12.327   7.970  0.0314  0.1276 -0.0825
 1073YOPC   C4B15366  17.139  11.922   7.950 -0.0420 -0.1364 -0.2664
 1074YOPC   NC315367   4.512  11.185   6.289 -0.1121 -0.2703  0.2034
 1074YOPC   PO415368   4.111  11.010   6.393  0.0905  0.0916  0.0058
 1074YOPC   GL115369   4.272  10.888   6.754  0.1082  0.3270 -0.0380
 1074YOPC   GL215370   4.492  10.642   6.698 -0.0929  0.0059 -0.0555
 1074YOPC   C1A15371   4.095  11.046   7.220 -0.0395  0.3959  0.3341
 1074YOPC   D2A15372   4.070  11.318   7.671 -0.0460 -0.0892  0.0968
 1074YOPC   C3A15373   4.384  11.292   7.952  0.0877 -0.2241 -0.0448
 1074YOPC   C4A15374   4.462  11.440   8.355 -0.2378  0.2310  0.1274
 1074YOPC   C1B15375   4.632  10.631   7.083  0.1176  0.0267 -0.1878
 1074YOPC   C2B15376   4.801  10.394   7.464  0.1774 -0.0360  0.1907
 1074YOPC   D3B15377   4.790  10.509   7.933  0.1119  0.0527  0.0989
 1074YOPC   C4B15378   5.003  10.937   8.108 -0.1016  0.1166  0.3627
 1075YOPC   NC315379  13.405  15.244   6.520 -0.0013 -0.1090  0.1432
 1075YOPC   PO415380  13.200  15.553   6.410  0.0866 -0.0775 -0.0726
 1075YOPC   GL115381  13.151  15.903   6.581 -0.1652  0.0725  0.0211
 1075YOPC   GL215382  12.840  15.944   6.367  0.2122  0.1649  0.2301
 1075YOPC   C1A15383  13.041  15.918   7.022 -0.1685 -0.2226  0.1768
 1075YOPC   D2A15384  13.130  15.643   7.328  0.0194  0.0043  0.1799
 1075YOPC   C3A15385  12.752  15.608   7.588 -0.0384 -0.1865 -0.2085
 1075YOPC   C4A15386  12.478  15.355   7.938 -0.0494  0.1546 -0.2830
 1075YOPC   C1B15387  12.693  16.115   6.750 -0.1248  0.0583  0.0315
 1075YOPC   C2B15388  13.032  16.395   6.984 -0.1204  0.2208 -0.0611
 1075YOPC   D3B15389  13.370  16.241   6.990  0.2047 -0.0717 -0.0446
 1075YOPC   C4B15390  13.665  15.876   7.089  0.0876  0.1961 -0.0779
 1076YOPC   NC315391   5.749  13.761   6.126  0.0082  0.1154  0.0266
 1076YOPC   PO415392   6.086  13.479   6.163 -0.0662  0.1432 -0.1772
 1076YOPC   GL115393   5.996  13.399   6.565  0.0003  0.0094  0.3144
 1076YOPC   GL215394   5.856  13.766   6.740 -0.0384 -0.1924 -0.0426
 1076YOPC   C1A15395   5.883  13.240   6.971 -0.1491  0.0529 -0.0747
 1076YOPC   D2A15396   5.822  13.361   7.376 -0.3786 -0.1216 -0.2089
 1076YOPC   C3A15397   6.120  13.397   7.645 -0.2287  0.1169 -0.1950
 1076YOPC   C4A15398   6.501  13.404   7.869 -0.1300 -0.1810  0.0404
 1076YOPC   C1B15399   5.554  13.783   7.141 -0.2370 -0.0341 -0.1082
 1076YOPC   C2B15400   5.456  14.048   7.423  0.1360  0.1151  0.0503
 1076YOPC   D3B15401   5.362  13.918   7.813 -0.1068 -0.0084 -0.1940
 1076YOPC   C4B15402   5.229  13.796   8.273 -0.0659  0.1796 -0.1290
 1077YOPC   NC315403   0.663  10.409   6.429 -0.3397 -0.2088  0.0763
 1077YOPC   PO415404   0.687  10.871   6.357  0.0509 -0.2472  0.0429
 1077YOPC   GL115405   0.625  11.141   6.744  0.1319 -0.1264 -0.1334
 1077YOPC   GL215406   0.326  11.275   6.791  0.0412 -0.3776 -0.0691
 1077YOPC   C1A15407   0.695  11.305   7.109  0.0719 -0.1598 -0.0340
 1077YOPC   D2A15408   1.188  11.465   7.234  0.3324  0.3544  0.0739
 1077YOPC   C3A15409   1.280  11.675   7.657 -0.3675  0.1729 -0.1847
 1077YOPC   C4A15410   0.962  11.647   7.987  0.2127 -0.3040 -0.1624
 1077YOPC   C1B15411   0.170  11.383   7.170 -0.1330 -0.0637 -0.0634
 1077YOPC   C2B15412   0.068  11.381   7.581  0.4334 -0.4008  0.1145
 1077YOPC   D3B15413   0.072  11.043   7.836  0.0325 -0.0508  0.1700
 1077YOPC   C4B15414   0.157  10.881   8.228  0.0696  0.2606 -0.2338
 1078YOPC   NC315415   5.530  10.895   6.481 -0.1474 -0.1221  0.1905
 1078YOPC   PO415416   5.875  10.719   6.505  0.0906 -0.0334 -0.0047
 1078YOPC   GL115417   5.790  10.946   6.876 -0.0467  0.2164  0.1501
 1078YOPC   GL215418   5.670  10.677   7.006 -0.4160  0.0659 -0.0937
 1078YOPC   C1A15419   5.940  11.119   7.245  0.0500 -0.0760 -0.0217
 1078YOPC   D2A15420   5.842  11.483   7.417  0.0972  0.0045  0.1769
 1078YOPC   C3A15421   5.864  11.468   7.859 -0.1641 -0.0991 -0.2469
 1078YOPC   C4A15422   6.154  11.420   8.130 -0.1424 -0.2043 -0.1434
 1078YOPC   C1B15423   5.671  10.200   7.281 -0.1124  0.1736  0.0721
 1078YOPC   C2B15424   5.776   9.913   7.506  0.0197  0.0825  0.1217
 1078YOPC   D3B15425   5.543   9.786   7.965  0.0178 -0.0998 -0.1587
 1078YOPC   C4B15426   5.394   9.732   8.375 -0.2901  0.2133  0.0518
 1079YOPC   NC315427   7.487  13.512   5.587  0.4257  0.0603  0.0222
 1079YOPC   PO415428   7.362  13.392   6.062  0.0831 -0.1352 -0.0352
 1079YOPC   GL115429   7.238  13.549   6.461  0.0855  0.3325 -0.2235
 1079YOPC   GL215430   7.217  13.326   6.630  0.1005  0.2317  0.0016
 1079YOPC   C1A15431   7.627  13.652   6.608 -0.0323 -0.1129 -0.0008
 1079YOPC   D2A15432   7.913  13.731   6.911 -0.1915  0.1022 -0.0291
 1079YOPC   C3A15433   7.856  13.621   7.350  0.0417 -0.3704 -0.0404
 1079YOPC   C4A15434   8.113  13.495   7.713  0.3113  0.1566 -0.0304
 1079YOPC   C1B15435   6.961  13.640   6.892  0.0106 -0.1460 -0.1557
 1079YOPC   C2B15436   6.657  13.948   7.040 -0.1645 -0.0984  0.1416
 1079YOPC   D3B15437   6.510  13.782   7.480  0.1025 -0.2407  0.1977
 1079YOPC   C4B15438   6.266  13.840   7.864  0.2258 -0.1389 -0.0068
 1080YOPC   NC315439   7.511   5.735   5.786  0.1713  0.0975  0.1196
 1080YOPC   PO415440   7.600   5.522   6.093  0.0111  0.0109  0.2931
 1080YOPC   GL115441   7.455   5.676   6.469 -0.1938  0.0410  0.0721
 1080YOPC   GL215442   7.214   5.848   6.399 -0.1153  0.0016 -0.3410
 1080YOPC   C1A15443   7.369   5.847   6.833 -0.0330  0.2634 -0.0953
 1080YOPC   D2A15444   7.102   5.767   7.197 -0.0688  0.3661 -0.1213
 1080YOPC   C3A15445   7.280   5.710   7.662  0.0856 -0.0721  0.0207
 1080YOPC   C4A15446   7.091   5.455   7.866 -0.0698  0.0351 -0.1181
 1080YOPC   C1B15447   6.788   5.797   6.438  0.0950  0.0598 -0.0324
 1080YOPC   C2B15448   6.362   5.852   6.471  0.2147  0.0628  0.1158
 1080YOPC   D3B15449   6.076   5.938   6.874 -0.0351  0.3361  0.0664
 1080YOPC   C4B15450   5.722   6.098   7.154 -0.0643 -0.1276  0.0249
 1081YOPC   NC315451  11.276  14.010   6.210  0.1466 -0.3223  0.1136
 1081YOPC   PO415452  10.966  14.075   6.521  0.0566 -0.3336  0.1052
 1081YOPC   GL115453  10.970  14.472   6.683 -0.0222  0.0225 -0.1236
 1081YOPC   GL215454  10.738  14.474   6.944 -0.0716  0.1519  0.2611
 1081YOPC   C1A15455  11.092  14.772   7.056  0.2792 -0.1518  0.0335
 1081YOPC   D2A15456  10.962  14.843   7.487  0.1359 -0.0448  0.0996
 1081YOPC   C3A15457  10.560  14.896   7.787 -0.0844  0.1145  0.1593
 1081YOPC   C4A15458  10.177  14.976   7.688  0.0428 -0.0312 -0.0453
 1081YOPC   C1B15459  10.802  14.356   7.392  0.1715 -0.0864  0.1649
 1081YOPC   C2B15460  10.867  14.263   7.779 -0.0149 -0.2855 -0.1383
 1081YOPC   D3B15461  10.894  14.593   8.001  0.2650 -0.2187  0.0662
 1081YOPC   C4B15462  11.069  15.020   7.925 -0.0309  0.2196 -0.0036
 1082YOPC   NC315463   2.124   8.179   6.314 -0.0449  0.0289 -0.0556
 1082YOPC   PO415464   1.627   8.327   6.296  0.1808  0.0223  0.2751
 1082YOPC   GL115465   1.819   8.047   6.663  0.1606 -0.0284 -0.0410
 1082YOPC   GL215466   1.499   7.890   6.644 -0.1025  0.0416  0.0024
 1082YOPC   C1A15467   1.781   7.886   7.098  0.4062  0.0919 -0.1656
 1082YOPC   D2A15468   1.930   7.615   7.380 -0.0093  0.0197 -0.1994
 1082YOPC   C3A15469   1.810   7.510   7.800  0.1277  0.0757 -0.2511
 1082YOPC   C4A15470   1.731   7.666   8.192 -0.1007  0.1502  0.0873
 1082YOPC   C1B15471   1.340   8.029   7.048  0.0069  0.1613  0.1778
 1082YOPC   C2B15472   1.052   7.900   7.272 -0.2112 -0.0508  0.1943
 1082YOPC   D3B15473   1.113   7.813   7.781 -0.1958 -0.0911  0.1460
 1082YOPC   C4B15474   1.337   7.885   8.117  0.1337  0.0741  0.0853
 1083YOPC   NC315475  12.828   8.719   5.830  0.0096  0.1096 -0.3294
 1083YOPC   PO415476  12.722   8.388   6.095  0.2571  0.1173 -0.0515
 1083YOPC   GL115477  12.663   8.378   6.452 -0.1393 -0.1397  0.2816
 1083YOPC   GL215478  12.759   8.126   6.656 -0.0889 -0.2308  0.1014
 1083YOPC   C1A15479  12.685   8.686   6.691 -0.2587 -0.0848  0.3218
 1083YOPC   D2A15480  12.375   8.885   6.820  0.0733  0.0381 -0.0165
 1083YOPC   C3A15481  11.990   8.729   6.752  0.3875 -0.0508 -0.0800
 1083YOPC   C4A15482  11.585   8.636   6.962 -0.2984  0.1573 -0.3471
 1083YOPC   C1B15483  13.069   8.378   6.876  0.5945 -0.3623 -0.2424
 1083YOPC   C2B15484  13.261   8.628   7.217 -0.2211 -0.1079 -0.0437
 1083YOPC   D3B15485  13.012   8.692   7.596  0.0246 -0.0489 -0.0696
 1083YOPC   C4B15486  12.591   8.727   7.791 -0.2732 -0.3364  0.0587
 1084YOPC   NC315487   9.612  14.065   6.325  0.1556  0.0022 -0.2850
 1084YOPC   PO415488   9.162  14.206   6.214 -0.2651 -0.2455 -0.0880
 1084YOPC   GL115489   9.031  13.908   6.503 -0.0762 -0.0002 -0.1680
 1084YOPC   GL215490   9.307  13.846   6.704 -0.2587 -0.1095 -0.1531
 1084YOPC   C1A15491   8.895  13.922   6.931  0.0384  0.1168  0.2127
 1084YOPC   D2A15492   8.908  13.821   7.363 -0.0114 -0.0464  0.1039
 1084YOPC   C3A15493   9.117  13.534   7.632  0.0575 -0.0800  0.1843
 1084YOPC   C4A15494   9.303  13.610   8.011 -0.0851  0.2871  0.0973
 1084YOPC   C1B15495   9.643  13.637   7.137  0.0457  0.0718  0.1238
 1084YOPC   C2B15496   9.683  13.474   7.571 -0.0984  0.0646  0.1102
 1084YOPC   D3B15497   9.843  13.425   7.996 -0.0712  0.1063  0.0450
 1084YOPC   C4B15498  10.040  13.476   8.345 -0.0746 -0.0964  0.0154
 1085YOPC   NC315499  12.202   5.743   6.409 -0.0380  0.0154  0.0555
 1085YOPC   PO415500  12.621   5.797   6.544 -0.1181  0.2180 -0.1396
 1085YOPC   GL115501  12.851   5.736   6.924  0.2011 -0.0137 -0.2696
 1085YOPC   GL215502  13.096   5.421   6.973  0.0609 -0.4210  0.1916
 1085YOPC   C1A15503  12.898   5.667   7.338 -0.3015  0.0673 -0.0995
 1085YOPC   D2A15504  12.936   6.076   7.599 -0.0013 -0.1252 -0.1903
 1085YOPC   C3A15505  13.059   6.508   7.486  0.1304  0.1479  0.0247
 1085YOPC   C4A15506  12.891   6.947   7.510  0.1043  0.2883  0.0267
 1085YOPC   C1B15507  13.290   5.354   7.406 -0.1162  0.0359 -0.1421
 1085YOPC   C2B15508  13.466   5.326   7.838 -0.0149 -0.1673 -0.1433
 1085YOPC   D3B15509  13.826   5.141   7.976  0.0022 -0.1385  0.2385
 1085YOPC   C4B15510  14.047   5.088   8.406  0.0599 -0.1767 -0.1224
 1086YOPC   NC315511   5.409   6.024   5.752  0.0010  0.2553  0.0365
 1086YOPC   PO415512   5.753   5.911   6.007 -0.0735 -0.1268  0.0239
 1086YOPC   GL115513   5.769   6.133   6.459 -0.0436 -0.0682 -0.1001
 1086YOPC   GL215514   5.444   6.056   6.671  0.2765  0.0632 -0.0855
 1086YOPC   C1A15515   5.843   6.515   6.795  0.2375 -0.0479 -0.2792
 1086YOPC   D2A15516   6.041   6.456   7.229  0.0584 -0.0457  0.0383
 1086YOPC   C3A15517   6.292   6.174   7.304 -0.1364  0.0911 -0.1974
 1086YOPC   C4A15518   6.386   6.053   7.664  0.0109 -0.1183 -0.0676
 1086YOPC   C1B15519   5.572   5.663   6.949 -0.0511 -0.1573 -0.2827
 1086YOPC   C2B15520   5.714   5.609   7.379  0.0573  0.0010 -0.0325
 1086YOPC   D3B15521   5.865   5.989   7.630  0.1815  0.1492  0.1056
 1086YOPC   C4B15522   6.025   6.412   7.746 -0.4062  0.0927 -0.0969
 1087YOPC   NC315523   2.738   5.348   5.552 -0.1009 -0.3371  0.1938
 1087YOPC   PO415524   2.571   5.471   5.881  0.3086  0.2567 -0.3064
 1087YOPC   GL115525   2.551   5.416   6.362  0.3758 -0.0339  0.1228
 1087YOPC   GL215526   2.519   5.093   6.516  0.0578  0.0405  0.3152
 1087YOPC   C1A15527   2.749   5.620   6.762  0.0387 -0.0904  0.1589
 1087YOPC   D2A15528   2.782   5.610   7.182 -0.3648  0.1673  0.2992
 1087YOPC   C3A15529   2.752   5.298   7.422 -0.0157  0.3204 -0.0725
 1087YOPC   C4A15530   2.776   4.922   7.639  0.3126  0.0345  0.0132
 1087YOPC   C1B15531   2.815   5.159   6.938  0.0128  0.0603 -0.0903
 1087YOPC   C2B15532   3.201   5.182   7.250 -0.0265 -0.0759  0.2308
 1087YOPC   D3B15533   3.192   5.249   7.718 -0.0642 -0.0076  0.0069
 1087YOPC   C4B15534   2.974   5.123   8.107  0.0313 -0.2062 -0.1495
 1088YOPC   NC315535  15.948   7.124   5.700  0.1339  0.1373 -0.2074
 1088YOPC   PO415536  16.227   6.876   5.819  0.2145 -0.0035 -0.1346
 1088YOPC   GL115537  16.368   6.999   6.303  0.0418  0.3435 -0.0691
 1088YOPC   GL215538  16.356   7.331   6.496 -0.2268 -0.1408 -0.3264
 1088YOPC   C1A15539  15.995   6.918   6.605  0.4514 -0.0176 -0.0787
 1088YOPC   D2A15540  15.759   7.030   6.971  0.0707 -0.1308 -0.2099
 1088YOPC   C3A15541  15.862   7.011   7.420 -0.0468 -0.1248 -0.0873
 1088YOPC   C4A15542  16.067   6.933   7.865  0.2821  0.0032  0.0002
 1088YOPC   C1B15543  16.011   7.432   6.419 -0.0308 -0.1531 -0.1522
 1088YOPC   C2B15544  15.634   7.585   6.651  0.4094  0.0378 -0.0244
 1088YOPC   D3B15545  15.181   7.503   6.496 -0.0752  0.0436 -0.0475
 1088YOPC   C4B15546  14.782   7.452   6.421 -0.0676  0.2252  0.0119
 1089YOPC   NC315547   1.780  10.489   6.560 -0.1616 -0.1262  0.0360
 1089YOPC   PO415548   1.570  10.746   6.427  0.4100 -0.1434  0.1100
 1089YOPC   GL115549   1.467  10.967   6.736 -0.0285 -0.0788  0.2754
 1089YOPC   GL215550   1.526  10.607   6.934  0.1985  0.1046 -0.0994
 1089YOPC   C1A15551   1.506  11.123   7.124  0.3099  0.1679 -0.1531
 1089YOPC   D2A15552   1.708  11.044   7.571 -0.2182  0.0511 -0.0159
 1089YOPC   C3A15553   1.575  10.861   7.973  0.0318 -0.0830 -0.2228
 1089YOPC   C4A15554   1.163  10.816   8.076  0.0410 -0.1507 -0.0331
 1089YOPC   C1B15555   1.575  10.462   7.350 -0.0243  0.2148 -0.2520
 1089YOPC   C2B15556   1.809  10.401   7.612 -0.1227 -0.2155  0.0814
 1089YOPC   D3B15557   2.155  10.296   7.599 -0.3998 -0.0157  0.0079
 1089YOPC   C4B15558   2.404  10.418   7.932  0.3595 -0.1460  0.0000
 1090YOPC   NC315559   2.864  11.345   6.013 -0.3191 -0.2670  0.0279
 1090YOPC   PO415560   2.670  11.574   6.321  0.0115  0.0827 -0.0181
 1090YOPC   GL115561   2.820  11.472   6.621  0.1859 -0.2988 -0.0371
 1090YOPC   GL215562   2.686  11.761   6.838 -0.2129 -0.0065 -0.0387
 1090YOPC   C1A15563   2.742  11.260   6.971  0.1970 -0.0944 -0.2141
 1090YOPC   D2A15564   2.722  11.263   7.456 -0.2748  0.1708  0.2070
 1090YOPC   C3A15565   3.078  11.187   7.667 -0.0062  0.0328  0.1393
 1090YOPC   C4A15566   3.050  11.086   7.997 -0.0895  0.0821  0.0135
 1090YOPC   C1B15567   2.992  11.736   7.166 -0.3766  0.2531  0.0860
 1090YOPC   C2B15568   3.172  11.650   7.583  0.0230 -0.0111  0.3008
 1090YOPC   D3B15569   3.025  11.574   7.999  0.1488  0.1918  0.0520
 1090YOPC   C4B15570   2.936  11.440   8.379 -0.2424  0.0433  0.1089
 1091YOPC   NC315571  10.976   3.832   6.240  0.2387  0.0740 -0.2018
 1091YOPC   PO415572  10.656   3.837   6.622  0.4449  0.0579  0.0864
 1091YOPC   GL115573  10.848   3.832   6.969 -0.1728  0.0442 -0.0127
 1091YOPC   GL215574  11.165   3.884   6.992  0.0103 -0.0309 -0.1062
 1091YOPC   C1A15575  10.897   3.806   7.463 -0.0180  0.0737  0.3667
 1091YOPC   D2A15576  10.815   3.668   7.815  0.1202  0.0258 -0.2843
 1091YOPC   C3A15577  10.459   3.657   8.115 -0.1185 -0.0543 -0.1109
 1091YOPC   C4A15578  10.030   3.774   8.254  0.1883  0.3790  0.1132
 1091YOPC   C1B15579  11.329   4.095   7.292  0.0068  0.0515 -0.2450
 1091YOPC   C2B15580  11.259   4.418   7.676  0.0670  0.0890  0.0149
 1091YOPC   D3B15581  11.233   4.194   8.026 -0.0012 -0.2409  0.1193
 1091YOPC   C4B15582  11.345   4.059   8.481  0.0924  0.0181 -0.0399
 1092YOPC   NC315583  10.206  13.472   6.447  0.0304 -0.2090 -0.1234
 1092YOPC   PO415584   9.843  13.625   6.575  0.0977  0.1865 -0.1089
 1092YOPC   GL115585  10.008  13.314   6.888  0.0921  0.1482  0.1070
 1092YOPC   GL215586  10.095  13.020   6.791 -0.3936 -0.1400  0.1578
 1092YOPC   C1A15587   9.970  13.165   7.276  0.1145  0.0883  0.0300
 1092YOPC   D2A15588   9.831  12.993   7.681  0.0861  0.0664  0.0375
 1092YOPC   C3A15589   9.790  12.963   8.127  0.0570  0.0981 -0.0181
 1092YOPC   C4A15590   9.762  12.997   8.649  0.0469  0.2991  0.0139
 1092YOPC   C1B15591  10.057  12.700   7.113  0.3621  0.4373  0.1426
 1092YOPC   C2B15592  10.189  12.681   7.446  0.1267  0.0603  0.3492
 1092YOPC   D3B15593  10.076  12.526   7.786 -0.1289 -0.0526  0.0827
 1092YOPC   C4B15594   9.873  12.358   8.177 -0.1451 -0.1044 -0.1709
 1093YOPC   NC315595  13.723   2.678   5.838 -0.0212 -0.2903  0.2260
 1093YOPC   PO415596  13.844   2.199   5.987  0.0517  0.3843  0.3052
 1093YOPC   GL115597  13.874   2.111   6.377 -0.0148  0.0064 -0.0641
 1093YOPC   GL215598  14.206   2.242   6.540 -0.0412 -0.0845 -0.0310
 1093YOPC   C1A15599  13.714   2.211   6.783  0.0756 -0.3055 -0.2531
 1093YOPC   D2A15600  13.884   2.491   7.052 -0.3391 -0.0334  0.2815
 1093YOPC   C3A15601  13.677   2.651   7.448 -0.1680 -0.2526  0.3667
 1093YOPC   C4A15602  13.671   2.682   7.967 -0.0496 -0.0687  0.2815
 1093YOPC   C1B15603  14.075   2.670   6.639 -0.4365  0.0070  0.1340
 1093YOPC   C2B15604  13.818   3.045   6.715 -0.0876  0.2937 -0.2265
 1093YOPC   D3B15605  13.545   2.852   6.981 -0.0286 -0.0833 -0.0037
 1093YOPC   C4B15606  13.199   2.834   7.304 -0.0675  0.0783  0.1633
 1094YOPC   NC315607   9.347  11.230   6.120  0.0729 -0.1068  0.0214
 1094YOPC   PO415608   9.590  11.630   6.317  0.1300  0.4928 -0.0109
 1094YOPC   GL115609   9.779  11.868   6.609 -0.0781 -0.0114 -0.0201
 1094YOPC   GL215610  10.116  11.850   6.685 -0.0777 -0.2178  0.3113
 1094YOPC   C1A15611   9.602  12.100   6.924 -0.3285  0.0001  0.1809
 1094YOPC   D2A15612   9.634  12.417   7.254 -0.0791 -0.1400  0.1089
 1094YOPC   C3A15613   9.638  12.295   7.672 -0.0967 -0.0373 -0.2906
 1094YOPC   C4A15614   9.499  12.022   8.014 -0.1302 -0.2920 -0.0490
 1094YOPC   C1B15615   9.924  11.620   7.085 -0.3253 -0.1020  0.0401
 1094YOPC   C2B15616  10.107  11.562   7.457  0.2228  0.1992  0.0441
 1094YOPC   D3B15617   9.931  11.696   7.814 -0.1071  0.1631 -0.1248
 1094YOPC   C4B15618   9.887  11.825   8.239 -0.1576  0.4620 -0.0780
 1095YOPC   NC315619  12.271  10.429   5.777  0.1764  0.0383 -0.0867
 1095YOPC   PO415620  12.405  10.093   6.187  0.1134 -0.0140  0.1202
 1095YOPC   GL115621  12.482  10.224   6.650 -0.0161  0.1943 -0.3459
 1095YOPC   GL215622  12.223  10.300   6.750  0.2140  0.1500  0.1607
 1095YOPC   C1A15623  12.507  10.369   7.117  0.0309 -0.1767 -0.0622
 1095YOPC   D2A15624  12.299  10.441   7.407 -0.0245 -0.1369 -0.0772
 1095YOPC   C3A15625  12.244  10.456   7.782  0.1687 -0.1148  0.1712
 1095YOPC   C4A15626  12.339  10.361   8.148 -0.0997 -0.0952  0.0727
 1095YOPC   C1B15627  11.990  10.568   6.920  0.1310 -0.0342 -0.0788
 1095YOPC   C2B15628  11.727  10.717   7.252 -0.1712  0.1242  0.1368
 1095YOPC   D3B15629  11.741  10.540   7.705 -0.0407  0.0677  0.2024
 1095YOPC   C4B15630  11.878  10.349   8.117  0.3702 -0.4586 -0.1607
 1096YOPC   NC315631   9.752  15.524   6.122 -0.1972 -0.0057  0.2562
 1096YOPC   PO415632  10.094  15.229   6.085  0.0851 -0.0660 -0.2865
 1096YOPC   GL115633   9.929  15.194   6.523 -0.0979 -0.1732 -0.3967
 1096YOPC   GL215634   9.751  14.980   6.607  0.1297  0.0233  0.1472
 1096YOPC   C1A15635   9.975  15.399   6.914 -0.1635  0.0235  0.1948
 1096YOPC   D2A15636   9.937  15.709   7.212 -0.0490 -0.2993  0.0420
 1096YOPC   C3A15637   9.686  15.567   7.518  0.0145  0.1094  0.1999
 1096YOPC   C4A15638   9.728  15.256   7.795 -0.1733  0.1045 -0.1715
 1096YOPC   C1B15639   9.547  15.154   6.911  0.0367  0.1312  0.0384
 1096YOPC   C2B15640   9.498  15.141   7.297 -0.0826  0.1206  0.1271
 1096YOPC   D3B15641   9.297  15.080   7.680  0.0295  0.0395 -0.0583
 1096YOPC   C4B15642   9.344  14.881   8.041  0.3644  0.0025 -0.2068
 1097YOPC   NC315643   2.722  10.123   6.340 -0.2518  0.0076  0.0163
 1097YOPC   PO415644   2.631  10.393   6.584  0.2283  0.1518 -0.1868
 1097YOPC   GL115645   3.009  10.590   6.841 -0.0750 -0.2437  0.0508
 1097YOPC   GL215646   3.078  10.901   6.919  0.0664 -0.2146 -0.2666
 1097YOPC   C1A15647   3.295  10.411   6.937 -0.0131  0.0769 -0.1265
 1097YOPC   D2A15648   3.545  10.035   7.089  0.0363 -0.2530 -0.0821
 1097YOPC   C3A15649   3.471   9.946   7.440 -0.0826 -0.0282  0.0516
 1097YOPC   C4A15650   3.574   9.805   7.827  0.0873 -0.0897 -0.1615
 1097YOPC   C1B15651   3.185  10.817   7.306 -0.0460  0.2852  0.1543
 1097YOPC   C2B15652   3.368  10.785   7.732 -0.2322 -0.2514 -0.0794
 1097YOPC   D3B15653   3.600  10.966   7.975 -0.1568  0.3179  0.0131
 1097YOPC   C4B15654   3.951  11.162   8.153  0.4186  0.2821  0.0166
 1098YOPC   NC315655   4.697  16.519   5.979 -0.1948 -0.1283  0.0544
 1098YOPC   PO415656   4.610  16.060   6.118  0.2325  0.3075  0.0992
 1098YOPC   GL115657   4.631  16.174   6.551  0.1402 -0.2502 -0.2734
 1098YOPC   GL215658   4.844  16.427   6.429  0.2468 -0.2498 -0.0794
 1098YOPC   C1A15659   4.478  15.996   6.927 -0.1004  0.1029 -0.4044
 1098YOPC   D2A15660   4.484  15.850   7.356  0.3732 -0.1845 -0.0015
 1098YOPC   C3A15661   4.363  15.848   7.694 -0.0814 -0.0055 -0.0761
 1098YOPC   C4A15662   4.200  16.009   7.995 -0.1109 -0.0688  0.1646
 1098YOPC   C1B15663   4.976  16.349   6.947 -0.1838 -0.0828 -0.1339
 1098YOPC   C2B15664   5.210  16.436   7.340  0.1202  0.0982 -0.0165
 1098YOPC   D3B15665   5.320  16.285   7.683  0.1628 -0.0072  0.0825
 1098YOPC   C4B15666   5.547  16.077   8.094  0.1473  0.2677  0.3530
 1099YOPC   NC315667   2.642  16.015   6.001  0.1477 -0.0796 -0.2827
 1099YOPC   PO415668   2.543  16.433   6.124  0.2292 -0.0701  0.1171
 1099YOPC   GL115669   2.621  16.652   6.512  0.3699  0.2061 -0.0648
 1099YOPC   GL215670   2.376  16.755   6.688 -0.0889 -0.1868  0.0309
 1099YOPC   C1A15671   2.873  16.544   6.901 -0.4428 -0.1130 -0.2115
 1099YOPC   D2A15672   2.975  16.593   7.250  0.1683 -0.0292  0.1662
 1099YOPC   C3A15673   3.037  16.107   7.304 -0.3155  0.3676 -0.1421
 1099YOPC   C4A15674   3.434  15.897   7.478 -0.0783  0.0041 -0.0611
 1099YOPC   C1B15675   2.202  16.328   6.922  0.2054 -0.1555  0.1444
 1099YOPC   C2B15676   1.998  15.937   6.972  0.0821 -0.3062  0.0739
 1099YOPC   D3B15677   2.129  15.874   7.395 -0.4048 -0.2163 -0.1510
 1099YOPC   C4B15678   2.176  15.739   7.793 -0.1042  0.1166 -0.1636
 1100YOPC   NC315679  13.117   1.052   6.198  0.1281  0.1285 -0.0371
 1100YOPC   PO415680  12.910   0.721   6.317 -0.0543 -0.0782 -0.0619
 1100YOPC   GL115681  12.621   0.783   6.656  0.0627 -0.1189  0.1183
 1100YOPC   GL215682  12.688   0.859   6.983 -0.1453 -0.0295 -0.0178
 1100YOPC   C1A15683  12.184   0.882   6.843  0.0859 -0.1262  0.2343
 1100YOPC   D2A15684  11.935   1.047   7.179  0.0050  0.3028  0.1950
 1100YOPC   C3A15685  11.980   1.063   7.622  0.3730  0.1885 -0.0483
 1100YOPC   C4A15686  11.898   1.155   7.929 -0.0861  0.1912  0.1277
 1100YOPC   C1B15687  12.878   1.119   7.339  0.0204  0.0683  0.0690
 1100YOPC   C2B15688  12.868   1.137   7.754 -0.2462  0.0292  0.1547
 1100YOPC   D3B15689  13.027   0.927   8.051  0.2329  0.1493  0.1101
 1100YOPC   C4B15690  13.113   0.893   8.478  0.3295  0.1251 -0.0978
 1101YOPC   NC315691   0.796   9.398   6.441  0.2293 -0.3045  0.0470
 1101YOPC   PO415692   0.477   9.295   6.207 -0.0917  0.1156 -0.1526
 1101YOPC   GL115693   0.439   9.242   6.719  0.1782 -0.2849  0.3237
 1101YOPC   GL215694   0.187   9.398   6.776  0.1010  0.2208 -0.1702
 1101YOPC   C1A15695   0.489   8.966   6.959 -0.2271 -0.1608  0.0449
 1101YOPC   D2A15696   0.462   8.885   7.445 -0.2437 -0.2012 -0.0344
 1101YOPC   C3A15697   0.314   8.520   7.630 -0.0175 -0.0284  0.0589
 1101YOPC   C4A15698   0.311   8.247   7.846  0.0956  0.2098 -0.0041
 1101YOPC   C1B15699   0.296   9.341   7.240  0.0565 -0.0203  0.3934
 1101YOPC   C2B15700   0.337   9.549   7.647  0.1932  0.1239 -0.1715
 1101YOPC   D3B15701   0.023   9.582   7.873  0.0190  0.0865  0.0935
 1101YOPC   C4B15702  -0.303   9.283   7.949  0.0249  0.1044 -0.0021
 1102YOPC   NC315703  12.875   0.209   6.311  0.0684 -0.1032  0.2259
 1102YOPC   PO415704  13.322   0.022   6.246  0.2601 -0.0592  0.0804
 1102YOPC   GL115705  13.232   0.064   6.725 -0.1560  0.0883  0.2219
 1102YOPC   GL215706  12.871   0.139   6.790  0.0318 -0.0718  0.0051
 1102YOPC   C1A15707  13.259   0.009   7.115  0.0886 -0.2538 -0.2222
 1102YOPC   D2A15708  13.165  -0.004   7.422  0.0121 -0.0885  0.3834
 1102YOPC   C3A15709  13.363   0.083   7.792 -0.2846 -0.0174  0.1264
 1102YOPC   C4A15710  13.675  -0.196   7.942  0.2927 -0.0039  0.1442
 1102YOPC   C1B15711  12.549   0.376   6.881 -0.1289 -0.0240  0.3271
 1102YOPC   C2B15712  12.328   0.678   7.247 -0.2762 -0.0833 -0.2275
 1102YOPC   D3B15713  12.471   0.840   7.557  0.1501 -0.0449 -0.0357
 1102YOPC   C4B15714  12.304   0.821   7.928  0.2880 -0.0254  0.1127
 1103YOPC   NC315715  17.575   1.319   5.938  0.1409  0.2325  0.2405
 1103YOPC   PO415716  17.603   0.925   6.098  0.0039 -0.2464  0.1980
 1103YOPC   GL115717  17.611   0.665   6.501  0.2725 -0.1311 -0.2298
 1103YOPC   GL215718  17.855   0.481   6.572 -0.1094 -0.2178 -0.4042
 1103YOPC   C1A15719  17.407   0.723   6.862 -0.0409  0.1391  0.4550
 1103YOPC   D2A15720  17.207   0.590   7.261  0.2967 -0.0388 -0.0314
 1103YOPC   C3A15721  17.209   0.773   7.550 -0.1279  0.2715  0.2331
 1103YOPC   C4A15722  17.349   1.125   7.885 -0.2195 -0.1976 -0.2159
 1103YOPC   C1B15723  17.884   0.230   6.889  0.0987 -0.3409 -0.1205
 1103YOPC   C2B15724  17.654   0.343   7.321  0.0084 -0.0903  0.0737
 1103YOPC   D3B15725  17.644   0.255   7.755 -0.1211 -0.1506 -0.0173
 1103YOPC   C4B15726  17.514   0.227   8.150  0.1761 -0.0054  0.2245
 1104YOPC   NC315727  11.388  14.436   6.445 -0.2702  0.1216 -0.0882
 1104YOPC   PO415728  11.767  14.306   6.228  0.0112  0.1832  0.1075
 1104YOPC   GL115729  11.885  14.319   6.657  0.0709  0.1150 -0.2493
 1104YOPC   GL215730  11.764  14.621   6.816 -0.1446 -0.0216  0.0354
 1104YOPC   C1A15731  11.877  14.196   7.041  0.2438  0.0791 -0.0175
 1104YOPC   D2A15732  12.068  14.306   7.432 -0.0881  0.0766 -0.1025
 1104YOPC   C3A15733  12.078  14.260   7.792 -0.3095 -0.1527  0.0737
 1104YOPC   C4A15734  12.220  14.591   8.075 -0.5763 -0.1858  0.3089
 1104YOPC   C1B15735  11.870  14.630   7.152  0.0133  0.0547  0.2258
 1104YOPC   C2B15736  11.979  14.788   7.615  0.0283 -0.0772 -0.0474
 1104YOPC   D3B15737  11.727  14.744   8.026 -0.3100 -0.1044  0.1893
 1104YOPC   C4B15738  11.459  14.548   8.371  0.1130 -0.0982  0.0499
 1105YOPC   NC315739  15.200  16.792   5.832  0.0916  0.1401  0.1927
 1105YOPC   PO415740  15.486  16.785   6.129 -0.0122 -0.2113 -0.1682
 1105YOPC   GL115741  15.861  16.777   6.417  0.0191 -0.0177 -0.1776
 1105YOPC   GL215742  16.151  16.737   6.410 -0.2579  0.2580 -0.2149
 1105YOPC   C1A15743  15.825  16.987   6.866 -0.0367 -0.0669  0.1299
 1105YOPC   D2A15744  15.812  17.145   7.337 -0.0190  0.0547  0.2024
 1105YOPC   C3A15745  15.824  17.192   7.801  0.0008  0.4514  0.1588
 1105YOPC   C4A15746  15.920  17.159   8.255  0.1161  0.1949  0.0946
 1105YOPC   C1B15747  16.284  16.766   6.826 -0.0509  0.2998  0.0092
 1105YOPC   C2B15748  16.237  16.986   7.114 -0.0909  0.1826 -0.2043
 1105YOPC   D3B15749  16.262  17.042   7.552  0.3484 -0.1800  0.1566
 1105YOPC   C4B15750  16.219  16.900   7.983  0.0016  0.4782 -0.0440
 1106YOPC   NC315751  12.916  11.456   5.814  0.1871 -0.0578 -0.0086
 1106YOPC   PO415752  12.693  11.339   6.138 -0.0106  0.1181  0.1153
 1106YOPC   GL115753  12.496  11.375   6.468  0.0133 -0.3780 -0.0857
 1106YOPC   GL215754  12.793  11.107   6.552  0.3365  0.0056  0.2940
 1106YOPC   C1A15755  12.699  11.534   6.759  0.0026  0.2973  0.2368
 1106YOPC   D2A15756  12.756  11.867   7.121  0.1326  0.1176  0.2660
 1106YOPC   C3A15757  12.551  11.929   7.541 -0.0760  0.2142  0.0204
 1106YOPC   C4A15758  12.573  11.797   7.992 -0.1518  0.0512  0.5082
 1106YOPC   C1B15759  12.889  11.168   6.987  0.2485  0.1915 -0.0025
 1106YOPC   C2B15760  12.699  11.427   7.309  0.1351 -0.4404 -0.0044
 1106YOPC   D3B15761  13.064  11.811   7.472  0.0108  0.0324  0.0769
 1106YOPC   C4B15762  13.348  11.775   7.777  0.0325 -0.0402 -0.1355
 1107YOPC   NC315763   7.149   6.637   5.770  0.0146  0.2775  0.0747
 1107YOPC   PO415764   7.151   6.129   5.843  0.1188 -0.1883 -0.2386
 1107YOPC   GL115765   7.320   6.380   6.204 -0.0463  0.0566  0.1525
 1107YOPC   GL215766   7.340   6.831   6.174 -0.0950  0.0435 -0.2668
 1107YOPC   C1A15767   7.346   6.273   6.638  0.0338  0.0206  0.0771
 1107YOPC   D2A15768   7.187   6.297   7.042  0.3017  0.0608  0.1642
 1107YOPC   C3A15769   7.249   6.158   7.459  0.0180 -0.0834 -0.0086
 1107YOPC   C4A15770   6.963   6.202   7.834 -0.3118  0.1865  0.3063
 1107YOPC   C1B15771   7.354   7.071   6.540  0.0028 -0.1826 -0.1656
 1107YOPC   C2B15772   7.617   7.246   6.902  0.1199 -0.1522 -0.2202
 1107YOPC   D3B15773   7.582   7.201   7.322 -0.4782 -0.3720 -0.1104
 1107YOPC   C4B15774   7.445   7.507   7.685 -0.0737  0.0439  0.0534
 1108YOPC   NC315775  13.737   0.216   6.018 -0.1338 -0.0510  0.1942
 1108YOPC   PO415776  13.833   0.589   6.225  0.1980 -0.1949  0.0216
 1108YOPC   GL115777  13.983   0.709   6.635 -0.1092 -0.3115 -0.0026
 1108YOPC   GL215778  13.715   0.749   6.932  0.2608 -0.4662 -0.2969
 1108YOPC   C1A15779  14.295   0.801   6.921  0.1933 -0.0483 -0.2662
 1108YOPC   D2A15780  14.489   0.503   7.146 -0.3263  0.0752  0.4139
 1108YOPC   C3A15781  14.538   0.475   7.656  0.1379 -0.0487  0.1114
 1108YOPC   C4A15782  14.253   0.609   7.998  0.1416 -0.0939  0.1146
 1108YOPC   C1B15783  13.563   0.448   7.163  0.0177  0.3498 -0.0196
 1108YOPC   C2B15784  13.508   0.513   7.568 -0.1973  0.3353 -0.0524
 1108YOPC   D3B15785  13.828   0.284   7.852 -0.1343 -0.2306  0.1640
 1108YOPC   C4B15786  13.924   0.155   8.277  0.1950 -0.1487  0.0132
 1109YOPC   NC315787   1.317   0.398   5.981 -0.0639 -0.1349 -0.2387
 1109YOPC   PO415788   0.979   0.315   6.252 -0.0981  0.3048  0.0778
 1109YOPC   GL115789   1.043   0.239   6.620 -0.0213 -0.1446  0.1141
 1109YOPC   GL215790   1.073   0.539   6.731  0.1681  0.3792 -0.2231
 1109YOPC   C1A15791   1.042   0.083   7.052 -0.1970  0.0536  0.1539
 1109YOPC   D2A15792   0.830   0.219   7.479 -0.1863 -0.1552  0.1887
 1109YOPC   C3A15793   0.930   0.250   7.819  0.1045 -0.0619 -0.1703
 1109YOPC   C4A15794   1.197   0.295   8.229  0.0949  0.0786 -0.0107
 1109YOPC   C1B15795   0.935   0.616   7.185  0.1623 -0.1355 -0.0392
 1109YOPC   C2B15796   0.866   0.874   7.492 -0.1066 -0.1969  0.3615
 1109YOPC   D3B15797   1.033   0.769   7.860  0.0077 -0.2137 -0.2468
 1109YOPC   C4B15798   1.032   0.855   8.337 -0.1110 -0.2834  0.0447
 1110YOPC   NC315799   6.005  15.024   6.103 -0.1132 -0.1043  0.2812
 1110YOPC   PO415800   6.021  14.689   6.252  0.0066  0.0943  0.1012
 1110YOPC   GL115801   6.092  14.630   6.636 -0.0946  0.2083 -0.2278
 1110YOPC   GL215802   5.862  14.814   6.866  0.2279  0.1161  0.1388
 1110YOPC   C1A15803   6.252  14.414   6.987  0.0515  0.1288  0.1339
 1110YOPC   D2A15804   6.389  14.287   7.393 -0.0167  0.0405  0.0726
 1110YOPC   C3A15805   6.600  14.179   7.828  0.0263 -0.1411  0.1379
 1110YOPC   C4A15806   6.781  13.792   8.031  0.0541  0.1372 -0.1297
 1110YOPC   C1B15807   5.871  15.159   6.978  0.1915 -0.1095  0.0753
 1110YOPC   C2B15808   6.169  15.377   7.278 -0.0427  0.1648 -0.3341
 1110YOPC   D3B15809   6.090  15.269   7.660 -0.0515  0.1588 -0.2594
 1110YOPC   C4B15810   5.921  15.239   7.990 -0.0292  0.1718 -0.1678
 1111YOPC   NC315811  14.339  17.091   6.071  0.1212  0.1067  0.2398
 1111YOPC   PO415812  14.617  17.139   6.307 -0.1761 -0.3249 -0.1176
 1111YOPC   GL115813  14.883  17.246   6.698 -0.0417 -0.2430  0.3138
 1111YOPC   GL215814  14.948  17.562   6.814 -0.2714  0.1417  0.1234
 1111YOPC   C1A15815  14.953  17.006   7.042  0.0293  0.0081 -0.2601
 1111YOPC   D2A15816  15.412  16.838   7.245 -0.1819 -0.1300  0.3276
 1111YOPC   C3A15817  15.495  16.853   7.652  0.0857  0.1541 -0.1370
 1111YOPC   C4A15818  15.711  16.804   8.025  0.1887  0.1699  0.0030
 1111YOPC   C1B15819  14.765  17.673   7.146 -0.0509 -0.0900  0.0013
 1111YOPC   C2B15820  14.519  17.766   7.445 -0.1428  0.2379  0.0919
 1111YOPC   D3B15821  14.161  17.805   7.463 -0.3155 -0.2292 -0.2807
 1111YOPC   C4B15822  13.735  17.744   7.427  0.2192  0.2970 -0.3063
 1112YOPC   NC315823   7.760  12.678   6.142 -0.0601  0.3087  0.3477
 1112YOPC   PO415824   8.132  12.796   5.946 -0.0468  0.1253 -0.0182
 1112YOPC   GL115825   8.439  13.048   6.156 -0.2277  0.0742  0.0833
 1112YOPC   GL215826   8.217  13.334   6.145 -0.1881  0.3819  0.1662
 1112YOPC   C1A15827   8.502  13.013   6.628  0.2775  0.0870  0.0906
 1112YOPC   D2A15828   8.419  13.059   7.024 -0.0921  0.0553 -0.0179
 1112YOPC   C3A15829   8.875  13.272   7.144  0.0615  0.3843  0.2078
 1112YOPC   C4A15830   9.182  13.517   7.010  0.0731 -0.1675  0.2722
 1112YOPC   C1B15831   8.148  13.397   6.569 -0.0642 -0.2880 -0.0764
 1112YOPC   C2B15832   7.894  13.114   6.860  0.1462 -0.1113 -0.4490
 1112YOPC   D3B15833   8.046  13.068   7.383 -0.0845  0.0931 -0.1492
 1112YOPC   C4B15834   7.988  12.976   7.815 -0.0595  0.0654 -0.0271
 1113YOPC   NC315835   1.913  12.021   5.787 -0.1725 -0.3379  0.0812
 1113YOPC   PO415836   1.738  12.384   6.000  0.1238  0.0515  0.1174
 1113YOPC   GL115837   1.745  12.485   6.465 -0.0577 -0.2001 -0.1421
 1113YOPC   GL215838   1.615  12.785   6.409 -0.1208 -0.0573  0.0109
 1113YOPC   C1A15839   1.632  12.482   6.910  0.2736 -0.2728  0.2622
 1113YOPC   D2A15840   1.478  12.587   7.279  0.4440  0.0299  0.1808
 1113YOPC   C3A15841   1.677  12.357   7.620 -0.2203 -0.2083 -0.0665
 1113YOPC   C4A15842   1.716  12.229   8.013 -0.1367  0.0707 -0.0588
 1113YOPC   C1B15843   1.315  12.809   6.718 -0.1251  0.0825 -0.1589
 1113YOPC   C2B15844   1.073  13.020   6.877 -0.2440  0.1502  0.0738
 1113YOPC   D3B15845   1.244  12.982   7.279 -0.0984 -0.0755  0.1083
 1113YOPC   C4B15846   1.269  12.819   7.719  0.1985 -0.0686 -0.0013
 1114YOPC   NC315847   0.867   9.201   5.858  0.0731  0.2447  0.2156
 1114YOPC   PO415848   0.912   8.916   6.248 -0.1322 -0.1598 -0.3281
 1114YOPC   GL115849   0.837   8.839   6.663  0.2618 -0.3545 -0.0135
 1114YOPC   GL215850   1.191   8.777   6.776  0.1133  0.2094  0.3695
 1114YOPC   C1A15851   0.926   8.943   7.167 -0.3393 -0.0730  0.0186
 1114YOPC   D2A15852   1.120   8.865   7.576  0.1813 -0.3540  0.1961
 1114YOPC   C3A15853   1.098   8.947   8.040 -0.5668  0.0836 -0.2498
 1114YOPC   C4A15854   1.353   8.923   8.440 -0.0034 -0.0848 -0.0542
 1114YOPC   C1B15855   1.426   8.523   6.977  0.2380 -0.3380  0.0436
 1114YOPC   C2B15856   1.300   8.421   7.354 -0.2455  0.1334 -0.0858
 1114YOPC   D3B15857   1.350   8.499   7.747  0.2539  0.2128 -0.1819
 1114YOPC   C4B15858   1.328   8.381   8.130  0.1558 -0.3254  0.0565
 1115ERGO   ROH15859  16.838   3.762   6.939  0.2444 -0.1744  0.0562
 1115ERGO    R115860  16.627   3.840   7.110  0.0981 -0.2246 -0.0987
 1115ERGO    R215861  16.476   3.658   7.252  0.1825 -0.2491 -0.0436
 1115ERGO    R315862  16.550   3.810   7.465 -0.0448 -0.0356 -0.1118
 1115ERGO    R415863  16.278   3.720   7.529  0.1219 -0.5193 -0.0231
 1115ERGO    R515864  16.350   3.926   7.528 -0.2531 -0.3782 -0.1097
 1115ERGO    C115865  16.233   3.900   7.890 -0.1268 -0.4763 -0.0750
 1115ERGO    C215866  16.078   3.817   8.198 -0.0042  0.1039 -0.2952
 1116ERGO   ROH15867  15.385   4.112   6.728  0.1677 -0.1309 -0.0689
 1116ERGO    R115868  15.300   4.041   6.988  0.0497 -0.0166 -0.0745
 1116ERGO    R215869  15.477   3.982   7.192 -0.0417 -0.1233 -0.0214
 1116ERGO    R315870  15.338   4.174   7.325  0.0804  0.0150 -0.0912
 1116ERGO    R415871  15.373   3.959   7.521 -0.1531  0.0218 -0.0458
 1116ERGO    R515872  15.185   4.052   7.463 -0.0591  0.1678 -0.1113
 1116ERGO    C115873  15.182   4.126   7.837 -0.1034  0.2362 -0.1254
 1116ERGO    C215874  15.164   4.134   8.185  0.0683  0.1373 -0.0565
 1117ERGO   ROH15875   4.425   6.653   6.500 -0.1922  0.0158 -0.0717
 1117ERGO    R115876   4.277   6.733   6.728 -0.0457  0.0421  0.0154
 1117ERGO    R215877   4.343   6.653   6.983  0.0322 -0.0484 -0.0337
 1117ERGO    R315878   4.342   6.920   7.033  0.1923 -0.0581  0.0292
 1117ERGO    R415879   4.296   6.795   7.295 -0.2659 -0.0917 -0.0562
 1117ERGO    R515880   4.172   6.948   7.200 -0.0133  0.0393 -0.1878
 1117ERGO    C115881   4.267   7.128   7.523 -0.2892 -0.1262 -0.0103
 1117ERGO    C215882   4.266   7.383   7.808  0.1722  0.3819 -0.2760
 1118ERGO   ROH15883   2.850   1.764   8.506 -0.0495  0.1079 -0.0331
 1118ERGO    R115884   3.061   1.942   8.444  0.0202  0.0405  0.0100
 1118ERGO    R215885   3.299   1.857   8.332 -0.0009 -0.0296  0.0190
 1118ERGO    R315886   3.240   2.045   8.144  0.0836  0.0182  0.0398
 1118ERGO    R415887   3.521   2.093   8.212  0.0350  0.0472  0.2316
 1118ERGO    R515888   3.360   2.239   8.215  0.0060  0.0178  0.1766
 1118ERGO    C115889   3.595   2.406   7.966  0.1351  0.1367  0.3751
 1118ERGO    C215890   3.802   2.663   7.835  0.0530  0.2102  0.3372
 1119ERGO   ROH15891   5.754  12.229   6.836  0.1238  0.0294  0.0089
 1119ERGO    R115892   5.611  12.263   7.078  0.0952 -0.0898  0.0095
 1119ERGO    R215893   5.688  12.142   7.314  0.1457 -0.0985 -0.0097
 1119ERGO    R315894   5.680  12.396   7.410  0.0140 -0.1199  0.0383
 1119ERGO    R415895   5.700  12.227   7.649  0.2201 -0.1479  0.0002
 1119ERGO    R515896   5.550  12.380   7.610  0.1033 -0.2410  0.0868
 1119ERGO    C115897   5.701  12.516   7.933  0.1398 -0.1967  0.0510
 1119ERGO    C215898   5.830  12.490   8.193 -0.1686  0.0012 -0.2095
 1120ERGO   ROH15899  16.892   5.057   6.721  0.1911  0.2911  0.0716
 1120ERGO    R115900  16.852   4.871   6.931 -0.0880  0.3001  0.0307
 1120ERGO    R215901  17.059   4.775   7.087 -0.1935 -0.1900 -0.1091
 1120ERGO    R315902  16.903   4.863   7.291  0.0937  0.0787  0.0023
 1120ERGO    R415903  17.102   4.690   7.419 -0.0568 -0.1924 -0.1267
 1120ERGO    R515904  16.885   4.675   7.438 -0.0686  0.1294  0.0477
 1120ERGO    C115905  16.980   4.724   7.804  0.2926  0.0585 -0.0325
 1120ERGO    C215906  17.085   4.835   8.056 -0.1404 -0.1114 -0.1027
 1121ERGO   ROH15907   8.870   0.164   6.653 -0.0965  0.0958  0.1673
 1121ERGO    R115908   8.915   0.054   6.910 -0.0945 -0.0062  0.1235
 1121ERGO    R215909   8.871   0.197   7.142  0.0202 -0.0590  0.1758
 1121ERGO    R315910   8.715  -0.016   7.206 -0.0661 -0.0070  0.1433
 1121ERGO    R415911   8.790   0.102   7.464 -0.0244 -0.0676  0.1626
 1121ERGO    R515912   8.817  -0.106   7.404 -0.1043 -0.0724  0.1354
 1121ERGO    C115913   8.597  -0.154   7.712 -0.1313 -0.0238  0.1245
 1121ERGO    C215914   8.581  -0.152   8.133 -0.1215  0.2776  0.0889
 1122ERGO   ROH15915  17.217   3.538  10.721 -0.0160  0.0475 -0.0579
 1122ERGO    R115916  17.221   3.569  10.439 -0.0735 -0.0362 -0.0689
 1122ERGO    R215917  17.453   3.625  10.300 -0.1127 -0.0048 -0.1269
 1122ERGO    R315918  17.383   3.404  10.158 -0.0686 -0.0715 -0.0444
 1122ERGO    R415919  17.503   3.583   9.960 -0.3389 -0.0208 -0.1598
 1122ERGO    R515920  17.307   3.489   9.947 -0.2835 -0.1547 -0.0009
 1122ERGO    C115921  17.467   3.351   9.630 -0.4293 -0.0927 -0.1016
 1122ERGO    C215922  17.454   3.449   9.284  0.0556 -0.0945 -0.0927
 1123ERGO   ROH15923  15.246   1.408   6.929 -0.0746 -0.0177  0.0077
 1123ERGO    R115924  15.107   1.486   7.163 -0.0399 -0.0755  0.0489
 1123ERGO    R215925  14.905   1.334   7.274 -0.0030 -0.1205  0.0623
 1123ERGO    R315926  15.057   1.354   7.498  0.0403 -0.1425  0.0339
 1123ERGO    R415927  14.788   1.292   7.597  0.0357 -0.0201  0.0891
 1123ERGO    R515928  14.914   1.459   7.659  0.1098 -0.0605  0.0400
 1123ERGO    C115929  14.864   1.286   7.995  0.0988  0.0178  0.0779
 1123ERGO    C215930  14.993   1.166   8.208  0.0941  0.1933 -0.2600
 1124ERGO   ROH15931   5.543  13.570  10.522 -0.2493  0.2699 -0.1620
 1124ERGO    R115932   5.589  13.693  10.271 -0.3416  0.1563 -0.2334
 1124ERGO    R215933   5.778  13.600  10.093 -0.1708  0.2849 -0.1069
 1124ERGO    R315934   5.568  13.594   9.921 -0.1108 -0.1130 -0.1780
 1124ERGO    R415935   5.804  13.574   9.749  0.0134  0.3518 -0.1002
 1124ERGO    R515936   5.643  13.719   9.731 -0.2732  0.0517 -0.1450
 1124ERGO    C115937   5.622  13.553   9.388  0.1768  0.0172 -0.1630
 1124ERGO    C215938   5.774  13.583   9.104 -0.0642 -0.1977  0.3260
 1125ERGO   ROH15939   1.827   3.766   6.678  0.3242  0.1234 -0.0745
 1125ERGO    R115940   1.633   3.696   6.872  0.1964 -0.0021 -0.2452
 1125ERGO    R215941   1.693   3.548   7.097  0.0728 -0.0468 -0.2416
 1125ERGO    R315942   1.579   3.757   7.226 -0.1024 -0.1255 -0.2661
 1125ERGO    R415943   1.629   3.559   7.436  0.1384 -0.0339 -0.2296
 1125ERGO    R515944   1.439   3.656   7.392  0.0314 -0.2265 -0.2112
 1125ERGO    C115945   1.484   3.763   7.755  0.0121 -0.1004 -0.2456
 1125ERGO    C215946   1.526   3.766   8.128 -0.0364  0.2766 -0.0181
 1126ERGO   ROH15947   4.654  12.000   6.930 -0.1603  0.2474 -0.0930
 1126ERGO    R115948   4.667  11.869   7.180 -0.1578 -0.0232 -0.2314
 1126ERGO    R215949   4.658  12.006   7.420  0.1249 -0.2538 -0.0869
 1126ERGO    R315950   4.453  11.835   7.473 -0.0305 -0.0900 -0.1437
 1126ERGO    R415951   4.517  11.958   7.732  0.2383 -0.3874 -0.0544
 1126ERGO    R515952   4.506  11.744   7.688 -0.0083 -0.3446 -0.2493
 1126ERGO    C115953   4.242  11.769   7.963  0.1584 -0.3114 -0.0889
 1126ERGO    C215954   4.189  11.897   8.332  0.2299 -0.0715 -0.1898
 1127ERGO   ROH15955   8.235  15.834   8.704 -0.3172 -0.1654  0.1660
 1127ERGO    R115956   8.363  15.897   8.948 -0.1572 -0.0574  0.0531
 1127ERGO    R215957   8.296  16.118   9.099 -0.1619 -0.0823  0.0677
 1127ERGO    R315958   8.266  15.934   9.296  0.1070 -0.0640  0.1333
 1127ERGO    R415959   8.305  16.188   9.437 -0.3401  0.0834  0.0416
 1127ERGO    R515960   8.418  16.004   9.467 -0.0296  0.2693  0.1364
 1127ERGO    C115961   8.282  16.056   9.820 -0.1915  0.1968  0.0882
 1127ERGO    C215962   8.295  16.004  10.173  0.2679  0.2289  0.0583
 1128ERGO   ROH15963   0.051   3.774   6.469 -0.0142 -0.2052 -0.0822
 1128ERGO    R115964  -0.005   3.850   6.736 -0.0491 -0.0919 -0.1216
 1128ERGO    R215965   0.154   3.775   6.949 -0.1371 -0.0913 -0.0577
 1128ERGO    R315966   0.160   4.043   6.996 -0.0319 -0.0777 -0.1419
 1128ERGO    R415967   0.138   3.920   7.262 -0.1261  0.0088 -0.1029
 1128ERGO    R515968   0.007   4.074   7.179 -0.0504  0.0404 -0.1734
 1128ERGO    C115969   0.134   4.255   7.490 -0.0209  0.0799 -0.2082
 1128ERGO    C215970   0.137   4.244   7.771 -0.1092 -0.1656 -0.0041
 1129ERGO   ROH15971   9.773   1.765   8.189  0.0515 -0.0610  0.1344
 1129ERGO    R115972   9.676   1.741   8.454 -0.0000  0.0354  0.1252
 1129ERGO    R215973   9.772   1.551   8.630 -0.1533 -0.0137  0.1596
 1129ERGO    R315974   9.814   1.767   8.789 -0.0227 -0.0233  0.1388
 1129ERGO    R415975   9.810   1.540   8.974 -0.2485  0.0101  0.1710
 1129ERGO    R515976   9.689   1.721   8.988 -0.1090  0.1063  0.1141
 1129ERGO    C115977   9.871   1.737   9.323 -0.1812  0.0149  0.1582
 1129ERGO    C215978   9.924   1.803   9.683 -0.2047 -0.0539 -0.0157
 1130ERGO   ROH15979  13.744  13.639   6.364  0.2425  0.1035  0.1724
 1130ERGO    R115980  13.897  13.442   6.497  0.2165  0.0372  0.1058
 1130ERGO    R215981  14.136  13.499   6.623  0.2183 -0.0342  0.1403
 1130ERGO    R315982  14.015  13.383   6.837  0.1939 -0.1012  0.0895
 1130ERGO    R415983  14.296  13.410   6.916  0.2030 -0.2294  0.0901
 1130ERGO    R515984  14.177  13.227   6.920  0.1473 -0.1924  0.0064
 1130ERGO    C115985  14.274  13.249   7.288  0.1711 -0.4059  0.0132
 1130ERGO    C215986  14.606  13.165   7.510 -0.2079 -0.0591 -0.2400
 1131ERGO   ROH15987   7.127  15.650   6.935 -0.1988 -0.0130 -0.0080
 1131ERGO    R115988   7.109  15.510   7.180 -0.1399  0.0628  0.0389
 1131ERGO    R215989   7.315  15.356   7.280 -0.1451  0.0367 -0.0009
 1131ERGO    R315990   7.284  15.513   7.500 -0.0139  0.1050 -0.0288
 1131ERGO    R415991   7.347  15.247   7.606 -0.3480  0.0359  0.0202
 1131ERGO    R515992   7.175  15.371   7.659 -0.2206  0.2472 -0.0357
 1131ERGO    C115993   7.335  15.331   8.003 -0.3430  0.0995  0.0062
 1131ERGO    C215994   7.240  15.096   8.321  0.2194 -0.2310 -0.1286
 1132ERGO   ROH15995   2.476  10.715   6.951  0.2306 -0.1989 -0.0412
 1132ERGO    R115996   2.623  10.767   7.187  0.1382 -0.1123 -0.0022
 1132ERGO    R215997   2.501  10.805   7.432  0.0437 -0.0532 -0.0582
 1132ERGO    R315998   2.669  10.606   7.510  0.0385 -0.0117  0.0629
 1132ERGO    R415999   2.659  10.788   7.740 -0.1503 -0.0012  0.0462
 1132ERGO    R516000   2.838  10.717   7.638 -0.0681  0.0325  0.1668
 1132ERGO    C116001   2.908  10.591   7.992 -0.2683  0.0681  0.2206
 1132ERGO    C216002   2.878  10.398   8.351 -0.1979 -0.0611 -0.0415
 1133ERGO   ROH16003   4.933   7.717   9.972  0.0594 -0.1152 -0.0464
 1133ERGO    R116004   5.093   7.679   9.741  0.1002  0.0325 -0.0436
 1133ERGO    R216005   5.043   7.479   9.556  0.1946  0.0850 -0.1273
 1133ERGO    R316006   5.043   7.687   9.381  0.1386  0.1534 -0.0468
 1133ERGO    R416007   5.072   7.449   9.213  0.1761  0.2221 -0.1410
 1133ERGO    R516008   5.202   7.624   9.213  0.1402  0.2499 -0.0828
 1133ERGO    C116009   5.090   7.627   8.849  0.1128  0.3661 -0.0734
 1133ERGO    C216010   4.955   7.595   8.634 -0.2795 -0.0715 -0.0215
 1134ERGO   ROH16011  17.053   6.722   6.764 -0.2181 -0.3295  0.1254
 1134ERGO    R116012  17.067   6.944   6.939  0.2113 -0.1333 -0.1422
 1134ERGO    R216013  16.912   6.964   7.168  0.0692  0.5456 -0.2722
 1134ERGO    R316014  17.153   7.001   7.288  0.0872  0.0741 -0.1453
 1134ERGO    R416015  16.958   7.081   7.490  0.1498  0.3509 -0.2109
 1134ERGO    R516016  17.126   7.199   7.418  0.3922  0.0767 -0.0887
 1134ERGO    C116017  17.211   7.184   7.790  0.2139 -0.2051 -0.0560
 1134ERGO    C216018  17.440   7.339   8.004  0.2186  0.1242 -0.1234
 1135ERGO   ROH16019   0.221  17.457   6.747  0.1590  0.2320  0.0947
 1135ERGO    R116020   0.212  17.276   6.964 -0.0963  0.2301  0.0847
 1135ERGO    R216021   0.430  17.226   7.125 -0.1720 -0.0637  0.0970
 1135ERGO    R316022   0.259  17.293   7.325 -0.1029  0.1507  0.0915
 1135ERGO    R416023   0.492  17.180   7.462 -0.2443 -0.1646  0.0974
 1135ERGO    R516024   0.284  17.118   7.487 -0.3356  0.0998  0.0829
 1135ERGO    C116025   0.367  17.217   7.846 -0.2215 -0.0221  0.0925
 1135ERGO    C216026   0.503  17.359   8.108 -0.5495  0.1304  0.0614
 1136ERGO   ROH16027  16.144   1.608   7.084  0.0315 -0.1180  0.0375
 1136ERGO    R116028  16.141   1.434   7.307  0.0222 -0.1179  0.0384
 1136ERGO    R216029  16.249   1.180   7.300  0.0740 -0.1009  0.0605
 1136ERGO    R316030  16.389   1.268   7.516  0.0161 -0.0678  0.0838
 1136ERGO    R416031  16.365   0.978   7.555 -0.1439 -0.0316  0.2171
 1136ERGO    R516032  16.308   1.133   7.697 -0.1326  0.0630  0.1129
 1136ERGO    C116033  16.564   0.942   7.907 -0.3254  0.0399  0.3301
 1136ERGO    C216034  16.844   0.755   7.914 -0.2297  0.1336  0.0578
 1137ERGO   ROH16035  17.370   0.251   6.724 -0.0298  0.0143  0.0103
 1137ERGO    R116036  17.158   0.244   6.911 -0.0218  0.0943  0.0253
 1137ERGO    R216037  17.017   0.013   6.966 -0.2000  0.1700 -0.0646
 1137ERGO    R316038  17.086   0.071   7.223 -0.1236  0.0060 -0.0487
 1137ERGO    R416039  16.847  -0.099   7.245 -0.1099  0.0030 -0.0773
 1137ERGO    R516040  16.875   0.098   7.335 -0.0810 -0.0609  0.0361
 1137ERGO    C116041  16.812  -0.111   7.648  0.0144 -0.2481 -0.0698
 1137ERGO    C216042  16.798  -0.104   7.977  0.0281 -0.0376 -0.0044
 1138ERGO   ROH16043  15.923   2.525   6.744 -0.0734 -0.0424  0.0179
 1138ERGO    R116044  15.880   2.549   7.022  0.1263 -0.0147  0.0483
 1138ERGO    R216045  16.074   2.640   7.196  0.1671  0.2618 -0.1348
 1138ERGO    R316046  15.881   2.817   7.268  0.0170  0.0599 -0.0315
 1138ERGO    R416047  16.092   2.848   7.471  0.0711  0.2434 -0.1147
 1138ERGO    R516048  15.880   2.809   7.508  0.1243  0.0259 -0.0320
 1138ERGO    C116049  15.921   3.136   7.699 -0.1258  0.0431 -0.0060
 1138ERGO    C216050  16.042   3.413   7.833  0.0610  0.1663 -0.0328
 1139ERGO   ROH16051  15.974   5.936   6.489 -0.0371 -0.0691 -0.1019
 1139ERGO    R116052  16.012   6.064   6.739  0.0451 -0.0855 -0.1054
 1139ERGO    R216053  15.801   6.161   6.889  0.1105  0.1225 -0.1438
 1139ERGO    R316054  15.911   6.006   7.084 -0.0627  0.0319 -0.1163
 1139ERGO    R416055  15.674   6.125   7.209  0.0318  0.2699 -0.1577
 1139ERGO    R516056  15.878   6.131   7.285  0.0292  0.0812 -0.1312
 1139ERGO    C116057  15.703   5.959   7.577 -0.1768  0.2707 -0.1401
 1139ERGO    C216058  15.493   5.890   7.927  0.1244 -0.0820 -0.0096
 1140ERGO   ROH16059   4.516   7.930  10.075 -0.0348  0.2081  0.0975
 1140ERGO    R116060   4.355   7.880   9.848  0.0992 -0.1365  0.0753
 1140ERGO    R216061   4.282   8.079   9.670 -0.3557 -0.2730  0.1069
 1140ERGO    R316062   4.391   7.910   9.487  0.0619  0.0085  0.0819
 1140ERGO    R416063   4.188   8.058   9.338 -0.2723 -0.4084  0.0895
 1140ERGO    R516064   4.207   7.842   9.351  0.2210 -0.3837  0.0425
 1140ERGO    C116065   4.236   7.888   8.973  0.1684 -0.2231  0.0557
 1140ERGO    C216066   4.179   7.821   8.658 -0.1018 -0.1013  0.1894
 1141ERGO   ROH16067   1.020  12.347   6.670 -0.0928  0.2082 -0.0684
 1141ERGO    R116068   1.106  12.401   6.934  0.1040  0.0969 -0.1077
 1141ERGO    R216069   0.981  12.586   7.096  0.3210  0.1441  0.0103
 1141ERGO    R316070   0.965  12.377   7.268  0.2915  0.1168 -0.0259
 1141ERGO    R416071   0.916  12.614   7.434 -0.2324  0.0566 -0.0800
 1141ERGO    R516072   1.064  12.458   7.470 -0.1079  0.2215  0.1378
 1141ERGO    C116073   0.862  12.433   7.793 -0.5823 -0.0199 -0.1665
 1141ERGO    C216074   0.669  12.405   7.932  0.1466  0.3157 -0.0566
 1142ERGO   ROH16075   0.999  10.759   6.739  0.3435 -0.1434  0.0801
 1142ERGO    R116076   0.955  10.793   7.017  0.3056 -0.2244  0.0833
 1142ERGO    R216077   1.150  10.746   7.206  0.3501 -0.0505  0.0748
 1142ERGO    R316078   1.091  11.000   7.284  0.0921 -0.1184  0.1150
 1142ERGO    R416079   1.255  10.890   7.502  0.5241  0.1179 -0.0655
 1142ERGO    R516080   1.058  10.982   7.521  0.4071 -0.1497  0.1655
 1142ERGO    C116081   1.262  11.212   7.747  0.3832  0.1519 -0.1094
 1142ERGO    C216082   1.191  11.273   8.136 -0.2899  0.0129  0.2551
 1143ERGO   ROH16083   2.146  12.869   6.582  0.2518 -0.0950  0.1381
 1143ERGO    R116084   2.079  12.713   6.808  0.2410 -0.1410  0.1037
 1143ERGO    R216085   2.268  12.630   6.992  0.2142 -0.0717  0.1650
 1143ERGO    R316086   2.100  12.749   7.170  0.0985 -0.1572  0.1137
 1143ERGO    R416087   2.257  12.559   7.330  0.0488 -0.1760  0.1384
 1143ERGO    R516088   2.039  12.572   7.321  0.0515 -0.2137  0.0282
 1143ERGO    C116089   2.093  12.628   7.694 -0.1561 -0.3172  0.0748
 1143ERGO    C216090   2.186  12.553   8.076  0.0424 -0.1685  0.0417
 1144ERGO   ROH16091  12.276  10.922   6.545  0.2701 -0.0426 -0.2075
 1144ERGO    R116092  12.373  10.905   6.811  0.0770  0.0364 -0.1308
 1144ERGO    R216093  12.358  11.117   6.988 -0.1295  0.0605 -0.1785
 1144ERGO    R316094  12.232  10.933   7.145 -0.1835  0.0456 -0.2375
 1144ERGO    R416095  12.340  11.131   7.333  0.0570 -0.1490 -0.1577
 1144ERGO    R516096  12.372  10.915   7.339 -0.0941 -0.1813 -0.3168
 1144ERGO    C116097  12.212  10.967   7.681  0.1149 -0.2850 -0.2010
 1144ERGO    C216098  12.309  10.878   8.089  0.0739 -0.0044 -0.0067
 1145ERGO   ROH16099   0.162   6.232   6.698 -0.0193 -0.1757 -0.0042
 1145ERGO    R116100   0.177   6.289   6.975 -0.0595 -0.0642 -0.0237
 1145ERGO    R216101  -0.031   6.237   7.149 -0.0876  0.0055 -0.0299
 1145ERGO    R316102   0.161   6.099   7.285 -0.1055  0.0584  0.0480
 1145ERGO    R416103  -0.037   6.173   7.489 -0.1317  0.1187 -0.0096
 1145ERGO    R516104   0.177   6.213   7.495 -0.1386  0.1264  0.0103
 1145ERGO    C116105   0.138   6.007   7.814 -0.1742  0.2342  0.0753
 1145ERGO    C216106  -0.054   5.958   8.168  0.1931 -0.3283  0.2026
 1146ERGO   ROH16107   0.885   4.456   6.430 -0.0235  0.0176  0.1391
 1146ERGO    R116108   1.059   4.455   6.653 -0.0776  0.0336  0.1820
 1146ERGO    R216109   1.160   4.688   6.763 -0.0201  0.0383  0.1261
 1146ERGO    R316110   1.053   4.588   6.992 -0.1148  0.1555  0.1336
 1146ERGO    R416111   1.296   4.727   7.079  0.0414 -0.1091  0.1183
 1146ERGO    R516112   1.242   4.520   7.122 -0.1807 -0.0506  0.1226
 1146ERGO    C116113   1.274   4.656   7.477 -0.0118 -0.0849  0.1206
 1146ERGO    C216114   1.223   4.795   7.865  0.0405  0.1395 -0.3324
 1147ERGO   ROH16115   6.571  12.581   6.646  0.0500  0.1967 -0.0216
 1147ERGO    R116116   6.560  12.465   6.904  0.1071  0.0473 -0.0859
 1147ERGO    R216117   6.788  12.396   7.046  0.1454  0.2796 -0.0378
 1147ERGO    R316118   6.676  12.552   7.238 -0.1373  0.0280  0.0065
 1147ERGO    R416119   6.836  12.355   7.386  0.1528  0.2053 -0.0485
 1147ERGO    R516120   6.624  12.400   7.416  0.0691 -0.1361 -0.0672
 1147ERGO    C116121   6.759  12.478   7.764 -0.1084 -0.0741 -0.0133
 1147ERGO    C216122   7.010  12.512   7.955  0.1386 -0.1865  0.0769
 1148ERGO   ROH16123   4.593   3.215   6.751  0.0660  0.1177 -0.1697
 1148ERGO    R116124   4.671   3.402   6.949  0.0186  0.0896 -0.1240
 1148ERGO    R216125   4.613   3.367   7.217  0.0299  0.0078 -0.1305
 1148ERGO    R316126   4.881   3.399   7.246  0.0218  0.0707 -0.1270
 1148ERGO    R416127   4.768   3.491   7.500 -0.0071  0.1401 -0.1674
 1148ERGO    R516128   4.904   3.602   7.371 -0.0229  0.1195 -0.1992
 1148ERGO    C116129   5.110   3.593   7.692 -0.0362  0.2762 -0.1856
 1148ERGO    C216130   5.057   3.673   8.042 -0.1663  0.0539  0.2712
 1149ERGO   ROH16131  13.158   4.716   6.836  0.1767  0.1896  0.0787
 1149ERGO    R116132  13.078   4.642   7.097  0.1245  0.1295  0.0450
 1149ERGO    R216133  13.059   4.378   7.178  0.2148  0.1162  0.0120
 1149ERGO    R316134  13.224   4.461   7.378  0.1119  0.1675  0.0772
 1149ERGO    R416135  13.073   4.239   7.494  0.1465  0.1022  0.0094
 1149ERGO    R516136  13.092   4.439   7.576  0.0429  0.1084  0.0281
 1149ERGO    C116137  13.235   4.236   7.865  0.0103  0.1422  0.0692
 1149ERGO    C216138  13.400   3.954   7.976  0.1932  0.0189 -0.0047
 1150ERGO   ROH16139  17.548  15.480   6.851  0.0629 -0.0373  0.0066
 1150ERGO    R116140  17.449  15.542   7.109 -0.2616 -0.2013 -0.0731
 1150ERGO    R216141  17.342  15.350   7.277  0.1693 -0.4464 -0.0577
 1150ERGO    R316142  17.526  15.447   7.452 -0.1811  0.1486  0.0083
 1150ERGO    R416143  17.326  15.314   7.620  0.0946 -0.3537 -0.0519
 1150ERGO    R516144  17.397  15.519   7.640 -0.4892 -0.1339 -0.0891
 1150ERGO    C116145  17.489  15.384   7.985 -0.2776  0.2589  0.0136
 1150ERGO    C216146  17.497  15.257   8.245  0.1838  0.0860 -0.1294
 1151ERGO   ROH16147   7.094   7.850   6.443  0.0434 -0.0959 -0.1727
 1151ERGO    R116148   6.994   7.650   6.616  0.0570 -0.1614 -0.2402
 1151ERGO    R216149   7.156   7.460   6.734  0.0887 -0.1161 -0.2083
 1151ERGO    R316150   7.042   7.552   6.963 -0.0332 -0.1930 -0.2369
 1151ERGO    R416151   7.157   7.292   7.036  0.1374 -0.1036 -0.2011
 1151ERGO    R516152   6.951   7.356   7.066  0.0845 -0.2542 -0.2516
 1151ERGO    C116153   7.050   7.281   7.427  0.0513 -0.1684 -0.2237
 1151ERGO    C216154   7.082   7.087   7.617 -0.1557  0.1895  0.1311
 1152ERGO   ROH16155   4.122   4.217   6.831  0.0956 -0.0729  0.0971
 1152ERGO    R116156   4.291   4.274   7.051  0.0389  0.0598  0.1092
 1152ERGO    R216157   4.224   4.457   7.247 -0.1534 -0.0414  0.1519
 1152ERGO    R316158   4.271   4.247   7.413  0.0596 -0.0338  0.1013
 1152ERGO    R416159   4.249   4.478   7.591  0.0198 -0.0864  0.1415
 1152ERGO    R516160   4.413   4.336   7.583  0.0938  0.0174  0.0368
 1152ERGO    C116161   4.308   4.293   7.947  0.3207 -0.1054  0.0880
 1152ERGO    C216162   4.116   4.087   8.229 -0.0880  0.2370  0.0384
 1153ERGO   ROH16163  12.844  14.603   6.950  0.1050 -0.3367  0.0802
 1153ERGO    R116164  12.970  14.639   7.201  0.1479 -0.2873  0.0523
 1153ERGO    R216165  12.828  14.659   7.438  0.1812 -0.1407  0.0638
 1153ERGO    R316166  12.991  14.456   7.515  0.1118 -0.1748  0.1200
 1153ERGO    R416167  12.952  14.617   7.757  0.3819  0.0507  0.0132
 1153ERGO    R516168  13.143  14.558   7.670  0.2837 -0.1381 -0.0718
 1153ERGO    C116169  13.178  14.402   8.017  0.4336  0.1302  0.0365
 1153ERGO    C216170  13.337  14.266   8.398 -0.2852  0.0465  0.0748
 1154ERGO   ROH16171  10.250   4.038   7.123 -0.2390 -0.1252  0.1271
 1154ERGO    R116172  10.463   4.093   7.301 -0.1599  0.0479 -0.0166
 1154ERGO    R216173  10.440   4.273   7.511 -0.1781  0.0020  0.0235
 1154ERGO    R316174  10.523   4.061   7.659  0.1221  0.0555 -0.0611
 1154ERGO    R416175  10.557   4.292   7.835 -0.2372  0.0307  0.0421
 1154ERGO    R516176  10.708   4.145   7.784 -0.0119  0.2751 -0.0074
 1154ERGO    C116177  10.702   4.104   8.163  0.0102  0.0976 -0.0265
 1154ERGO    C216178  10.895   3.855   8.354 -0.0944 -0.1838  0.4610
 1155ERGO   ROH16179   2.486   3.851   6.881 -0.0214 -0.0375  0.0217
 1155ERGO    R116180   2.578   3.934   7.136  0.0373  0.0214 -0.0180
 1155ERGO    R216181   2.406   4.005   7.340  0.0851  0.1846 -0.0312
 1155ERGO    R316182   2.546   3.818   7.479  0.0077  0.1728  0.0309
 1155ERGO    R416183   2.481   4.025   7.677 -0.0083  0.2072 -0.0117
 1155ERGO    R516184   2.679   3.945   7.632 -0.0115  0.1629  0.0549
 1155ERGO    C116185   2.657   3.861   8.003 -0.1353  0.2091  0.0580
 1155ERGO    C216186   2.665   3.739   8.299  0.1283 -0.0153  0.2068
 1156ERGO   ROH16187  15.463  12.520   6.562  0.2541  0.2720  0.0862
 1156ERGO    R116188  15.516  12.476   6.837  0.2204  0.1444  0.0729
 1156ERGO    R216189  15.351  12.570   7.037  0.2188  0.0890  0.0985
 1156ERGO    R316190  15.350  12.310   7.114  0.1636  0.0556 -0.0136
 1156ERGO    R416191  15.227  12.454   7.338  0.0185 -0.0378 -0.0308
 1156ERGO    R516192  15.396  12.317   7.349  0.0098 -0.0450  0.0215
 1156ERGO    C116193  15.154  12.141   7.586 -0.1500 -0.1428 -0.2114
 1156ERGO    C216194  14.883  11.880   7.615  0.1506 -0.0724 -0.0014
 1157ERGO   ROH16195   8.002  14.930   6.890 -0.3976  0.0556  0.3712
 1157ERGO    R116196   8.051  14.768   7.117 -0.0819 -0.1292  0.1800
 1157ERGO    R216197   8.287  14.628   7.153  0.1271  0.1430 -0.0764
 1157ERGO    R316198   8.292  14.761   7.390  0.0494 -0.1008  0.0655
 1157ERGO    R416199   8.510  14.566   7.410  0.1527 -0.0043 -0.1328
 1157ERGO    R516200   8.346  14.593   7.551  0.1352 -0.2403 -0.1069
 1157ERGO    C116201   8.644  14.654   7.782  0.0947 -0.3188 -0.0326
 1157ERGO    C216202   8.969  14.588   7.893  0.4124 -0.2426 -0.1240
 1158ERGO   ROH16203  16.699   7.818   6.638  0.3249  0.0835 -0.0231
 1158ERGO    R116204  16.584   8.018   6.802  0.2091  0.0571 -0.0701
 1158ERGO    R216205  16.660   8.057   7.065  0.0253  0.0142 -0.0047
 1158ERGO    R316206  16.700   8.313   6.981  0.0872  0.0255  0.0606
 1158ERGO    R416207  16.633   8.337   7.265 -0.3156  0.0072 -0.0352
 1158ERGO    R516208  16.536   8.441   7.100 -0.1056 -0.0111 -0.1662
 1158ERGO    C116209  16.655   8.740   7.304 -0.4558  0.0136  0.0083
 1158ERGO    C216210  16.721   8.843   7.656  0.2381  0.0079  0.0968
 1159ERGO   ROH16211   3.673   5.639   6.446  0.2332  0.0860 -0.0632
 1159ERGO    R116212   3.796   5.581   6.694 -0.1263 -0.1352  0.0715
 1159ERGO    R216213   3.965   5.759   6.821  0.1802 -0.4852  0.1711
 1159ERGO    R316214   3.794   5.723   7.029 -0.1102 -0.0283  0.0268
 1159ERGO    R416215   3.968   5.944   7.113  0.3299 -0.3910  0.1110
 1159ERGO    R516216   3.929   5.760   7.224 -0.1999 -0.2765  0.1406
 1159ERGO    C116217   3.809   6.017   7.479  0.1445  0.0928 -0.0595
 1159ERGO    C216218   3.804   6.157   7.767 -0.0162 -0.1275  0.0625
 1160ERGO   ROH16219  16.972   9.540   6.814 -0.1493 -0.0286  0.0383
 1160ERGO    R116220  17.060   9.500   7.080 -0.0926 -0.2707 -0.0155
 1160ERGO    R216221  16.937   9.618   7.297  0.2553 -0.0647  0.0760
 1160ERGO    R316222  16.920   9.362   7.387 -0.2220 -0.0612  0.0214
 1160ERGO    R416223  16.952   9.524   7.630  0.3212 -0.1801  0.0414
 1160ERGO    R516224  17.074   9.353   7.571 -0.0859 -0.4354 -0.1016
 1160ERGO    C116225  16.944   9.229   7.907 -0.0884 -0.2437 -0.0300
 1160ERGO    C216226  16.997   9.262   8.246 -0.2643  0.0990 -0.0653
 1161ERGO   ROH16227   3.763  10.960   6.826 -0.0183  0.1427 -0.0745
 1161ERGO    R116228   3.675  10.743   6.985  0.1377  0.0570 -0.1041
 1161ERGO    R216229   3.851  10.569   7.110  0.2652  0.2424 -0.0228
 1161ERGO    R316230   3.709  10.638   7.332  0.0977  0.1064 -0.0851
 1161ERGO    R416231   3.821  10.374   7.393  0.3775  0.2377 -0.0136
 1161ERGO    R516232   3.611  10.432   7.406  0.3027 -0.0001 -0.1023
 1161ERGO    C116233   3.671  10.324   7.767  0.2856  0.1072 -0.0666
 1161ERGO    C216234   3.770  10.333   8.014  0.2227 -0.2458 -0.0071
 1162ERGO   ROH16235   9.445   6.857   7.006 -0.1536 -0.0028  0.1105
 1162ERGO    R116236   9.505   6.707   7.239 -0.1482 -0.1153  0.0379
 1162ERGO    R216237   9.525   6.822   7.489  0.1884 -0.1785  0.0476
 1162ERGO    R316238   9.341   6.634   7.555  0.0097  0.0297  0.1544
 1162ERGO    R416239   9.534   6.630   7.776  0.3318 -0.4320 -0.1233
 1162ERGO    R516240   9.469   6.459   7.657 -0.0878 -0.2437 -0.1772
 1162ERGO    C116241   9.366   6.341   8.005  0.2477 -0.3841 -0.1227
 1162ERGO    C216242   9.200   6.196   8.283  0.1425 -0.0204  0.2217
 1163ERGO   ROH16243  11.447   3.611   6.667 -0.0921  0.0202 -0.0688
 1163ERGO    R116244  11.414   3.379   6.825 -0.0190 -0.0247 -0.1178
 1163ERGO    R216245  11.596   3.172   6.825  0.0892  0.0680 -0.0997
 1163ERGO    R316246  11.595   3.214   7.094 -0.0116  0.0239 -0.0930
 1163ERGO    R416247  11.713   2.947   7.060  0.0601  0.0554 -0.0979
 1163ERGO    R516248  11.543   2.999   7.187  0.0051 -0.0035 -0.1465
 1163ERGO    C116249  11.780   2.856   7.449 -0.0513  0.0066 -0.0906
 1163ERGO    C216250  12.002   2.749   7.465  0.0997  0.0058 -0.1883
 1164ERGO   ROH16251  15.644  16.538   6.857  0.0006  0.2487  0.1383
 1164ERGO    R116252  15.852  16.525   7.050 -0.0159  0.0440  0.1437
 1164ERGO    R216253  15.868  16.700   7.264  0.1742  0.0549  0.1148
 1164ERGO    R316254  15.876  16.471   7.409 -0.0801  0.0654  0.1533
 1164ERGO    R416255  15.976  16.677   7.591  0.1254  0.0052  0.1284
 1164ERGO    R516256  16.076  16.490   7.539 -0.0627 -0.1157  0.1653
 1164ERGO    C116257  16.048  16.448   7.917 -0.1418 -0.0135  0.1725
 1164ERGO    C216258  16.332  16.324   8.193  0.0992  0.0537  0.0874
 1165ERGO   ROH16259   6.040   6.651  10.137  0.1594 -0.0779 -0.1058
 1165ERGO    R116260   6.150   6.489   9.933  0.0767 -0.0750 -0.1528
 1165ERGO    R216261   5.994   6.329   9.770  0.0053 -0.0286 -0.1297
 1165ERGO    R316262   6.120   6.464   9.571 -0.0226 -0.0299 -0.1483
 1165ERGO    R416263   5.959   6.261   9.433 -0.2292  0.1225 -0.1381
 1165ERGO    R516264   6.173   6.296   9.409 -0.2192 -0.0024 -0.2451
 1165ERGO    C116265   6.058   6.349   9.050 -0.3919  0.2093 -0.1605
 1165ERGO    C216266   5.950   6.159   8.806 -0.2214 -0.2434 -0.0454
 1166ERGO   ROH16267  13.101   0.585   6.787  0.0894 -0.0937  0.1695
 1166ERGO    R116268  13.091   0.489   7.053  0.0145  0.0026  0.2015
 1166ERGO    R216269  13.129   0.653   7.272 -0.1027  0.0903  0.1524
 1166ERGO    R316270  12.889   0.551   7.349 -0.1068  0.0649  0.1081
 1166ERGO    R416271  13.006   0.661   7.595 -0.1060 -0.0168  0.1542
 1166ERGO    R516272  12.932   0.458   7.566 -0.1086 -0.0110  0.0801
 1166ERGO    C116273  12.710   0.569   7.856 -0.1119 -0.1030  0.1138
 1166ERGO    C216274  12.516   0.378   8.074  0.3692  0.1379 -0.0877
 1167ERGO   ROH16275   6.478   4.167   8.527  0.0447 -0.0622  0.2044
 1167ERGO    R116276   6.388   4.144   8.794  0.0789 -0.0067  0.2209
 1167ERGO    R216277   6.485   3.952   8.968  0.0480 -0.0180  0.2263
 1167ERGO    R316278   6.536   4.167   9.126  0.1375 -0.0160  0.1953
 1167ERGO    R416279   6.456   3.955   9.312 -0.0688  0.0805  0.2162
 1167ERGO    R516280   6.370   4.155   9.298  0.0699  0.1350  0.1412
 1167ERGO    C116281   6.487   4.159   9.661 -0.0529  0.1397  0.1812
 1167ERGO    C216282   6.478   4.102  10.073 -0.0168 -0.0581 -0.0362
 1168ERGO   ROH16283  11.778   5.812   6.760  0.0659  0.0937  0.1145
 1168ERGO    R116284  11.721   5.803   7.037  0.0246  0.1507  0.1081
 1168ERGO    R216285  11.760   5.576   7.190 -0.0992  0.1481  0.1404
 1168ERGO    R316286  11.907   5.745   7.344 -0.0421  0.0992  0.1384
 1168ERGO    R416287  11.804   5.547   7.532  0.0662  0.0202  0.1096
 1168ERGO    R516288  11.784   5.763   7.548  0.0554  0.0097  0.2034
 1168ERGO    C116289  11.967   5.688   7.875  0.2162 -0.1001  0.0897
 1168ERGO    C216290  12.060   5.797   8.162 -0.1660  0.1132 -0.2852
 1169ERGO   ROH16291   9.144   9.432   6.593 -0.1049 -0.0652 -0.1012
 1169ERGO    R116292   9.014   9.649   6.720 -0.0390 -0.0436 -0.0709
 1169ERGO    R216293   8.741   9.657   6.759 -0.0392  0.0471 -0.0964
 1169ERGO    R316294   8.811   9.698   7.018 -0.0507 -0.0290 -0.0808
 1169ERGO    R416295   8.527   9.771   7.005  0.0147  0.2370 -0.1350
 1169ERGO    R516296   8.689   9.894   7.082  0.1175  0.0844 -0.0981
 1169ERGO    C116297   8.468   9.875   7.393  0.0352  0.2762 -0.1428
 1169ERGO    C216298   8.357   9.971   7.595 -0.1300 -0.0313  0.2091
 1170ERGO   ROH16299   5.513  15.071   6.612  0.2524  0.1254 -0.1486
 1170ERGO    R116300   5.384  14.975   6.846  0.1692  0.0456 -0.2278
 1170ERGO    R216301   5.367  14.705   6.906  0.4026  0.0443 -0.1848
 1170ERGO    R316302   5.480  14.784   7.140  0.1366  0.2110 -0.1066
 1170ERGO    R416303   5.317  14.552   7.212  0.1873  0.1449 -0.1667
 1170ERGO    R516304   5.310  14.749   7.304 -0.0105  0.1884 -0.2558
 1170ERGO    C116305   5.394  14.536   7.609 -0.1878  0.3602 -0.0827
 1170ERGO    C216306   5.540  14.383   7.899 -0.0109 -0.0201 -0.1714
 1171ERGO   ROH16307   1.113   2.108   6.646 -0.2148  0.2174 -0.1526
 1171ERGO    R116308   1.039   2.259   6.874 -0.2257  0.1847 -0.1346
 1171ERGO    R216309   0.778   2.331   6.925 -0.2831 -0.1397  0.0558
 1171ERGO    R316310   0.825   2.211   7.164  0.0681 -0.0156  0.0544
 1171ERGO    R416311   0.757   2.487   7.233 -0.0560 -0.0371  0.0214
 1171ERGO    R516312   0.935   2.379   7.295  0.0936  0.1153 -0.1309
 1171ERGO    C116313   0.789   2.465   7.637  0.4060  0.1392  0.0001
 1171ERGO    C216314   0.659   2.503   7.961  0.1118 -0.0601 -0.0729
 1172ERGO   ROH16315  17.449   2.581   6.846 -0.0584 -0.2085  0.0167
 1172ERGO    R116316  17.693   2.561   6.988 -0.0546 -0.1595  0.0168
 1172ERGO    R216317  17.842   2.782   7.060 -0.0452 -0.1359 -0.0784
 1172ERGO    R316318  17.823   2.673   7.309 -0.0391 -0.0339 -0.0326
 1172ERGO    R416319  17.997   2.907   7.343  0.1560 -0.1517 -0.1793
 1172ERGO    R516320  18.041   2.703   7.403  0.0206 -0.1672 -0.1236
 1172ERGO    C116321  18.069   2.878   7.741  0.2788 -0.0651 -0.1950
 1172ERGO    C216322  18.076   3.028   8.145 -0.1158  0.0612  0.0601
 1173ERGO   ROH16323   5.770  17.170   6.994 -0.0734 -0.0431 -0.0286
 1173ERGO    R116324   5.819  17.226   7.267 -0.0396  0.0098 -0.0451
 1173ERGO    R216325   5.616  17.282   7.446 -0.0278 -0.0685 -0.0048
 1173ERGO    R316326   5.730  17.079   7.587  0.1016  0.0003 -0.0099
 1173ERGO    R416327   5.572  17.228   7.784  0.0448 -0.0785  0.0029
 1173ERGO    R516328   5.784  17.178   7.799  0.0744  0.0385 -0.0216
 1173ERGO    C116329   5.653  17.007   8.114  0.2086 -0.0199  0.0025
 1173ERGO    C216330   5.602  16.961   8.432 -0.1132 -0.4312 -0.1275
 1174ERGO   ROH16331   5.021  15.767   6.452 -0.0418  0.0507  0.1404
 1174ERGO    R116332   4.974  15.870   6.711  0.0884  0.0976  0.1457
 1174ERGO    R216333   4.899  15.710   6.923  0.0039  0.1641  0.1648
 1174ERGO    R316334   5.115  15.823   7.043  0.1163  0.0004  0.1212
 1174ERGO    R416335   4.957  15.712   7.264 -0.0430  0.3084  0.1726
 1174ERGO    R516336   5.028  15.917   7.246  0.1890  0.2236  0.0534
 1174ERGO    C116337   5.193  15.820   7.575  0.0352  0.2387  0.1362
 1174ERGO    C216338   5.150  15.908   7.919  0.2999  0.1415  0.2230
 1175ERGO   ROH16339  14.782   5.610   6.525  0.1625 -0.0497  0.1206
 1175ERGO    R116340  14.972   5.812   6.580  0.1826 -0.0375  0.0066
 1175ERGO    R216341  15.022   6.021   6.406  0.0652 -0.0361 -0.0230
 1175ERGO    R316342  14.969   6.173   6.626  0.1877 -0.0370  0.0081
 1175ERGO    R416343  15.091   6.359   6.434 -0.0478 -0.0043 -0.1183
 1175ERGO    R516344  15.154   6.324   6.640  0.1414  0.0409 -0.1653
 1175ERGO    C116345  15.081   6.698   6.656  0.0013  0.0135 -0.1445
 1175ERGO    C216346  15.013   6.994   6.558 -0.0134  0.1254  0.0635
 1176ERGO   ROH16347  11.588  17.591   6.709  0.0487  0.0815  0.0279
 1176ERGO    R116348  11.690  17.749   6.921 -0.0843  0.1287  0.0573
 1176ERGO    R216349  11.549  17.795   7.154 -0.1554  0.0307  0.0328
 1176ERGO    R316350  11.775  17.700   7.271 -0.1205  0.1573  0.0705
 1176ERGO    R416351  11.590  17.746   7.494 -0.1974  0.0221  0.0369
 1176ERGO    R516352  11.793  17.823   7.475 -0.2395  0.1489  0.0872
 1176ERGO    C116353  11.826  17.628   7.801 -0.1891  0.1357  0.0748
 1176ERGO    C216354  11.747  17.378   7.981  0.0026  0.2917  0.1779
 1177ERGO   ROH16355   9.328   2.454   6.429  0.2820  0.0125 -0.0025
 1177ERGO    R116356   9.295   2.564   6.688  0.0248  0.0869 -0.0630
 1177ERGO    R216357   9.051   2.651   6.784 -0.1332 -0.1760 -0.2138
 1177ERGO    R316358   9.108   2.481   6.989 -0.0130 -0.0196 -0.1156
 1177ERGO    R416359   8.867   2.625   7.075 -0.1707 -0.2075 -0.2400
 1177ERGO    R516360   9.054   2.607   7.186 -0.1755  0.0284 -0.1897
 1177ERGO    C116361   8.813   2.452   7.437 -0.0796 -0.0791 -0.1631
 1177ERGO    C216362   8.546   2.371   7.529 -0.1335  0.1726 -0.1974
 1178ERGO   ROH16363  12.219  11.829   6.316  0.0903  0.1588 -0.1085
 1178ERGO    R116364  12.328  11.913   6.563  0.1663  0.2458 -0.1708
 1178ERGO    R216365  12.347  12.179   6.635 -0.2158  0.2561 -0.0891
 1178ERGO    R316366  12.212  12.095   6.855  0.1082 -0.0580  0.0001
 1178ERGO    R416367  12.323  12.355   6.931 -0.1110  0.0205  0.0627
 1178ERGO    R516368  12.346  12.168   7.039  0.2200 -0.0336 -0.0900
 1178ERGO    C116369  12.182  12.379   7.311  0.2542 -0.4117  0.2348
 1178ERGO    C216370  12.034  12.445   7.638 -0.0018  0.0096 -0.1895
 1179ERGO   ROH16371   8.745  15.536   6.767  0.2750  0.1834 -0.2475
 1179ERGO    R116372   8.788  15.792   6.881  0.0998  0.1431 -0.0837
 1179ERGO    R216373   8.653  15.879   7.106  0.0058 -0.0739 -0.0480
 1179ERGO    R316374   8.904  15.923   7.201 -0.0351  0.0174  0.0168
 1179ERGO    R416375   8.736  16.117   7.343 -0.1317 -0.0312 -0.0427
 1179ERGO    R516376   8.916  16.161   7.228 -0.1186  0.0203  0.0051
 1179ERGO    C116377   9.020  16.296   7.570 -0.2502  0.0793  0.0211
 1179ERGO    C216378   9.345  16.493   7.662 -0.1452 -0.1579 -0.0039
 1180ERGO   ROH16379  12.848   7.207   6.758 -0.0814  0.2075 -0.1377
 1180ERGO    R116380  12.880   7.202   7.039 -0.4806 -0.0115 -0.0882
 1180ERGO    R216381  13.036   7.387   7.174  0.0015 -0.5846  0.1830
 1180ERGO    R316382  12.808   7.426   7.316 -0.0900  0.1647 -0.1208
 1180ERGO    R416383  13.015   7.567   7.468  0.2141 -0.5470  0.1774
 1180ERGO    R516384  12.878   7.416   7.545 -0.4202 -0.1174 -0.0214
 1180ERGO    C116385  12.788   7.709   7.773  0.2518  0.1782 -0.1111
 1180ERGO    C216386  12.812   7.781   8.092 -0.1768  0.1199 -0.1929
 1181ERGO   ROH16387  14.309  10.913   6.281 -0.2222 -0.0887  0.0359
 1181ERGO    R116388  14.382  10.914   6.555 -0.0770 -0.0582 -0.0022
 1181ERGO    R216389  14.351  11.136   6.717  0.0816 -0.0152 -0.0282
 1181ERGO    R316390  14.214  10.962   6.874  0.1067  0.0611  0.0788
 1181ERGO    R416391  14.313  11.167   7.059  0.1565  0.1399 -0.0332
 1181ERGO    R516392  14.341  10.951   7.076  0.1497  0.1457  0.0567
 1181ERGO    C116393  14.162  11.021   7.405  0.2237  0.3018  0.0643
 1181ERGO    C216394  14.151  11.229   7.634  0.0965  0.1223 -0.0870
 1182ERGO   ROH16395   4.096   0.462   6.797  0.1519 -0.0233 -0.0871
 1182ERGO    R116396   4.034   0.613   7.028  0.0103  0.0066 -0.1438
 1182ERGO    R216397   3.865   0.519   7.226  0.0245 -0.0383 -0.1565
 1182ERGO    R316398   4.077   0.574   7.388 -0.0449  0.1372 -0.1220
 1182ERGO    R416399   3.844   0.566   7.567 -0.0300 -0.4068 -0.1044
 1182ERGO    R516400   3.989   0.729   7.549 -0.2827 -0.1527  0.0399
 1182ERGO    C116401   4.029   0.645   7.919 -0.1269 -0.4566 -0.0417
 1182ERGO    C216402   4.138   0.644   8.130  0.1993 -0.3207  0.3890
 1183ERGO   ROH16403   5.271  11.040   6.891  0.1667  0.2813  0.0411
 1183ERGO    R116404   5.424  11.109   7.119  0.1404  0.2903  0.0589
 1183ERGO    R216405   5.330  11.281   7.315  0.0723  0.2220  0.1034
 1183ERGO    R316406   5.390  11.073   7.480  0.1418  0.2001  0.0472
 1183ERGO    R416407   5.370  11.306   7.657 -0.2335  0.0740  0.1517
 1183ERGO    R516408   5.538  11.168   7.643 -0.0905  0.2551  0.2193
 1183ERGO    C116409   5.450  11.126   8.011 -0.3464 -0.0327  0.1272
 1183ERGO    C216410   5.413  11.077   8.386 -0.0246  0.0283 -0.0162
 1184ERGO   ROH16411   9.720   8.105   6.840 -0.2518 -0.1267  0.0611
 1184ERGO    R116412   9.882   8.197   7.054 -0.1150  0.0087 -0.0989
 1184ERGO    R216413   9.937   8.464   7.094 -0.3319  0.0556 -0.1373
 1184ERGO    R316414   9.840   8.414   7.343 -0.0210 -0.0586 -0.0322
 1184ERGO    R416415  10.043   8.621   7.384 -0.2373  0.2163 -0.2560
 1184ERGO    R516416  10.031   8.429   7.486  0.1138  0.1988 -0.2248
 1184ERGO    C116417  10.012   8.665   7.786  0.1097  0.2027 -0.2263
 1184ERGO    C216418  10.107   8.813   8.162 -0.2391 -0.0265  0.1735
 1185ERGO   ROH16419   7.516   9.678   6.792  0.0847 -0.2009  0.1332
 1185ERGO    R116420   7.545   9.793   7.049  0.0645 -0.1411  0.1095
 1185ERGO    R216421   7.366   9.976   7.152  0.0285 -0.1530  0.0734
 1185ERGO    R316422   7.355   9.800   7.359  0.0646 -0.1141  0.1082
 1185ERGO    R416423   7.231  10.044   7.463 -0.0954 -0.1616  0.0218
 1185ERGO    R516424   7.395   9.933   7.553 -0.0628 -0.0529  0.0916
 1185ERGO    C116425   7.141   9.918   7.838 -0.1336 -0.1302  0.0245
 1185ERGO    C216426   6.975  10.094   8.003  0.1767  0.1979  0.1677
 1186ERGO   ROH16427   8.700  10.556   6.402 -0.3029 -0.0782 -0.0992
 1186ERGO    R116428   8.851  10.621   6.632 -0.1943 -0.0936 -0.1662
 1186ERGO    R216429   9.004  10.850   6.649 -0.3222 -0.0100 -0.1606
 1186ERGO    R316430   8.859  10.891   6.875 -0.2016 -0.2006 -0.0456
 1186ERGO    R416431   9.121  11.009   6.933 -0.2325 -0.0668 -0.1648
 1186ERGO    R516432   9.016  10.861   7.053 -0.0646 -0.1866 -0.1610
 1186ERGO    C116433   9.052  11.140   7.311 -0.0671 -0.2788 -0.0592
 1186ERGO    C216434   9.110  11.408   7.417  0.0628 -0.3115 -0.0085
 1187ERGO   ROH16435   6.346   2.650  10.560 -0.0796  0.1922 -0.0309
 1187ERGO    R116436   6.237   2.691  10.302 -0.0267  0.1714 -0.0575
 1187ERGO    R216437   6.343   2.873  10.123  0.0454  0.1195 -0.0739
 1187ERGO    R316438   6.351   2.657   9.958  0.0273  0.0860 -0.0298
 1187ERGO    R416439   6.378   2.887   9.779 -0.0922  0.0419 -0.0910
 1187ERGO    R516440   6.232   2.726   9.763 -0.0609  0.0108  0.0015
 1187ERGO    C116441   6.405   2.692   9.425 -0.1893 -0.0347 -0.0596
 1187ERGO    C216442   6.394   2.845   9.063  0.1113  0.0513  0.1048
 1188ERGO   ROH16443   4.619  17.199   6.718 -0.0116 -0.1537  0.0745
 1188ERGO    R116444   4.509  17.352   6.929 -0.2427 -0.1908 -0.0156
 1188ERGO    R216445   4.368  17.239   7.138  0.0125 -0.2980  0.1057
 1188ERGO    R316446   4.549  17.373   7.290 -0.1851  0.1540 -0.0383
 1188ERGO    R416447   4.387  17.221   7.482  0.1992 -0.0840  0.1088
 1188ERGO    R516448   4.426  17.436   7.486 -0.2328  0.0071 -0.0207
 1188ERGO    C116449   4.568  17.336   7.826  0.1222  0.4646 -0.0246
 1188ERGO    C216450   4.665  17.035   8.042  0.1655 -0.1792  0.0282
 1189ERGO   ROH16451  12.383   1.258   6.605  0.0122  0.2229  0.0827
 1189ERGO    R116452  12.454   1.352   6.863 -0.0365  0.2011  0.1042
 1189ERGO    R216453  12.266   1.438   7.047 -0.0863  0.0099  0.1438
 1189ERGO    R316454  12.388   1.255   7.207  0.0620  0.0516  0.0822
 1189ERGO    R416455  12.282   1.458   7.391 -0.2610 -0.1821  0.1652
 1189ERGO    R516456  12.488   1.386   7.381 -0.1673  0.0674  0.2075
 1189ERGO    C116457  12.405   1.298   7.743 -0.2234 -0.2547  0.1198
 1189ERGO    C216458  12.502   1.255   8.152 -0.0277 -0.0141 -0.1433
 1190ERGO   ROH16459  13.218  11.443   6.244  0.2107  0.0544 -0.0610
 1190ERGO    R116460  13.329  11.510   6.495  0.0870  0.1092 -0.0200
 1190ERGO    R216461  13.178  11.616   6.702 -0.0436  0.0199 -0.0679
 1190ERGO    R316462  13.282  11.407   6.841  0.0242  0.0730 -0.0392
 1190ERGO    R416463  13.147  11.571   7.043 -0.0282  0.0568 -0.0618
 1190ERGO    R516464  13.354  11.504   7.048 -0.0066  0.1246 -0.0527
 1190ERGO    C116465  13.227  11.349   7.373  0.0444  0.1280 -0.0312
 1190ERGO    C216466  13.154  11.236   7.786  0.3157 -0.1890  0.0358
 1191ERGO   ROH16467   3.410  13.104   6.711 -0.0383 -0.0700 -0.0771
 1191ERGO    R116468   3.337  13.295   6.907 -0.0516 -0.0185 -0.1320
 1191ERGO    R216469   3.253  13.224   7.160 -0.0966  0.0474 -0.1293
 1191ERGO    R316470   3.452  13.391   7.238 -0.0948  0.0482 -0.1356
 1191ERGO    R416471   3.322  13.308   7.488 -0.1029  0.0596 -0.1312
 1191ERGO    R516472   3.358  13.513   7.422 -0.0984  0.0580 -0.1418
 1191ERGO    C116473   3.550  13.515   7.752 -0.1047  0.0673 -0.1384
 1191ERGO    C216474   3.576  13.509   8.077 -0.2113 -0.2258  0.2092
 1192ERGO   ROH16475   3.509   9.497   6.700 -0.2574 -0.1384  0.0281
 1192ERGO    R116476   3.535   9.363   6.948 -0.0962 -0.1698 -0.0052
 1192ERGO    R216477   3.581   9.497   7.185  0.1143 -0.2048 -0.0259
 1192ERGO    R316478   3.360   9.361   7.267  0.1465 -0.1663  0.1313
 1192ERGO    R416479   3.482   9.460   7.514  0.1427  0.1231  0.0239
 1192ERGO    R516480   3.428   9.253   7.470  0.1822  0.0609  0.2443
 1192ERGO    C116481   3.217   9.310   7.782  0.1895  0.3502  0.2005
 1192ERGO    C216482   3.086   9.415   8.059  0.2787  0.1342 -0.0882
 1193ERGO   ROH16483  13.980   6.901   6.440 -0.1189  0.0954  0.0580
 1193ERGO    R116484  13.886   7.022   6.678 -0.1626  0.0477  0.0668
 1193ERGO    R216485  13.916   6.906   6.927 -0.1322  0.0355  0.0632
 1193ERGO    R316486  14.032   7.144   6.988 -0.2051  0.0656  0.0784
 1193ERGO    R416487  13.915   7.050   7.241 -0.1925  0.0289  0.0648
 1193ERGO    R516488  13.881   7.244   7.146 -0.2404  0.0190  0.0700
 1193ERGO    C116489  14.023   7.357   7.482 -0.2959  0.0534  0.0800
 1193ERGO    C216490  14.222   7.321   7.752  0.3258 -0.0050 -0.0977
 1194ERGO   ROH16491   8.386   6.135   6.717  0.2742 -0.0209 -0.0818
 1194ERGO    R116492   8.345   6.142   6.997  0.1593  0.1908 -0.1014
 1194ERGO    R216493   8.240   6.363   7.126 -0.0841  0.2215 -0.3325
 1194ERGO    R316494   8.061   6.182   7.222  0.0345  0.1469 -0.2510
 1194ERGO    R416495   8.029   6.417   7.394  0.1283  0.0629 -0.1297
 1194ERGO    R516496   8.067   6.213   7.459  0.2262  0.0484 -0.2447
 1194ERGO    C116497   7.738   6.279   7.640  0.3632 -0.0997  0.0650
 1194ERGO    C216498   7.470   6.100   7.939 -0.0770 -0.5070 -0.1958
 1195ERGO   ROH16499  13.445  17.347   6.726  0.0628  0.1430  0.0983
 1195ERGO    R116500  13.424  17.209   6.972  0.1238  0.0547  0.0540
 1195ERGO    R216501  13.563  17.285   7.198  0.0920  0.0408  0.0752
 1195ERGO    R316502  13.315  17.287   7.310  0.0929 -0.1021  0.0818
 1195ERGO    R416503  13.500  17.305   7.538  0.0936 -0.1144  0.0854
 1195ERGO    R516504  13.340  17.159   7.511  0.1506 -0.1702  0.0331
 1195ERGO    C116505  13.231  17.318   7.840  0.0953 -0.3390  0.0976
 1195ERGO    C216506  13.283  17.194   8.124  0.4142  0.3372  0.0857
 1196ERGO   ROH16507  10.890   5.295   7.053 -0.0305 -0.1899 -0.0134
 1196ERGO    R116508  10.825   5.345   7.324  0.1021  0.0253 -0.0187
 1196ERGO    R216509  10.660   5.178   7.471 -0.0846  0.3091  0.0988
 1196ERGO    R316510  10.871   5.174   7.642 -0.0422  0.1106  0.0511
 1196ERGO    R416511  10.638   5.109   7.809 -0.0386  0.0944  0.0605
 1196ERGO    R516512  10.784   5.267   7.845  0.0377  0.0165  0.1338
 1196ERGO    C116513  10.823   5.066   8.167  0.0279 -0.2169 -0.0064
 1196ERGO    C216514  10.765   4.906   8.405  0.0695 -0.1512  0.0329
 1197ERGO   ROH16515  13.901  16.265   6.939  0.1030  0.4011 -0.0726
 1197ERGO    R116516  13.905  16.385   7.195  0.1953  0.2262  0.0090
 1197ERGO    R216517  13.743  16.300   7.402  0.0837  0.2517 -0.0717
 1197ERGO    R316518  13.979  16.280   7.536  0.0482 -0.0775 -0.0481
 1197ERGO    R416519  13.773  16.265   7.744 -0.0086  0.5394 -0.0307
 1197ERGO    R516520  13.942  16.402   7.739  0.2722  0.2100 -0.1698
 1197ERGO    C116521  14.012  16.226   8.069 -0.0958  0.3980  0.0152
 1197ERGO    C216522  14.022  16.187   8.426  0.1530 -0.1177  0.1937
 1198ERGO   ROH16523   2.345  17.701   6.544  0.0826 -0.1743  0.1175
 1198ERGO    R116524   2.392  17.801   6.804 -0.0405 -0.0067  0.0762
 1198ERGO    R216525   2.206  17.953   6.941 -0.1920 -0.1040 -0.0245
 1198ERGO    R316526   2.242  17.764   7.133 -0.0518  0.0200  0.0751
 1198ERGO    R416527   2.180  18.009   7.281 -0.4647  0.0113 -0.0618
 1198ERGO    R516528   2.352  17.880   7.311 -0.3046  0.2477  0.0937
 1198ERGO    C116529   2.197  17.864   7.660 -0.4919  0.1949  0.0101
 1198ERGO    C216530   2.111  17.674   7.986 -0.1113  0.1093 -0.3390
 1199ERGO   ROH16531  10.267   7.339   6.675 -0.2198 -0.1724 -0.2353
 1199ERGO    R116532  10.334   7.285   6.945 -0.0322  0.1425 -0.2140
 1199ERGO    R216533  10.336   7.481   7.140 -0.4556  0.2729 -0.3321
 1199ERGO    R316534  10.169   7.309   7.268 -0.0308 -0.0575 -0.1967
 1199ERGO    R416535  10.288   7.470   7.482 -0.4826  0.4885 -0.3273
 1199ERGO    R516536  10.285   7.252   7.470  0.0981  0.4482 -0.1135
 1199ERGO    C116537  10.103   7.302   7.802 -0.0996  0.3037 -0.1975
 1199ERGO    C216538   9.977   7.463   7.918 -0.2708  0.3723  0.4291
 1200ERGO   ROH16539  12.658   5.265   8.329  0.0891 -0.1268  0.0671
 1200ERGO    R116540  12.921   5.305   8.425  0.0978 -0.0293  0.0011
 1200ERGO    R216541  13.138   5.168   8.325  0.1150  0.0170 -0.0191
 1200ERGO    R316542  13.238   5.418   8.286  0.0350  0.0393 -0.0894
 1200ERGO    R416543  13.474   5.250   8.338  0.1141  0.0782 -0.3039
 1200ERGO    R516544  13.419   5.434   8.442  0.1692  0.0619 -0.2429
 1200ERGO    C116545  13.763   5.533   8.309  0.0387  0.1348 -0.5357
 1200ERGO    C216546  14.040   5.544   8.175  0.1866  0.0708 -0.0900
 1201ERGO   ROH16547  15.553  10.035   6.728 -0.0397  0.0782  0.1257
 1201ERGO    R116548  15.668   9.998   6.985  0.0441  0.1116  0.0932
 1201ERGO    R216549  15.940   9.983   7.025  0.0601  0.2136  0.0178
 1201ERGO    R316550  15.893  10.183   7.203  0.0337  0.1887  0.0396
 1201ERGO    R416551  16.078  10.003   7.342  0.1883  0.2812 -0.0411
 1201ERGO    R516552  15.885  10.073   7.416  0.1825  0.1819  0.0432
 1201ERGO    C116553  16.113  10.203   7.693  0.2382  0.2971 -0.0550
 1201ERGO    C216554  16.153  10.498   7.958 -0.0595 -0.2790 -0.1890
 1202ERGO   ROH16555  14.791   9.506   9.868  0.1302  0.1367 -0.1324
 1202ERGO    R116556  14.672   9.475   9.613 -0.0318  0.0964 -0.0522
 1202ERGO    R216557  14.636   9.686   9.438  0.0473  0.0305 -0.1438
 1202ERGO    R316558  14.771   9.524   9.267 -0.1769 -0.1709 -0.1356
 1202ERGO    R416559  14.601   9.688   9.094  0.2292  0.2517 -0.1638
 1202ERGO    R516560  14.612   9.470   9.096 -0.2027  0.2169 -0.2460
 1202ERGO    C116561  14.708   9.536   8.733  0.1248  0.1913 -0.1678
 1202ERGO    C216562  14.852   9.548   8.472  0.0562  0.1462 -0.2283
 1203ERGO   ROH16563  13.427   9.821   6.354  0.0976 -0.1232 -0.0065
 1203ERGO    R116564  13.397   9.905   6.623  0.0687 -0.0628 -0.0272
 1203ERGO    R216565  13.263   9.755   6.812  0.1171 -0.0671  0.0070
 1203ERGO    R316566  13.495   9.782   6.951  0.1169  0.0492  0.0048
 1203ERGO    R416567  13.285   9.785   7.156  0.1146 -0.3989  0.0373
 1203ERGO    R516568  13.441   9.934   7.128 -0.0432 -0.1828  0.1699
 1203ERGO    C116569  13.515   9.827   7.486  0.1130 -0.4829  0.0528
 1203ERGO    C216570  13.446   9.625   7.703 -0.2074 -0.1981  0.1589
 1204ERGO   ROH16571   9.753  14.075   6.857  0.2155  0.0458  0.0381
 1204ERGO    R116572   9.905  14.046   7.095  0.1544 -0.0012  0.0717
 1204ERGO    R216573   9.869  14.209   7.315  0.1064 -0.0369  0.0908
 1204ERGO    R316574   9.837  13.972   7.444  0.0626 -0.0574  0.0423
 1204ERGO    R416575   9.819  14.175   7.655  0.1594 -0.0997  0.0923
 1204ERGO    R516576   9.951  14.002   7.652  0.1096 -0.1373  0.0283
 1204ERGO    C116577   9.760  13.933   7.975  0.1492 -0.1554  0.0477
 1204ERGO    C216578   9.595  13.933   8.284  0.2490  0.1478  0.2357
 1205ERGO   ROH16579   6.903  17.421  10.299  0.2670  0.0157 -0.1538
 1205ERGO    R116580   6.789  17.427  10.040  0.1467  0.2044 -0.0978
 1205ERGO    R216581   6.910  17.555   9.828  0.2659 -0.0082 -0.1580
 1205ERGO    R316582   6.883  17.313   9.708 -0.2126  0.0301 -0.1445
 1205ERGO    R416583   6.911  17.503   9.486  0.5102 -0.0521 -0.1532
 1205ERGO    R516584   6.750  17.358   9.513  0.1021  0.3433 -0.3001
 1205ERGO    C116585   6.885  17.245   9.174  0.2032 -0.0420 -0.1376
 1205ERGO    C216586   6.926  17.221   8.823 -0.4356  0.1328  0.1651
 1206ERGO   ROH16587   9.944  17.085   8.216 -0.1519 -0.0381 -0.0009
 1206ERGO    R116588  10.112  17.301   8.143 -0.1924  0.0179  0.0716
 1206ERGO    R216589  10.200  17.490   8.325 -0.1448 -0.0860  0.1555
 1206ERGO    R316590  10.445  17.418   8.232 -0.1699 -0.0115  0.0291
 1206ERGO    R416591  10.493  17.662   8.386 -0.1028 -0.2291  0.3690
 1206ERGO    R516592  10.552  17.626   8.180 -0.1322  0.0442  0.3065
 1206ERGO    C116593  10.894  17.695   8.334 -0.1019 -0.2422  0.3747
 1206ERGO    C216594  11.197  17.907   8.414 -0.2072  0.0816 -0.0028
 1207ERGO   ROH16595  14.268  14.428   6.858  0.2175 -0.1369 -0.0181
 1207ERGO    R116596  14.343  14.311   7.105  0.0840  0.0276  0.1030
 1207ERGO    R216597  14.537  14.115   7.124 -0.1307 -0.1735  0.3034
 1207ERGO    R316598  14.646  14.287   7.304  0.0563 -0.1079  0.1291
 1207ERGO    R416599  14.753  14.024   7.378 -0.0820 -0.1235  0.2791
 1207ERGO    R516600  14.650  14.164   7.510  0.0635  0.0422  0.2200
 1207ERGO    C116601  14.982  14.132   7.695  0.1220 -0.0327  0.1012
 1207ERGO    C216602  15.172  14.208   7.933 -0.0671 -0.0499  0.1441
 1208ERGO   ROH16603  16.285  15.748   6.543  0.0876  0.0368 -0.0274
 1208ERGO    R116604  16.352  15.618   6.785  0.2662  0.2223  0.0247
 1208ERGO    R216605  16.501  15.741   6.984 -0.1959  0.6385  0.1296
 1208ERGO    R316606  16.289  15.671   7.140 -0.1347  0.0757 -0.0186
 1208ERGO    R416607  16.516  15.688   7.325 -0.2868  0.6901  0.1423
 1208ERGO    R516608  16.381  15.518   7.299  0.1715  0.3158  0.0474
 1208ERGO    C116609  16.326  15.590   7.670 -0.2823  0.1917  0.0105
 1208ERGO    C216610  16.293  15.848   7.952 -0.2408 -0.0779 -0.0106
 1209ERGO   ROH16611  14.946  15.645   6.879 -0.1349 -0.0242  0.1050
 1209ERGO    R116612  14.855  15.491   7.098 -0.1420  0.0923  0.1846
 1209ERGO    R216613  14.946  15.236   7.149 -0.3872 -0.0082  0.1298
 1209ERGO    R316614  15.002  15.339   7.394 -0.0853 -0.0519  0.0841
 1209ERGO    R416615  14.917  15.063   7.447 -0.4107  0.0557  0.1647
 1209ERGO    R516616  14.835  15.244   7.538 -0.1170  0.1762  0.2056
 1209ERGO    C116617  14.952  15.059   7.851 -0.1411  0.0519  0.1421
 1209ERGO    C216618  15.110  14.934   8.127  0.0946 -0.0481 -0.0794
 1210ERGO   ROH16619   9.650  12.830   6.610  0.1424 -0.2572  0.1317
 1210ERGO    R116620   9.642  12.873   6.890  0.0906 -0.0988  0.1078
 1210ERGO    R216621   9.545  13.106   7.002  0.1243 -0.0072 -0.0420
 1210ERGO    R316622   9.386  12.935   7.141  0.0488  0.1085  0.0149
 1210ERGO    R416623   9.420  13.164   7.319  0.0955  0.1721 -0.0856
 1210ERGO    R516624   9.459  12.956   7.368  0.0196  0.1848  0.0144
 1210ERGO    C116625   9.198  13.037   7.634  0.0079  0.3849 -0.0576
 1210ERGO    C216626   8.943  12.899   7.851 -0.0467  0.1327  0.1359
 1211ERGO   ROH16627   1.302   1.081   6.874 -0.0456  0.1198 -0.0758
 1211ERGO    R116628   1.370   1.011   7.139  0.0337  0.1122 -0.0971
 1211ERGO    R216629   1.501   1.184   7.310  0.0850  0.1102 -0.1276
 1211ERGO    R316630   1.290   1.132   7.473  0.1305  0.1038 -0.0719
 1211ERGO    R416631   1.500   1.228   7.653  0.1889  0.0463 -0.1194
 1211ERGO    R516632   1.389   1.041   7.671  0.1768  0.0587 -0.1189
 1211ERGO    C116633   1.302   1.203   8.006  0.2921  0.0032 -0.0624
 1211ERGO    C216634   1.098   1.383   8.285 -0.2368 -0.0652 -0.0575
 1212ERGO   ROH16635   1.787  14.388   6.857 -0.0271  0.0257  0.0189
 1212ERGO    R116636   1.965  14.288   7.054 -0.0551 -0.0508  0.0051
 1212ERGO    R216637   1.898  14.274   7.322 -0.0069  0.0678  0.0219
 1212ERGO    R316638   1.968  14.013   7.292 -0.1993  0.0073  0.0770
 1212ERGO    R416639   1.972  14.058   7.581  0.2383  0.1889  0.0560
 1212ERGO    R516640   2.134  13.976   7.461  0.0253  0.0214 -0.1312
 1212ERGO    C116641   2.081  13.688   7.704  0.2004  0.2027  0.1275
 1212ERGO    C216642   2.127  13.679   7.959  0.2447  0.2843  0.0549
 1213ERGO   ROH16643   7.249  17.729   6.517 -0.0756  0.0626 -0.1096
 1213ERGO    R116644   7.142  17.649   6.767  0.0786  0.0235 -0.0540
 1213ERGO    R216645   7.265  17.709   7.007  0.1698  0.0872 -0.1102
 1213ERGO    R316646   7.022  17.815   7.068  0.1509 -0.0163 -0.0046
 1213ERGO    R416647   7.171  17.820   7.321  0.1650 -0.1751 -0.0170
 1213ERGO    R516648   6.974  17.732   7.288  0.1867 -0.1939 -0.0662
 1213ERGO    C116649   6.888  17.984   7.560  0.1446 -0.4249  0.1364
 1213ERGO    C216650   6.996  18.410   7.754 -0.1104 -0.0868  0.0108
 1214ERGO   ROH16651   3.080   2.236   6.880 -0.0263 -0.0566  0.1283
 1214ERGO    R116652   3.234   2.243   7.118 -0.0256 -0.0166  0.1267
 1214ERGO    R216653   3.127   2.183   7.365 -0.0425  0.0943  0.1468
 1214ERGO    R316654   3.332   2.006   7.376 -0.0887  0.0438  0.2068
 1214ERGO    R416655   3.258   2.051   7.657  0.0157  0.2664  0.1997
 1214ERGO    R516656   3.458   2.072   7.570 -0.0068  0.1486  0.1191
 1214ERGO    C116657   3.528   1.808   7.836  0.0062  0.3193  0.2869
 1214ERGO    C216658   3.509   1.565   7.968  0.0783 -0.2346  0.1704
 1215ERGO   ROH16659   6.819  15.351   6.909  0.0235 -0.2423 -0.0912
 1215ERGO    R116660   6.725  15.205   7.132 -0.1349 -0.0990 -0.0634
 1215ERGO    R216661   6.862  15.194   7.372 -0.1296 -0.2262 -0.0766
 1215ERGO    R316662   6.625  15.280   7.474 -0.0241  0.0682 -0.0648
 1215ERGO    R416663   6.751  15.131   7.693 -0.2177 -0.1622 -0.0935
 1215ERGO    R516664   6.551  15.099   7.613 -0.2677  0.1231 -0.1112
 1215ERGO    C116665   6.464  15.175   7.976 -0.1701  0.1514 -0.0922
 1215ERGO    C216666   6.273  15.073   8.258  0.0017  0.1722 -0.2334
 1216ERGO   ROH16667   3.854  13.191   6.632  0.0093  0.1089 -0.2689
 1216ERGO    R116668   3.983  13.375   6.805  0.1358 -0.0596 -0.1805
 1216ERGO    R216669   3.848  13.510   7.005  0.1988  0.0342 -0.2008
 1216ERGO    R316670   4.043  13.404   7.163  0.0345 -0.2020 -0.1510
 1216ERGO    R416671   3.891  13.582   7.340  0.2925  0.1023 -0.2270
 1216ERGO    R516672   4.107  13.585   7.307  0.3029 -0.2384 -0.2194
 1216ERGO    C116673   4.099  13.525   7.683  0.1929 -0.0798 -0.1956
 1216ERGO    C216674   4.046  13.665   8.010  0.0773  0.0782 -0.3010
 1217ERGO   ROH16675   4.075  15.629   6.646  0.0092  0.0570  0.0079
 1217ERGO    R116676   3.967  15.707   6.896 -0.1789 -0.1316 -0.0119
 1217ERGO    R216677   3.833  15.531   7.062  0.1473 -0.3896 -0.0121
 1217ERGO    R316678   4.015  15.615   7.245 -0.0352 -0.0065  0.0024
 1217ERGO    R416679   3.784  15.530   7.404 -0.0120 -0.1397 -0.0320
 1217ERGO    R516680   3.884  15.724   7.413 -0.2452 -0.0073 -0.1558
 1217ERGO    C116681   3.926  15.609   7.775 -0.2760  0.3653 -0.0300
 1217ERGO    C216682   3.825  15.569   8.083 -0.0467 -0.2019  0.2173
 1218ERGO   ROH16683   7.400  14.057   6.520  0.0249 -0.0420  0.1586
 1218ERGO    R116684   7.456  14.085   6.796  0.1184 -0.1789  0.1545
 1218ERGO    R216685   7.267  14.035   6.992  0.1092 -0.0376  0.1810
 1218ERGO    R316686   7.460  13.869   7.089 -0.0407 -0.2685  0.0922
 1218ERGO    R416687   7.231  13.833   7.270 -0.0385 -0.0681  0.1408
 1218ERGO    R516688   7.436  13.884   7.327  0.0339 -0.2993  0.1030
 1218ERGO    C116689   7.390  13.560   7.523 -0.2652 -0.3027  0.0340
 1218ERGO    C216690   7.627  13.242   7.635  0.0109  0.1602  0.0585
 1219ERGO   ROH16691  12.444   7.523   6.674 -0.2701  0.0221  0.1278
 1219ERGO    R116692  12.564   7.568   6.927 -0.0457  0.0673  0.0190
 1219ERGO    R216693  12.621   7.822   7.022 -0.0562  0.1007 -0.0265
 1219ERGO    R316694  12.473   7.739   7.235  0.1689  0.0273  0.1015
 1219ERGO    R416695  12.588   7.994   7.320 -0.0998  0.1905 -0.0850
 1219ERGO    R516696  12.601   7.805   7.426  0.1893  0.2671 -0.0041
 1219ERGO    C116697  12.431   8.017   7.693  0.0861  0.1737  0.0011
 1219ERGO    C216698  12.332   8.237   7.984  0.1637 -0.2245  0.1949
 1220ERGO   ROH16699   2.455   7.253   6.351  0.1885  0.2499 -0.0391
 1220ERGO    R116700   2.476   7.222   6.631  0.2267  0.1385 -0.0546
 1220ERGO    R216701   2.267   7.130   6.787  0.2287  0.1430 -0.0571
 1220ERGO    R316702   2.451   6.948   6.869  0.1876  0.0568 -0.1501
 1220ERGO    R416703   2.255   6.960   7.088  0.0883 -0.1372 -0.2157
 1220ERGO    R516704   2.471   6.987   7.105  0.0875 -0.1600 -0.0997
 1220ERGO    C116705   2.422   6.691   7.340 -0.0319 -0.3813 -0.3952
 1220ERGO    C216706   2.410   6.684   7.561  0.1292 -0.0042 -0.0313
 1221ERGO   ROH16707   8.137   7.151   6.779 -0.0113  0.0488  0.1119
 1221ERGO    R116708   8.108   7.200   7.056 -0.1297  0.0469  0.0986
 1221ERGO    R216709   8.227   7.414   7.183 -0.0018 -0.0860  0.1844
 1221ERGO    R316710   7.973   7.465   7.266 -0.0026  0.1535  0.0522
 1221ERGO    R416711   8.143   7.627   7.442  0.1075 -0.2354  0.3465
 1221ERGO    R516712   7.991   7.483   7.504 -0.1328 -0.1173  0.0945
 1221ERGO    C116713   7.856   7.798   7.671  0.1702 -0.0975  0.3167
 1221ERGO    C216714   7.619   7.970   7.815 -0.1072  0.1341 -0.2123
 1222ERGO   ROH16715   2.036   9.818   6.855 -0.0543 -0.1964 -0.0140
 1222ERGO    R116716   2.013   9.747   7.128 -0.0358 -0.0857  0.0151
 1222ERGO    R216717   2.183   9.845   7.322 -0.0561  0.0260 -0.0355
 1222ERGO    R316718   1.951   9.920   7.442 -0.0648  0.0302 -0.0509
 1222ERGO    R416719   2.131   9.849   7.664 -0.0557  0.0420 -0.0344
 1222ERGO    R516720   1.930   9.770   7.629 -0.0616  0.0321 -0.0397
 1222ERGO    C116721   1.883   9.922   7.976 -0.0635  0.0553 -0.0482
 1222ERGO    C216722   1.841   9.694   8.362  0.1007  0.1614  0.2729
 1223ERGO   ROH16723   4.078   7.850  10.259 -0.0396 -0.0954 -0.0556
 1223ERGO    R116724   3.906   7.835  10.036 -0.0565 -0.1185 -0.0422
 1223ERGO    R216725   3.873   8.045   9.858 -0.2504 -0.0470  0.0683
 1223ERGO    R316726   3.940   7.857   9.674 -0.1151  0.1003 -0.0347
 1223ERGO    R416727   3.782   8.053   9.525 -0.3005  0.0341  0.0844
 1223ERGO    R516728   3.746   7.838   9.535 -0.1153  0.0014 -0.0165
 1223ERGO    C116729   3.791   7.880   9.158 -0.2027  0.2196 -0.0030
 1223ERGO    C216730   3.725   7.896   8.839  0.0498 -0.0183 -0.1016
 1224ERGO   ROH16731  14.039  15.341   6.693  0.2347 -0.2325  0.1144
 1224ERGO    R116732  13.951  15.432   6.947  0.1196 -0.1377  0.0413
 1224ERGO    R216733  13.709  15.357   7.056  0.1149 -0.1751 -0.0001
 1224ERGO    R316734  13.863  15.280   7.265  0.0768 -0.0099  0.0915
 1224ERGO    R416735  13.634  15.414   7.388 -0.0925 -0.1643 -0.0467
 1224ERGO    R516736  13.844  15.459   7.423 -0.1419  0.0100  0.0467
 1224ERGO    C116737  13.735  15.374   7.779 -0.2490 -0.0030  0.0123
 1224ERGO    C216738  13.628  15.082   8.026 -0.1471  0.0175  0.0472
 1225ERGO   ROH16739  14.968   2.913   6.501 -0.0050  0.2079 -0.0932
 1225ERGO    R116740  14.987   2.895   6.783 -0.0669 -0.0089 -0.1003
 1225ERGO    R216741  15.052   3.112   6.942  0.1980 -0.1963  0.0593
 1225ERGO    R316742  14.821   3.047   7.069  0.0903  0.0189 -0.0239
 1225ERGO    R416743  15.003   3.131   7.283  0.0939 -0.1662  0.0421
 1225ERGO    R516744  14.892   2.943   7.273 -0.0821 -0.0591 -0.0040
 1225ERGO    C116745  14.757   3.081   7.601 -0.0677  0.0535 -0.0459
 1225ERGO    C216746  14.960   3.096   7.895 -0.0795  0.0205  0.0494
 1226ERGO   ROH16747   5.193   7.324  10.020 -0.2209  0.0671 -0.1529
 1226ERGO    R116748   5.390   7.261   9.827 -0.1637  0.0394 -0.0863
 1226ERGO    R216749   5.348   7.077   9.625 -0.1219  0.0471 -0.1035
 1226ERGO    R316750   5.423   7.284   9.465 -0.0369  0.0381 -0.0750
 1226ERGO    R416751   5.316   7.083   9.281  0.1172  0.0057 -0.1274
 1226ERGO    R516752   5.511   7.179   9.270  0.1128  0.0285 -0.0024
 1226ERGO    C116753   5.369   7.280   8.931  0.3362 -0.0268 -0.1146
 1226ERGO    C216754   5.346   7.236   8.600 -0.1623  0.0261  0.0440
 1227ERGO   ROH16755   3.884   6.070  10.176 -0.2498  0.2792 -0.0376
 1227ERGO    R116756   3.968   6.143   9.916 -0.0491  0.0850 -0.0302
 1227ERGO    R216757   4.050   5.957   9.728 -0.1270 -0.0779  0.0949
 1227ERGO    R316758   3.860   6.075   9.575  0.0592  0.0337 -0.0550
 1227ERGO    R416759   4.010   5.907   9.388 -0.1175 -0.3415  0.1302
 1227ERGO    R516760   3.969   6.120   9.367  0.1655 -0.3024 -0.0768
 1227ERGO    C116761   3.808   5.990   9.047  0.0627 -0.3903  0.0099
 1227ERGO    C216762   3.869   5.972   8.715  0.0494  0.1390  0.1205
 1228ERGO   ROH16763  17.639  11.598   6.722 -0.0128 -0.0340 -0.0272
 1228ERGO    R116764  17.669  11.777   6.939  0.0565 -0.0205 -0.0478
 1228ERGO    R216765  17.472  11.815   7.129  0.0410  0.1368 -0.0970
 1228ERGO    R316766  17.672  11.752   7.302 -0.0375  0.0338 -0.0424
 1228ERGO    R416767  17.454  11.848   7.473 -0.0089  0.2403 -0.1092
 1228ERGO    R516768  17.659  11.921   7.472  0.0489  0.0910 -0.0887
 1228ERGO    C116769  17.632  11.809   7.835 -0.1113  0.2040 -0.0652
 1228ERGO    C216770  17.775  11.716   8.163 -0.1646 -0.0778  0.1161
 1229ERGO   ROH16771   8.668  11.555   8.346 -0.0634  0.1002  0.2929
 1229ERGO    R116772   8.768  11.808   8.423  0.0313  0.1067  0.1540
 1229ERGO    R216773   8.958  11.945   8.275 -0.0196  0.0217  0.0013
 1229ERGO    R316774   8.773  12.144   8.282  0.0209  0.0573  0.0376
 1229ERGO    R416775   9.031  12.283   8.274  0.0348  0.0097 -0.0818
 1229ERGO    R516776   8.873  12.312   8.421  0.0983  0.0630 -0.0303
 1229ERGO    C116777   8.900  12.666   8.281  0.1045  0.0361 -0.0960
 1229ERGO    C216778   8.761  12.933   8.339 -0.1880  0.0757 -0.1967
 1230ERGO   ROH16779  15.297   8.680   6.561 -0.1550 -0.2336 -0.0045
 1230ERGO    R116780  15.170   8.569   6.788 -0.0552 -0.2272  0.0555
 1230ERGO    R216781  15.294   8.387   6.954  0.0994 -0.0513  0.1377
 1230ERGO    R316782  15.226   8.565   7.148 -0.0314 -0.0106  0.0554
 1230ERGO    R416783  15.302   8.323   7.294 -0.0210  0.0564  0.1615
 1230ERGO    R516784  15.115   8.433   7.314 -0.0614  0.0092  0.0508
 1230ERGO    C116785  15.243   8.453   7.673 -0.2138  0.1570  0.0981
 1230ERGO    C216786  15.384   8.455   7.886  0.3384 -0.0621 -0.0338
 1231ERGO   ROH16787   3.279  17.354   6.633 -0.0744 -0.0436 -0.1216
 1231ERGO    R116788   3.357  17.390   6.902 -0.0640  0.2403 -0.1591
 1231ERGO    R216789   3.244  17.582   7.066 -0.3648  0.1353 -0.2350
 1231ERGO    R316790   3.197  17.370   7.229  0.0519  0.1310 -0.1090
 1231ERGO    R416791   3.178  17.604   7.404 -0.3584  0.1975 -0.2375
 1231ERGO    R516792   3.304  17.428   7.435 -0.0248  0.4436 -0.1550
 1231ERGO    C116793   3.096  17.417   7.755  0.0365  0.2298 -0.1207
 1231ERGO    C216794   3.069  17.459   8.148 -0.2431 -0.2313  0.2627
 1232ERGO   ROH16795  13.578   5.454   7.019 -0.0577 -0.1807 -0.0702
 1232ERGO    R116796  13.807   5.467   7.184  0.0215 -0.1656 -0.1788
 1232ERGO    R216797  13.793   5.536   7.451  0.1745  0.0770 -0.2282
 1232ERGO    R316798  13.925   5.301   7.486  0.0523  0.0291 -0.0825
 1232ERGO    R416799  14.043   5.482   7.684  0.1733  0.1036 -0.2219
 1232ERGO    R516800  14.151   5.366   7.534  0.0929 -0.0581 -0.1553
 1232ERGO    C116801  14.313   5.230   7.852  0.0581  0.0742 -0.0815
 1232ERGO    C216802  14.443   5.162   8.136  0.0097  0.0676  0.0823
 1233ERGO   ROH16803   2.940   9.412   6.829 -0.2203  0.0867 -0.1146
 1233ERGO    R116804   2.984   9.266   7.067 -0.1420  0.0720 -0.1386
 1233ERGO    R216805   2.899   9.355   7.315  0.0443  0.1135 -0.0907
 1233ERGO    R316806   2.778   9.112   7.325 -0.0558  0.1650 -0.0124
 1233ERGO    R416807   2.792   9.200   7.605  0.1989  0.1441 -0.0153
 1233ERGO    R516808   2.865   9.011   7.525  0.0550  0.1153 -0.0837
 1233ERGO    C116809   2.616   8.882   7.783  0.1950  0.2104  0.1021
 1233ERGO    C216810   2.469   8.874   8.074 -0.1259  0.2748  0.0599
 1234ERGO   ROH16811   7.489   2.789   6.882  0.2829 -0.1320 -0.1382
 1234ERGO    R116812   7.478   2.816   7.164  0.0071 -0.0797 -0.1504
 1234ERGO    R216813   7.660   2.694   7.333 -0.1527 -0.0464  0.0531
 1234ERGO    R316814   7.696   2.947   7.425 -0.2475 -0.0282  0.0397
 1234ERGO    R416815   7.814   2.775   7.631 -0.2820  0.0239  0.1009
 1234ERGO    R516816   7.663   2.929   7.661 -0.3297 -0.0097  0.0289
 1234ERGO    C116817   7.938   3.060   7.891 -0.4464  0.0820  0.1162
 1234ERGO    C216818   8.102   3.205   8.114 -0.0426  0.1825  0.0398
 1235ERGO   ROH16819  10.670   9.876   6.767  0.1141  0.1754 -0.1969
 1235ERGO    R116820  10.649   9.852   7.049  0.0994 -0.2129 -0.2247
 1235ERGO    R216821  10.806   9.678   7.195  0.4182 -0.0987 -0.4054
 1235ERGO    R316822  10.867   9.903   7.335 -0.0513 -0.1338 -0.1263
 1235ERGO    R416823  10.913   9.683   7.524  0.0886 -0.2294 -0.2929
 1235ERGO    R516824  10.787   9.859   7.557 -0.2011 -0.4505 -0.2451
 1235ERGO    C116825  11.032   9.898   7.847 -0.5441 -0.3385  0.0346
 1235ERGO    C216826  11.249   9.794   8.111  0.0869  0.0784 -0.0073
 1236ERGO   ROH16827   8.960   1.055   6.258 -0.1619  0.0096  0.1736
 1236ERGO    R116828   8.942   1.011   6.537 -0.2214  0.1556  0.1943
 1236ERGO    R216829   9.164   1.014   6.703 -0.1975 -0.1600  0.1793
 1236ERGO    R316830   9.018   1.199   6.839  0.1268  0.1558  0.1098
 1236ERGO    R416831   9.196   1.082   7.040 -0.1424 -0.1556  0.1723
 1236ERGO    R516832   8.980   1.099   7.053 -0.1192  0.2702  0.1203
 1236ERGO    C116833   9.079   1.296   7.364  0.1942  0.1435  0.1030
 1236ERGO    C216834   9.079   1.463   7.673 -0.2851 -0.1304  0.0920
 1237ERGO   ROH16835  15.774   8.626   6.633 -0.0771  0.1190 -0.0224
 1237ERGO    R116836  15.657   8.602   6.889 -0.0237 -0.0718 -0.0144
 1237ERGO    R216837  15.771   8.453   7.091  0.1766  0.0221 -0.0543
 1237ERGO    R316838  15.749   8.685   7.231 -0.0861 -0.0279 -0.0085
 1237ERGO    R416839  15.788   8.478   7.436  0.2805 -0.0095 -0.0569
 1237ERGO    R516840  15.626   8.624   7.428  0.0747 -0.2284  0.0319
 1237ERGO    C116841  15.777   8.710   7.768  0.0944 -0.0748 -0.0154
 1237ERGO    C216842  15.910   8.833   8.116 -0.0020  0.0166  0.1933
 1238ERGO   ROH16843   5.397  15.020  10.586 -0.2668  0.1398 -0.1112
 1238ERGO    R116844   5.356  14.862  10.355 -0.1340  0.0478 -0.0749
 1238ERGO    R216845   5.191  14.941  10.147 -0.2486 -0.1622 -0.0775
 1238ERGO    R316846   5.413  14.897   9.997 -0.2147  0.0399 -0.0864
 1238ERGO    R416847   5.193  14.901   9.804 -0.2016 -0.0811 -0.0854
 1238ERGO    R516848   5.341  14.744   9.828 -0.0883  0.0299 -0.1228
 1238ERGO    C116849   5.404  14.837   9.463 -0.1424  0.1560 -0.0982
 1238ERGO    C216850   5.308  14.905   9.126 -0.0061  0.0629 -0.5816
 1239ERGO   ROH16851   7.343  10.785   6.780 -0.0649 -0.0203  0.0418
 1239ERGO    R116852   7.467  10.967   6.958 -0.0784 -0.0094  0.0398
 1239ERGO    R216853   7.323  11.150   7.108 -0.0823  0.0594 -0.0494
 1239ERGO    R316854   7.456  11.036   7.316 -0.1768  0.0761  0.0212
 1239ERGO    R416855   7.435  11.319   7.388 -0.3084  0.0639  0.0400
 1239ERGO    R516856   7.617  11.201   7.381 -0.2662  0.1194  0.1401
 1239ERGO    C116857   7.624  11.310   7.746 -0.5288  0.0824  0.1584
 1239ERGO    C216858   7.749  11.409   7.986 -0.0665 -0.1343 -0.0728
 1240ERGO   ROH16859   1.848  15.364   6.766 -0.0614  0.0401 -0.0359
 1240ERGO    R116860   2.047  15.368   6.968  0.0082  0.0049 -0.1040
 1240ERGO    R216861   1.987  15.392   7.236  0.1118  0.1551 -0.0946
 1240ERGO    R316862   2.135  15.164   7.257 -0.0180  0.0735 -0.0467
 1240ERGO    R416863   2.111  15.262   7.532 -0.1190  0.0474 -0.0425
 1240ERGO    R516864   2.295  15.213   7.427 -0.0848 -0.0341  0.0505
 1240ERGO    C116865   2.322  14.974   7.723 -0.3752 -0.0918  0.0328
 1240ERGO    C216866   2.525  14.912   7.993  0.1388 -0.0990  0.0869
 1241ERGO   ROH16867   5.982   4.428   6.562 -0.1204 -0.2679 -0.1238
 1241ERGO    R116868   5.993   4.477   6.841 -0.2444 -0.1229 -0.1417
 1241ERGO    R216869   6.201   4.390   6.999 -0.4200 -0.2419  0.0384
 1241ERGO    R316870   6.214   4.652   7.071 -0.2112 -0.2105 -0.1087
 1241ERGO    R416871   6.308   4.504   7.307 -0.3811 -0.1510 -0.0098
 1241ERGO    R516872   6.148   4.653   7.302 -0.2519 -0.0193 -0.1230
 1241ERGO    C116873   6.383   4.816   7.554 -0.1624 -0.0685 -0.1759
 1241ERGO    C216874   6.362   4.801   7.797  0.1127 -0.0342 -0.2460
 1242ERGO   ROH16875   9.909   1.053  10.455  0.1021  0.0394  0.0353
 1242ERGO    R116876   9.968   0.897  10.225  0.1113  0.0778  0.0127
 1242ERGO    R216877   9.775   0.827  10.040  0.0733 -0.0898  0.1202
 1242ERGO    R316878   9.948   0.941   9.865 -0.1131  0.0443  0.0182
 1242ERGO    R416879   9.790   0.755   9.703  0.1696 -0.3579  0.1783
 1242ERGO    R516880  10.007   0.764   9.715  0.1659  0.0027  0.1671
 1242ERGO    C116881   9.961   0.820   9.341  0.0507 -0.3882  0.1164
 1242ERGO    C216882   9.921   0.863   8.973  0.2836 -0.0284 -0.0742
 1243ERGO   ROH16883   5.024   2.300   6.727 -0.0065 -0.1577  0.0697
 1243ERGO    R116884   4.881   2.340   6.968 -0.0235 -0.1473  0.0571
 1243ERGO    R216885   4.969   2.242   7.211  0.0928  0.0881  0.1076
 1243ERGO    R316886   4.941   2.501   7.288 -0.1527  0.1114 -0.0449
 1243ERGO    R416887   4.849   2.345   7.519  0.3505  0.1352  0.1947
 1243ERGO    R516888   4.740   2.504   7.417  0.0012 -0.0761  0.2152
 1243ERGO    C116889   4.754   2.649   7.770  0.2702  0.1845  0.1023
 1243ERGO    C216890   4.643   2.824   8.104 -0.0510  0.0031 -0.2465
 1244ERGO   ROH16891  14.317   9.445  10.028 -0.2191 -0.3939 -0.0765
 1244ERGO    R116892  14.157   9.443   9.794 -0.0894 -0.3886 -0.1633
 1244ERGO    R216893  14.150   9.656   9.616 -0.2297 -0.2589  0.0135
 1244ERGO    R316894  14.214   9.463   9.435  0.0781 -0.0390 -0.1257
 1244ERGO    R416895  14.168   9.703   9.274 -0.5355 -0.0120  0.0254
 1244ERGO    R516896  14.074   9.509   9.247 -0.1498 -0.2198 -0.0183
 1244ERGO    C116897  14.238   9.550   8.905 -0.4245  0.3383 -0.0983
 1244ERGO    C216898  14.163   9.589   8.616 -0.0706 -0.0617 -0.2338
 1245ERGO   ROH16899  12.153   4.315   6.711 -0.0286 -0.0007 -0.1344
 1245ERGO    R116900  12.117   4.196   6.965  0.0797  0.0159 -0.1110
 1245ERGO    R216901  12.176   4.328   7.201  0.0961  0.0631 -0.1426
 1245ERGO    R316902  11.919   4.264   7.264  0.1347 -0.0193 -0.0660
 1245ERGO    R416903  12.060   4.270   7.521  0.1762  0.1962 -0.0888
 1245ERGO    R516904  11.940   4.106   7.443  0.2382  0.0928  0.0244
 1245ERGO    C116905  11.752   4.176   7.767  0.2592  0.1964  0.0145
 1245ERGO    C216906  11.729   4.066   8.135  0.0726 -0.1159 -0.1825
 1246ERGO   ROH16907   0.858   7.480   6.765 -0.0186 -0.1178  0.0671
 1246ERGO    R116908   0.746   7.539   7.018  0.0172 -0.0750  0.0727
 1246ERGO    R216909   0.582   7.363   7.153  0.0060 -0.0359  0.1078
 1246ERGO    R316910   0.762   7.397   7.354  0.0315 -0.0420  0.0863
 1246ERGO    R416911   0.522   7.293   7.486  0.0391 -0.0269  0.1159
 1246ERGO    R516912   0.631   7.474   7.539  0.0558 -0.0309  0.1001
 1246ERGO    C116913   0.657   7.284   7.868  0.0823 -0.0274  0.1004
 1246ERGO    C216914   0.794   7.123   8.185 -0.1578 -0.0406  0.1718
 1247ERGO   ROH16915  17.514   1.672   6.706  0.4353 -0.4558 -0.0629
 1247ERGO    R116916  17.611   1.598   6.961  0.4400 -0.1817  0.0186
 1247ERGO    R216917  17.782   1.758   7.108  0.1565  0.1438  0.0056
 1247ERGO    R316918  17.591   1.729   7.300  0.1159 -0.0229 -0.0582
 1247ERGO    R416919  17.839   1.773   7.449  0.0548  0.0338  0.0279
 1247ERGO    R516920  17.699   1.608   7.475  0.1245 -0.0425 -0.0772
 1247ERGO    C116921  17.693   1.754   7.827 -0.0424 -0.1866 -0.0192
 1247ERGO    C216922  17.848   1.788   8.125  0.0155  0.0301 -0.1730
 1248ERGO   ROH16923   5.315   2.588   6.982  0.0439 -0.0733 -0.0729
 1248ERGO    R116924   5.395   2.500   7.239  0.1513  0.0857 -0.0495
 1248ERGO    R216925   5.437   2.673   7.450 -0.0498  0.1937 -0.0901
 1248ERGO    R316926   5.260   2.510   7.577  0.1379  0.0157 -0.0542
 1248ERGO    R416927   5.341   2.706   7.780 -0.1779  0.2172 -0.1297
 1248ERGO    R516928   5.349   2.489   7.799  0.1103  0.2381 -0.0241
 1248ERGO    C116929   5.119   2.572   8.092 -0.0763  0.0637 -0.1191
 1248ERGO    C216930   5.000   2.664   8.426  0.2211 -0.2110 -0.0459
 1249ERGO   ROH16931   3.140   8.428   6.346 -0.1031 -0.3188  0.0571
 1249ERGO    R116932   3.258   8.458   6.601 -0.2230 -0.0521  0.0834
 1249ERGO    R216933   3.110   8.476   6.833 -0.3192 -0.2447  0.0302
 1249ERGO    R316934   3.269   8.270   6.912  0.0137  0.0404  0.1363
 1249ERGO    R416935   3.177   8.392   7.162 -0.4548 -0.1548  0.0826
 1249ERGO    R516936   3.383   8.353   7.105 -0.3134  0.2465  0.2564
 1249ERGO    C116937   3.365   8.150   7.427 -0.2212  0.1650  0.2127
 1249ERGO    C216938   3.170   7.958   7.670  0.4101  0.0352  0.0559
 1250ERGO   ROH16939   0.478  16.281   6.736 -0.0294  0.1204 -0.0303
 1250ERGO    R116940   0.563  16.400   6.978 -0.1023 -0.1215  0.1194
 1250ERGO    R216941   0.531  16.278   7.223  0.0744 -0.4969 -0.0335
 1250ERGO    R316942   0.799  16.322   7.243  0.0365 -0.2487 -0.0411
 1250ERGO    R416943   0.703  16.319   7.520  0.0517 -0.3180 -0.0441
 1250ERGO    R516944   0.820  16.476   7.425 -0.0966 -0.2178 -0.0549
 1250ERGO    C116945   1.054  16.384   7.712  0.0028  0.0193 -0.0574
 1250ERGO    C216946   1.185  16.297   8.060 -0.1063  0.1443 -0.4587
 1251ERGO   ROH16947   5.929  16.420   6.598  0.0251 -0.0155  0.0193
 1251ERGO    R116948   5.931  16.252   6.827 -0.0317 -0.0256  0.0121
 1251ERGO    R216949   6.163  16.139   6.926 -0.0593 -0.0367  0.0579
 1251ERGO    R316950   6.084  16.258   7.157 -0.1060 -0.0466  0.0476
 1251ERGO    R416951   6.306  16.084   7.236 -0.0079  0.0746  0.0550
 1251ERGO    R516952   6.106  16.087   7.323 -0.0065 -0.0167  0.0682
 1251ERGO    C116953   6.315  16.163   7.633 -0.0217  0.1302  0.0437
 1251ERGO    C216954   6.337  16.201   7.972  0.0168  0.0538  0.1963
 1252ERGO   ROH16955  14.735  11.771   6.303 -0.3445 -0.2851 -0.0903
 1252ERGO    R116956  14.632  11.793   6.565 -0.3793 -0.1934 -0.1127
 1252ERGO    R216957  14.656  12.024   6.715 -0.1024 -0.2535 -0.0686
 1252ERGO    R316958  14.386  12.001   6.736 -0.1455  0.1108 -0.1331
 1252ERGO    R416959  14.460  12.189   6.948  0.0884 -0.0933 -0.0174
 1252ERGO    R516960  14.343  12.006   6.971 -0.1752  0.0486 -0.1325
 1252ERGO    C116961  14.093  12.262   7.102  0.1590  0.3419 -0.0480
 1252ERGO    C216962  14.040  12.344   7.367 -0.1192 -0.3608  0.2406
 1253ERGO   ROH16963   0.838   3.933  10.439  0.1568  0.1565 -0.0654
 1253ERGO    R116964   0.887   4.081  10.202  0.1292  0.0898 -0.1136
 1253ERGO    R216965   1.074   4.002  10.014  0.0298 -0.0228 -0.1682
 1253ERGO    R316966   0.863   4.022   9.844 -0.0261  0.0269 -0.0931
 1253ERGO    R416967   1.095   3.990   9.669 -0.0731  0.1643 -0.1821
 1253ERGO    R516968   0.946   4.148   9.659 -0.1072  0.1414 -0.0523
 1253ERGO    C116969   0.909   4.001   9.309 -0.1854  0.3199 -0.1198
 1253ERGO    C216970   0.944   3.981   8.957 -0.0996  0.2456 -0.0844
 1254ERGO   ROH16971   4.956   1.625   6.754  0.0302  0.0016  0.1127
 1254ERGO    R116972   5.109   1.473   6.938  0.0424 -0.0456  0.0637
 1254ERGO    R216973   5.028   1.427   7.198  0.1171 -0.0101  0.0931
 1254ERGO    R316974   5.065   1.167   7.130  0.0046 -0.0254  0.0878
 1254ERGO    R416975   4.966   1.158   7.405  0.2951  0.0300  0.2005
 1254ERGO    R516976   5.147   1.064   7.330  0.2034 -0.0087  0.0180
 1254ERGO    C116977   4.965   0.757   7.462  0.2933  0.0388  0.2581
 1254ERGO    C216978   4.911   0.463   7.726  0.0496  0.0850 -0.1159
 1255ERGO   ROH16979   4.963  16.867   6.609  0.2302 -0.0647 -0.0379
 1255ERGO    R116980   5.003  16.895   6.888  0.0841 -0.0417 -0.0175
 1255ERGO    R216981   4.814  17.008   7.055 -0.0088 -0.0312 -0.1221
 1255ERGO    R316982   4.843  16.774   7.191 -0.0737 -0.0218 -0.0934
 1255ERGO    R416983   4.697  16.950   7.375  0.0821  0.0747 -0.0695
 1255ERGO    R516984   4.881  16.842   7.418  0.0421 -0.0067 -0.1198
 1255ERGO    C116985   4.656  16.697   7.689  0.0741  0.1449 -0.0118
 1255ERGO    C216986   4.544  16.572   7.899  0.0349 -0.2521  0.0737
 1256ERGO   ROH16987   7.189   5.301   6.797 -0.0140 -0.1591  0.1255
 1256ERGO    R116988   6.987   5.499   6.811  0.1192 -0.0234  0.1496
 1256ERGO    R216989   6.719   5.441   6.774  0.0969  0.1905 -0.0275
 1256ERGO    R316990   6.693   5.562   7.016  0.0574  0.0522  0.0391
 1256ERGO    R416991   6.418   5.509   6.929  0.0698  0.1230 -0.0489
 1256ERGO    R516992   6.499   5.701   6.992  0.0723  0.0818  0.0800
 1256ERGO    C116993   6.217   5.662   7.246  0.0168 -0.0461  0.0013
 1256ERGO    C216994   6.176   5.594   7.582 -0.3723  0.0126 -0.0414
 1257ERGO   ROH16995  11.922  15.700   6.590  0.1194 -0.0554 -0.0778
 1257ERGO    R116996  12.034  15.853   6.800  0.0278 -0.0438 -0.0360
 1257ERGO    R216997  11.929  16.097   6.878 -0.0866 -0.0993 -0.0052
 1257ERGO    R316998  11.924  15.979   7.123 -0.0689 -0.1473 -0.0284
 1257ERGO    R416999  11.917  16.267   7.178  0.0027 -0.1595  0.0325
 1257ERGO    R517000  12.058  16.123   7.261 -0.0151 -0.2057 -0.0220
 1257ERGO    C117001  11.904  16.256   7.583  0.0714 -0.2400  0.0328
 1257ERGO    C217002  11.730  16.372   7.855  0.1342  0.0053  0.2381
 1258ERGO   ROH17003   5.818   0.626   6.997  0.1534  0.2728 -0.0542
 1258ERGO    R117004   5.822   0.492   7.246 -0.1846  0.3081 -0.0256
 1258ERGO    R217005   6.046   0.488   7.409 -0.2081 -0.1633  0.0004
 1258ERGO    R317006   5.871   0.583   7.595 -0.0232  0.2712 -0.0360
 1258ERGO    R417007   6.094   0.475   7.751 -0.3345 -0.3713  0.0127
 1258ERGO    R517008   5.883   0.426   7.774 -0.4952  0.1832 -0.0640
 1258ERGO    C117009   5.958   0.557   8.124 -0.2345 -0.0844 -0.0144
 1258ERGO    C217010   5.979   0.484   8.482 -0.0777  0.3139 -0.1214
 1259ERGO   ROH17011   8.084  12.840   6.502  0.1324  0.2174  0.1016
 1259ERGO    R117012   8.056  12.655   6.715  0.0376  0.1781  0.0558
 1259ERGO    R217013   8.271  12.563   6.861 -0.0003 -0.0172 -0.0058
 1259ERGO    R317014   8.124  12.651   7.072  0.0984  0.0323  0.0428
 1259ERGO    R417015   8.383  12.576   7.188  0.0179 -0.3137  0.0015
 1259ERGO    R517016   8.186  12.506   7.252 -0.0579 -0.1331 -0.0347
 1259ERGO    C117017   8.310  12.665   7.576  0.1212 -0.4399  0.0514
 1259ERGO    C217018   8.418  12.779   7.804  0.3711 -0.0351 -0.0165
 1260ERGO   ROH17019   9.667   2.771   6.576 -0.1037 -0.2747 -0.0063
 1260ERGO    R117020   9.696   2.872   6.839 -0.0243 -0.1417 -0.0657
 1260ERGO    R217021   9.494   2.856   7.028  0.0048  0.0261 -0.0220
 1260ERGO    R317022   9.688   2.737   7.177 -0.0088  0.0443  0.0111
 1260ERGO    R417023   9.493   2.834   7.373 -0.0553  0.0293 -0.0216
 1260ERGO    R517024   9.706   2.875   7.371 -0.0563  0.0497  0.0143
 1260ERGO    C117025   9.673   2.710   7.713 -0.1031  0.0483  0.0096
 1260ERGO    C217026   9.629   2.545   7.927 -0.3847 -0.0844 -0.1839
 1261ERGO   ROH17027  13.448  10.297   6.254 -0.0505 -0.0993 -0.1648
 1261ERGO    R117028  13.536  10.386   6.508 -0.0177 -0.1187 -0.1693
 1261ERGO    R217029  13.362  10.480   6.701  0.0214  0.0196 -0.1980
 1261ERGO    R317030  13.482  10.291   6.855 -0.1122 -0.0371 -0.1617
 1261ERGO    R417031  13.330  10.456   7.044  0.0707  0.1503 -0.1835
 1261ERGO    R517032  13.543  10.407   7.056  0.0293 -0.0298 -0.2102
 1261ERGO    C117033  13.425  10.264   7.389 -0.0260  0.1733 -0.1410
 1261ERGO    C217034  13.214  10.205   7.713 -0.1797 -0.0728 -0.0787
 1262ERGO   ROH17035   5.023   8.834   6.292 -0.0812 -0.1928 -0.3052
 1262ERGO    R117036   4.976   8.872   6.568  0.0032 -0.1152 -0.3027
 1262ERGO    R217037   4.731   8.822   6.686  0.0450 -0.0781 -0.2190
 1262ERGO    R317038   4.878   8.664   6.851  0.0863 -0.0319 -0.2086
 1262ERGO    R417039   4.630   8.716   6.999 -0.0829 -0.3396 -0.3439
 1262ERGO    R517040   4.833   8.750   7.070 -0.1507 -0.1829 -0.1862
 1262ERGO    C117041   4.709   8.507   7.337 -0.1187 -0.4482 -0.4068
 1262ERGO    C217042   4.682   8.220   7.516 -0.1605  0.1296 -0.2233
 1263ERGO   ROH17043  17.166  13.231   6.780  0.1755 -0.1943 -0.0052
 1263ERGO    R117044  17.235  13.266   7.053  0.0189  0.0343  0.0073
 1263ERGO    R217045  17.073  13.403   7.231 -0.2508 -0.1088 -0.1203
 1263ERGO    R317046  17.095  13.173   7.375  0.0214 -0.0157 -0.0063
 1263ERGO    R417047  16.935  13.351   7.543 -0.3288 -0.1749 -0.1654
 1263ERGO    R517048  17.117  13.247   7.602 -0.1982  0.1206 -0.0277
 1263ERGO    C117049  16.875  13.106   7.861 -0.1189 -0.1259 -0.0846
 1263ERGO    C217050  16.882  12.863   8.144  0.0808  0.1265 -0.2235
 1264ERGO   ROH17051   2.043   4.761   6.560 -0.2231  0.2883 -0.0116
 1264ERGO    R117052   2.137   4.739   6.826 -0.2494  0.1758 -0.0117
 1264ERGO    R217053   2.350   4.888   6.921 -0.0352 -0.1182 -0.0291
 1264ERGO    R317054   2.172   4.960   7.113  0.0700  0.1537 -0.0284
 1264ERGO    R417055   2.429   4.939   7.253  0.0698 -0.1239 -0.0522
 1264ERGO    R517056   2.243   4.839   7.307 -0.0525  0.1154 -0.0034
 1264ERGO    C117057   2.308   5.036   7.628  0.2297  0.1280 -0.0650
 1264ERGO    C217058   2.347   4.941   7.957 -0.0641  0.1575 -0.0612
 1265ERGO   ROH17059   7.372   3.603   6.844 -0.3035 -0.0489 -0.0251
 1265ERGO    R117060   7.360   3.427   7.065  0.0482 -0.0465  0.0004
 1265ERGO    R217061   7.572   3.394   7.240  0.1206  0.4056  0.0113
 1265ERGO    R317062   7.385   3.455   7.427 -0.0153  0.0571 -0.0031
 1265ERGO    R417063   7.618   3.366   7.581  0.1493  0.4942  0.0149
 1265ERGO    R517064   7.414   3.289   7.597  0.2856  0.1088  0.0002
 1265ERGO    C117065   7.469   3.407   7.956  0.0385  0.2187  0.0035
 1265ERGO    C217066   7.617   3.342   8.250  0.3377  0.0697 -0.0056
 1266ERGO   ROH17067   0.135  14.426   6.621  0.1477 -0.0507  0.1292
 1266ERGO    R117068   0.222  14.479   6.885  0.1227  0.0648  0.1137
 1266ERGO    R217069   0.480  14.562   6.944  0.1058  0.1173  0.0978
 1266ERGO    R317070   0.351  14.767   7.068  0.0759  0.1528  0.0113
 1266ERGO    R417071   0.563  14.688   7.255 -0.1101  0.0424  0.1889
 1266ERGO    R517072   0.351  14.704   7.300 -0.1480  0.1200  0.0071
 1266ERGO    C117073   0.491  14.952   7.553 -0.2638  0.0323  0.1607
 1266ERGO    C217074   0.547  15.087   7.810 -0.0215 -0.2311 -0.2648
 1267ERGO   ROH17075   4.809  12.944   6.687  0.1224 -0.1571  0.0413
 1267ERGO    R117076   4.912  12.901   6.947  0.0623 -0.1942  0.0580
 1267ERGO    R217077   4.917  13.099   7.140  0.2234 -0.1584  0.0114
 1267ERGO    R317078   4.785  12.914   7.288  0.0457 -0.0079  0.0472
 1267ERGO    R417079   4.918  13.085   7.485 -0.0191  0.0762  0.0265
 1267ERGO    R517080   4.932  12.868   7.471 -0.0944  0.0561  0.1822
 1267ERGO    C117081   4.795  12.903   7.825 -0.3271  0.3542  0.0689
 1267ERGO    C217082   4.733  12.839   8.203 -0.5280  0.0793  0.0057
 1268ERGO   ROH17083  15.726  13.386   7.065 -0.0572  0.2099 -0.0913
 1268ERGO    R117084  15.577  13.524   7.263 -0.0648  0.0051  0.0499
 1268ERGO    R217085  15.547  13.427   7.521  0.2033 -0.1067  0.0466
 1268ERGO    R317086  15.644  13.672   7.589  0.0106 -0.0259  0.0494
 1268ERGO    R417087  15.542  13.560   7.839  0.2246 -0.1729  0.0746
 1268ERGO    R517088  15.490  13.753   7.753  0.0064 -0.1992  0.1346
 1268ERGO    C117089  15.630  13.867   8.089  0.0560 -0.1356  0.0935
 1268ERGO    C217090  15.876  14.013   8.226 -0.1766  0.0184 -0.0966
 1269ERGO   ROH17091  16.685   6.009   8.583 -0.1212  0.1442 -0.2091
 1269ERGO    R117092  16.748   6.119   8.836  0.0246 -0.0195 -0.1732
 1269ERGO    R217093  16.554   6.211   9.011  0.1380  0.0315 -0.0809
 1269ERGO    R317094  16.676   6.040   9.183  0.0662 -0.1327 -0.1883
 1269ERGO    R417095  16.507   6.209   9.353  0.4305  0.1059 -0.0366
 1269ERGO    R517096  16.720   6.173   9.377  0.4149 -0.1802 -0.2244
 1269ERGO    C117097  16.593   6.048   9.715  0.5335 -0.0050 -0.1116
 1269ERGO    C217098  16.666   6.067  10.104  0.0430  0.0346 -0.2800
 1270ERGO   ROH17099   0.170   9.788   7.071 -0.1304  0.1897 -0.1423
 1270ERGO    R117100   0.252  10.007   7.230  0.0189  0.1272 -0.1307
 1270ERGO    R217101   0.216  10.014   7.504 -0.1389  0.2106 -0.1522
 1270ERGO    R317102   0.484  10.063   7.505 -0.0812 -0.0856 -0.0001
 1270ERGO    R417103   0.397  10.116   7.780 -0.2986  0.5545 -0.1703
 1270ERGO    R517104   0.509  10.251   7.651 -0.0217  0.1827 -0.3421
 1270ERGO    C117105   0.754  10.222   7.942 -0.3375  0.4767 -0.0381
 1270ERGO    C217106   0.672  10.266   8.220  0.2978  0.2522  0.2455
 1271ERGO   ROH17107   4.754   5.732  10.222  0.0473  0.0581 -0.0633
 1271ERGO    R117108   4.844   5.723   9.954 -0.0585 -0.1553 -0.0942
 1271ERGO    R217109   4.757   5.531   9.774 -0.3545 -0.1271  0.0087
 1271ERGO    R317110   4.693   5.748   9.624 -0.1501 -0.1052 -0.0480
 1271ERGO    R417111   4.704   5.527   9.432 -0.3555 -0.1633  0.0100
 1271ERGO    R517112   4.812   5.716   9.418 -0.1793 -0.2675 -0.0383
 1271ERGO    C117113   4.614   5.729   9.093 -0.1642 -0.1638 -0.0425
 1271ERGO    C217114   4.652   5.747   8.835  0.3363 -0.0513  0.1457
 1272ERGO   ROH17115  12.531   8.965  10.363  0.3188 -0.0528 -0.0345
 1272ERGO    R117116  12.589   8.876  10.100  0.1433 -0.2222 -0.0165
 1272ERGO    R217117  12.401   8.749   9.942 -0.1106  0.1025  0.0182
 1272ERGO    R317118  12.465   8.944   9.765  0.2656 -0.0538 -0.0295
 1272ERGO    R417119  12.355   8.727   9.600 -0.4712  0.2208  0.0544
 1272ERGO    R517120  12.548   8.826   9.573 -0.2112 -0.2882 -0.1092
 1272ERGO    C117121  12.388   8.899   9.235 -0.3279  0.1431  0.0307
 1272ERGO    C217122  12.466   8.802   8.866 -0.0362 -0.1095  0.2309
 1273ERGO   ROH17123   3.343  11.359  10.183  0.0385  0.2446  0.0348
 1273ERGO    R117124   3.393  11.502   9.944 -0.2021  0.1878 -0.0507
 1273ERGO    R217125   3.494  11.382   9.717 -0.0247  0.2156  0.0232
 1273ERGO    R317126   3.275  11.492   9.600 -0.2062 -0.1955 -0.0454
 1273ERGO    R417127   3.466  11.455   9.380  0.0873  0.4292  0.0572
 1273ERGO    R517128   3.364  11.640   9.434 -0.4012  0.1659  0.1481
 1273ERGO    C117129   3.243  11.601   9.074 -0.0178  0.1677  0.0127
 1273ERGO    C217130   3.323  11.589   8.722  0.0464  0.2444  0.1680
 1274ERGO   ROH17131  14.247   1.744   6.599  0.0265 -0.0899  0.0821
 1274ERGO    R117132  14.243   1.802   6.876 -0.1522 -0.0226  0.0667
 1274ERGO    R217133  14.401   1.999   6.988 -0.0780 -0.1278  0.1482
 1274ERGO    R317134  14.163   2.090   7.084 -0.0845  0.0947 -0.0673
 1274ERGO    R417135  14.362   2.182   7.279 -0.1694 -0.0694  0.1001
 1274ERGO    R517136  14.183   2.066   7.322 -0.3140  0.0951 -0.0465
 1274ERGO    C117137  14.117   2.373   7.539 -0.2290  0.1735 -0.1303
 1274ERGO    C217138  14.188   2.545   7.831 -0.1121  0.2305 -0.1952
 1275ERGO   ROH17139  16.662  11.190   6.817  0.1042  0.2552 -0.0247
 1275ERGO    R117140  16.777  11.236   7.071  0.1072  0.0398  0.0159
 1275ERGO    R217141  16.628  11.320   7.289  0.1561  0.1530  0.0165
 1275ERGO    R317142  16.737  11.101   7.407 -0.1305 -0.0217 -0.0376
 1275ERGO    R417143  16.655  11.272   7.630  0.2975  0.1200  0.0004
 1275ERGO    R517144  16.853  11.187   7.598  0.1342 -0.2088 -0.1167
 1275ERGO    C117145  16.773  11.038   7.940  0.1107 -0.0632 -0.0598
 1275ERGO    C217146  16.646  11.030   8.263  0.0894 -0.0097 -0.3699
 1276ERGO   ROH17147  13.441   1.153   6.924 -0.0391  0.0692 -0.0013
 1276ERGO    R117148  13.409   1.388   7.079  0.0419  0.0776  0.0033
 1276ERGO    R217149  13.258   1.394   7.310 -0.1110  0.1691 -0.0967
 1276ERGO    R317150  13.487   1.494   7.419 -0.1027 -0.0240  0.0693
 1276ERGO    R417151  13.275   1.567   7.609 -0.2029  0.2600 -0.1436
 1276ERGO    R517152  13.419   1.702   7.516  0.0194  0.0818 -0.0672
 1276ERGO    C117153  13.499   1.761   7.885 -0.2486  0.1317 -0.0152
 1276ERGO    C217154  13.350   1.826   8.259  0.0677  0.6331 -0.1889
 1277ERGO   ROH17155  14.456  17.412   6.926 -0.2649 -0.1569  0.1382
 1277ERGO    R117156  14.479  17.238   7.148 -0.2813 -0.1655  0.1327
 1277ERGO    R217157  14.654  17.284   7.357 -0.1827 -0.2575  0.0683
 1277ERGO    R317158  14.429  17.261   7.508 -0.1415 -0.1338  0.1514
 1277ERGO    R417159  14.649  17.260   7.702 -0.0558 -0.3448  0.0651
 1277ERGO    R517160  14.491  17.111   7.684 -0.1747 -0.2284  0.0868
 1277ERGO    C117161  14.434  17.224   8.044  0.0568 -0.2795  0.1412
 1277ERGO    C217162  14.421  17.088   8.337 -0.1332  0.2112  0.0603
 1278ERGO   ROH17163  13.892   9.139   6.407  0.2692  0.0139 -0.1816
 1278ERGO    R117164  14.018   9.026   6.634  0.0897  0.1100 -0.0321
 1278ERGO    R217165  14.280   9.081   6.701  0.1031 -0.0337  0.0255
 1278ERGO    R317166  14.170   9.149   6.940  0.0583  0.2551 -0.0732
 1278ERGO    R417167  14.459   9.177   6.981  0.1059 -0.3478  0.1362
 1278ERGO    R517168  14.321   9.060   7.103 -0.2438 -0.0363  0.0641
 1278ERGO    C117169  14.460   9.297   7.368  0.0654 -0.2596  0.1080
 1278ERGO    C217170  14.479   9.435   7.654 -0.0110 -0.0482  0.0769
 1279ERGO   ROH17171  11.110  16.441   6.840  0.0007  0.1103 -0.0997
 1279ERGO    R117172  11.076  16.510   7.112  0.0779  0.1245 -0.0937
 1279ERGO    R217173  11.105  16.769   7.204 -0.0006  0.1459 -0.1345
 1279ERGO    R317174  10.855  16.726   7.304  0.0573  0.0469 -0.0285
 1279ERGO    R417175  10.957  16.956   7.455  0.0755  0.0197  0.0068
 1279ERGO    R517176  10.876  16.772   7.538  0.1616 -0.0333 -0.0200
 1279ERGO    C117177  10.638  17.025   7.694  0.1742 -0.1469  0.1887
 1279ERGO    C217178  10.393  17.342   7.718  0.2166  0.3292 -0.2409
 1280ERGO   ROH17179  11.337  14.288   6.921  0.0001 -0.0385  0.1599
 1280ERGO    R117180  11.430  14.387   7.169  0.0365 -0.0215  0.1393
 1280ERGO    R217181  11.281  14.371   7.401  0.0787 -0.0215  0.1646
 1280ERGO    R317182  11.504  14.250   7.498  0.1037 -0.0011  0.1336
 1280ERGO    R417183  11.372  14.363   7.735 -0.0581 -0.3026  0.1982
 1280ERGO    R517184  11.579  14.395   7.674 -0.0462 -0.1308  0.3117
 1280ERGO    C117185  11.635  14.244   8.020 -0.1145 -0.4470  0.1885
 1280ERGO    C217186  11.555  14.013   8.335 -0.1026 -0.3434  0.0943
 1281ERGO   ROH17187  13.309  13.964   6.432 -0.2120  0.0515  0.0556
 1281ERGO    R117188  13.336  13.818   6.672 -0.2927  0.0615  0.0711
 1281ERGO    R217189  13.581  13.750   6.779 -0.3266 -0.2935 -0.0620
 1281ERGO    R317190  13.483  13.873   7.001 -0.0077 -0.0898 -0.0277
 1281ERGO    R417191  13.656  13.661   7.104 -0.3016 -0.3705 -0.0891
 1281ERGO    R517192  13.448  13.695   7.157 -0.2240 -0.0118  0.0167
 1281ERGO    C117193  13.608  13.724   7.502  0.0124 -0.2238 -0.0726
 1281ERGO    C217194  13.636  13.526   7.713 -0.1039  0.1896 -0.3262
 1282ERGO   ROH17195  13.855   4.595  10.624  0.1600  0.2197  0.0049
 1282ERGO    R117196  13.690   4.637  10.397  0.0606  0.2434  0.0821
 1282ERGO    R217197  13.695   4.871  10.250  0.1685  0.1649 -0.0339
 1282ERGO    R317198  13.739   4.700  10.043 -0.0963  0.0266  0.0181
 1282ERGO    R417199  13.697   4.961   9.916  0.3015  0.0651 -0.0618
 1282ERGO    R517200  13.591   4.776   9.871  0.0112  0.2057 -0.0018
 1282ERGO    C117201  13.739   4.854   9.528  0.1303 -0.1230 -0.0293
 1282ERGO    C217202  13.718   4.877   9.186 -0.2277  0.1361  0.0389
 1283ERGO   ROH17203  12.243  15.321   8.394 -0.2023 -0.0679 -0.0672
 1283ERGO    R117204  12.377  15.125   8.549 -0.1928  0.0215  0.0415
 1283ERGO    R217205  12.247  14.906   8.656 -0.1571 -0.0106  0.0416
 1283ERGO    R317206  12.442  14.768   8.525 -0.0458  0.0425  0.1532
 1283ERGO    R417207  12.263  14.561   8.631 -0.0948  0.0001 -0.0525
 1283ERGO    R517208  12.478  14.574   8.660 -0.1277  0.0097  0.1155
 1283ERGO    C117209  12.455  14.232   8.494  0.0458  0.0561 -0.0026
 1283ERGO    C217210  12.430  13.933   8.517  0.1081 -0.0940  0.0545
 1284ERGO   ROH17211  10.015   4.320   6.748 -0.1921  0.1830  0.0266
 1284ERGO    R117212   9.926   4.395   7.006 -0.1053  0.2338  0.0431
 1284ERGO    R217213   9.851   4.210   7.197 -0.3397  0.2781  0.0023
 1284ERGO    R317214  10.035   4.339   7.349 -0.1760  0.0173  0.0303
 1284ERGO    R417215   9.839   4.236   7.541 -0.2837  0.1990  0.0098
 1284ERGO    R517216   9.907   4.442   7.523 -0.0397  0.1224  0.0654
 1284ERGO    C117217  10.006   4.373   7.885 -0.0977 -0.0918  0.0404
 1284ERGO    C217218  10.096   4.238   8.186  0.2389  0.3594 -0.0814
 1285ERGO   ROH17219   7.006  11.177   8.171 -0.1153  0.1818 -0.0247
 1285ERGO    R117220   7.002  11.340   8.402  0.1749  0.0276  0.0937
 1285ERGO    R217221   6.773  11.381   8.552  0.2544  0.2929  0.1395
 1285ERGO    R317222   6.931  11.295   8.756  0.1389 -0.1081  0.0715
 1285ERGO    R417223   6.705  11.428   8.887  0.3882  0.2536  0.1736
 1285ERGO    R517224   6.916  11.470   8.920  0.4849 -0.1513  0.1636
 1285ERGO    C117225   6.813  11.376   9.275  0.3576 -0.1458  0.1297
 1285ERGO    C217226   6.676  11.389   9.569  0.0937 -0.1978 -0.0619
 1286ERGO   ROH17227   3.392   2.147  10.937  0.1708 -0.1313  0.0461
 1286ERGO    R117228   3.529   2.086  10.697  0.1421 -0.0267  0.0032
 1286ERGO    R217229   3.440   1.893  10.519  0.1647 -0.0041 -0.0297
 1286ERGO    R317230   3.455   2.097  10.340  0.0709  0.0473  0.0196
 1286ERGO    R417231   3.450   1.855  10.176  0.1711  0.0816 -0.0398
 1286ERGO    R517232   3.598   2.014  10.167  0.1032  0.1497 -0.0053
 1286ERGO    C117233   3.470   2.024   9.808  0.0868  0.1798  0.0008
 1286ERGO    C217234   3.486   2.020   9.417 -0.0583  0.0981  0.0252
 1287ERGO   ROH17235  12.073  13.810   6.813  0.1413  0.0074  0.1173
 1287ERGO    R117236  12.260  13.895   7.008  0.1445 -0.0030  0.1198
 1287ERGO    R217237  12.220  13.857   7.279  0.1342  0.0099  0.1247
 1287ERGO    R317238  12.464  13.737   7.265  0.1206 -0.0148  0.1291
 1287ERGO    R417239  12.402  13.747   7.552  0.1051 -0.0574  0.1163
 1287ERGO    R517240  12.583  13.822   7.456  0.1164 -0.0650  0.1478
 1287ERGO    C117241  12.736  13.570   7.697  0.0753 -0.1198  0.1156
 1287ERGO    C217242  12.830  13.515   8.005  0.0503 -0.1203  0.1434
 1288ERGO   ROH17243   2.795  13.948   6.685 -0.0309  0.0635  0.1539
 1288ERGO    R117244   2.873  14.055   6.935  0.0268  0.0774  0.1304
 1288ERGO    R217245   3.126  14.155   6.982  0.0377  0.0827  0.0660
 1288ERGO    R317246   2.989  14.376   7.061  0.0533  0.0852  0.0858
 1288ERGO    R417247   3.248  14.396   7.197  0.1080  0.1302 -0.0268
 1288ERGO    R517248   3.051  14.405   7.291  0.1471  0.1303  0.0544
 1288ERGO    C117249   3.191  14.744   7.397  0.1637  0.1601 -0.0622
 1288ERGO    C217250   3.215  14.940   7.658  0.0758  0.1414 -0.1813
 1289ERGO   ROH17251   3.263   1.127   6.602 -0.0550 -0.0244 -0.0138
 1289ERGO    R117252   3.234   1.169   6.880 -0.0607  0.0674 -0.0280
 1289ERGO    R217253   2.988   1.169   7.006 -0.0489 -0.0855 -0.0036
 1289ERGO    R317254   3.105   0.981   7.164  0.1249  0.0758  0.0637
 1289ERGO    R417255   2.879   1.079   7.321 -0.0198 -0.1355 -0.0075
 1289ERGO    R517256   3.087   1.069   7.385 -0.0198  0.1067  0.0405
 1289ERGO    C117257   2.925   0.851   7.653  0.1604 -0.0132  0.0533
 1289ERGO    C217258   2.945   0.603   7.943  0.0173 -0.1645 -0.1725
 1290ERGO   ROH17259  12.162   9.844   6.531 -0.2498  0.4203  0.0652
 1290ERGO    R117260  12.217   9.773   6.800 -0.0429  0.1213 -0.0501
 1290ERGO    R217261  12.456   9.833   6.924 -0.0606  0.2701 -0.0808
 1290ERGO    R317262  12.294   9.948   7.109 -0.1448 -0.1864  0.1574
 1290ERGO    R417263  12.533   9.868   7.259  0.2033  0.2303 -0.1344
 1290ERGO    R517264  12.326   9.816   7.307  0.3415 -0.2522  0.0519
 1290ERGO    C117265  12.425   9.995   7.628  0.2780 -0.2213  0.0580
 1290ERGO    C217266  12.667  10.030   7.878  0.2673  0.2658  0.5072
 1291ERGO   ROH17267   9.007   5.370   6.951 -0.1277 -0.0537  0.0756
 1291ERGO    R117268   9.024   5.388   7.233 -0.0689 -0.0304  0.0706
 1291ERGO    R217269   8.950   5.182   7.400  0.0124 -0.0348  0.1018
 1291ERGO    R317270   9.201   5.214   7.499  0.0278  0.0259  0.0436
 1291ERGO    R417271   9.066   5.041   7.694  0.1384 -0.0679  0.0371
 1291ERGO    R517272   9.170   5.228   7.736  0.0859 -0.0431  0.0554
 1291ERGO    C117273   9.369   4.990   7.957  0.2262 -0.0302 -0.0552
 1291ERGO    C217274   9.495   4.940   8.316 -0.1284  0.0013  0.2914
 1292ERGO   ROH17275   6.562   2.952   6.852  0.0074 -0.2673 -0.1562
 1292ERGO    R117276   6.503   3.081   7.097 -0.0208 -0.1415 -0.2291
 1292ERGO    R217277   6.247   3.095   7.200  0.0153 -0.3758 -0.1096
 1292ERGO    R317278   6.363   2.985   7.419  0.2664 -0.0558 -0.0740
 1292ERGO    R417279   6.153   3.157   7.526 -0.0230 -0.3562 -0.1239
 1292ERGO    R517280   6.363   3.160   7.581 -0.0042  0.0439 -0.1715
 1292ERGO    C117281   6.208   3.090   7.922  0.1904 -0.0443 -0.0987
 1292ERGO    C217282   6.122   2.874   8.197  0.0320 -0.0379 -0.2519
 1293ERGO   ROH17283   5.788   0.223  10.345  0.2192 -0.1276 -0.2053
 1293ERGO    R117284   5.659   0.231  10.093  0.1267  0.0216 -0.1552
 1293ERGO    R217285   5.648   0.461   9.938  0.1938  0.0783 -0.0821
 1293ERGO    R317286   5.756   0.299   9.748  0.0342  0.0754 -0.1703
 1293ERGO    R417287   5.677   0.541   9.603  0.2643  0.2298 -0.0400
 1293ERGO    R517288   5.620   0.336   9.555  0.0664  0.3095 -0.1487
 1293ERGO    C117289   5.794   0.435   9.230  0.1556  0.3153 -0.0980
 1293ERGO    C217290   5.852   0.408   8.972  0.0881  0.0825  0.0966
 1294ERGO   ROH17291  16.433  12.596   6.948 -0.1065  0.0820  0.0329
 1294ERGO    R117292  16.344  12.477   7.189 -0.0196  0.1182  0.0839
 1294ERGO    R217293  16.392  12.213   7.251 -0.2232  0.0528 -0.0134
 1294ERGO    R317294  16.498  12.319   7.478  0.0747 -0.0919 -0.0803
 1294ERGO    R417295  16.315  12.110   7.572 -0.1466  0.1572  0.0387
 1294ERGO    R517296  16.316  12.319   7.634  0.1793  0.1550  0.0432
 1294ERGO    C117297  16.369  12.149   7.972  0.1777  0.0821  0.0061
 1294ERGO    C217298  16.529  11.927   8.156  0.0838 -0.1476  0.0466
 1295ERGO   ROH17299   3.704  17.053   6.631  0.3036  0.2234 -0.1125
 1295ERGO    R117300   3.764  17.028   6.906  0.3133  0.1597 -0.1206
 1295ERGO    R217301   3.939  17.198   7.036  0.1375  0.2774 -0.0372
 1295ERGO    R317302   3.729  17.235   7.204  0.0910 -0.0069 -0.0282
 1295ERGO    R417303   3.963  17.308   7.363  0.0029  0.3394 -0.0471
 1295ERGO    R517304   3.809  17.164   7.418  0.2063  0.1225 -0.0264
 1295ERGO    C117305   3.779  17.406   7.711 -0.1192  0.1088 -0.0446
 1295ERGO    C217306   3.533  17.500   7.998 -0.1349  0.1139  0.2262
 1296ERGO   ROH17307  16.755   5.515   6.370 -0.0458 -0.0103  0.0526
 1296ERGO    R117308  16.848   5.523   6.637  0.1619  0.1491 -0.0216
 1296ERGO    R217309  16.908   5.760   6.767 -0.1463  0.2603 -0.0710
 1296ERGO    R317310  16.734   5.664   6.953  0.1667 -0.0529  0.0714
 1296ERGO    R417311  16.884   5.874   7.092 -0.0694  0.1925 -0.0414
 1296ERGO    R517312  16.858   5.668   7.158  0.3351  0.1392 -0.0315
 1296ERGO    C117313  16.706   5.850   7.456  0.2691 -0.1411  0.1096
 1296ERGO    C217314  16.571   6.022   7.684 -0.0932  0.0813  0.1867
 1297ERGO   ROH17315  10.845   6.329   7.174  0.1787  0.2177  0.0089
 1297ERGO    R117316  11.013   6.373   7.398  0.0906  0.0170  0.1166
 1297ERGO    R217317  10.948   6.552   7.599  0.1991  0.1350  0.0457
 1297ERGO    R317318  10.986   6.336   7.759 -0.2069  0.1009  0.1067
 1297ERGO    R417319  11.058   6.566   7.926  0.4759  0.0198 -0.0387
 1297ERGO    R517320  11.181   6.390   7.887  0.0315 -0.3076 -0.0592
 1297ERGO    C117321  11.157   6.371   8.267  0.2558 -0.0792 -0.0307
 1297ERGO    C217322  11.269   6.145   8.504  0.3409  0.0702 -0.0145
 1298ERGO   ROH17323   0.022   9.002   6.526  0.2483  0.0494  0.2088
 1298ERGO    R117324   0.042   8.860   6.770  0.0987 -0.1129  0.1281
 1298ERGO    R217325   0.004   8.980   7.015  0.1566 -0.2287  0.1928
 1298ERGO    R317326  -0.178   8.781   7.048 -0.0069 -0.1071  0.0472
 1298ERGO    R417327  -0.029   8.788   7.301  0.0328 -0.4416  0.0392
 1298ERGO    R517328  -0.061   8.613   7.174 -0.1287 -0.3119 -0.1042
 1298ERGO    C117329  -0.219   8.489   7.498 -0.1925 -0.4515 -0.1870
 1298ERGO    C217330  -0.226   8.256   7.798  0.0352 -0.0585 -0.1664
 1299ERGO   ROH17331   0.129   0.888   6.844 -0.0810 -0.4425 -0.1876
 1299ERGO    R117332   0.124   0.736   7.083 -0.0828 -0.2093 -0.0371
 1299ERGO    R217333   0.340   0.586   7.168 -0.1047 -0.1691  0.0827
 1299ERGO    R317334   0.310   0.731   7.396 -0.0470  0.0584 -0.0504
 1299ERGO    R417335   0.474   0.502   7.475 -0.2736 -0.0286  0.1975
 1299ERGO    R517336   0.289   0.566   7.569 -0.2490  0.2215  0.0875
 1299ERGO    C117337   0.524   0.589   7.868 -0.3178  0.2668  0.1393
 1299ERGO    C217338   0.637   0.476   8.223 -0.0941 -0.1095  0.4085
 1300ERGO   ROH17339   8.023   4.984   6.803  0.0257 -0.0259 -0.0524
 1300ERGO    R117340   8.099   5.125   7.036 -0.1281  0.0986 -0.0746
 1300ERGO    R217341   7.917   5.208   7.227 -0.2218 -0.0909 -0.0740
 1300ERGO    R317342   8.080   5.071   7.396 -0.0468  0.1202 -0.0682
 1300ERGO    R417343   7.921   5.244   7.570 -0.2298 -0.0483 -0.0786
 1300ERGO    R517344   8.138   5.230   7.565 -0.2164  0.2051 -0.0932
 1300ERGO    C117345   8.076   5.137   7.929 -0.0700  0.1746 -0.0758
 1300ERGO    C217346   8.002   5.109   8.219 -0.0954  0.4025  0.1371
 1301ERGO   ROH17347   1.823   2.276   7.736  0.0446  0.1446  0.0086
 1301ERGO    R117348   1.717   2.015   7.763  0.1081  0.1210  0.0328
 1301ERGO    R217349   1.519   1.952   7.945  0.1535  0.0797  0.0687
 1301ERGO    R317350   1.392   1.856   7.725  0.1371  0.0466  0.0931
 1301ERGO    R417351   1.263   1.720   7.950  0.1189  0.1198  0.1289
 1301ERGO    R517352   1.351   1.625   7.776  0.1031  0.0644  0.1499
 1301ERGO    C117353   0.994   1.495   7.747  0.0833  0.1120  0.1868
 1301ERGO    C217354   0.752   1.303   7.905  0.3589  0.0571  0.0040
 1302ERGO   ROH17355  14.630   9.626   6.601 -0.0156  0.1843  0.0798
 1302ERGO    R117356  14.741   9.465   6.806 -0.0423  0.0690  0.0041
 1302ERGO    R217357  14.971   9.534   6.942 -0.0421 -0.0233  0.0511
 1302ERGO    R317358  14.814   9.500   7.161 -0.0562 -0.1186  0.0267
 1302ERGO    R417359  15.087   9.518   7.267 -0.1074  0.3953  0.1015
 1302ERGO    R517360  14.943   9.358   7.305  0.1329  0.1866  0.1689
 1302ERGO    C117361  15.007   9.476   7.662 -0.1587  0.5497  0.1080
 1302ERGO    C217362  15.095   9.365   8.033  0.0720  0.0662 -0.1671
 1303ERGO   ROH17363  11.430   1.922   6.919 -0.1542 -0.1103  0.1307
 1303ERGO    R117364  11.402   2.002   7.189  0.0310 -0.0652  0.1361
 1303ERGO    R217365  11.353   1.822   7.393 -0.0030 -0.0079  0.1709
 1303ERGO    R317366  11.574   1.935   7.503  0.1304 -0.1579  0.0645
 1303ERGO    R417367  11.413   1.849   7.732 -0.0063  0.2777  0.1523
 1303ERGO    R517368  11.493   2.049   7.698  0.2445  0.1535 -0.0582
 1303ERGO    C117369  11.656   1.971   8.033  0.1169  0.3031  0.0416
 1303ERGO    C217370  11.761   1.981   8.366  0.1150 -0.2538  0.0159
 1304ERGO   ROH17371  15.379   9.999   8.193  0.0729  0.1368 -0.0269
 1304ERGO    R117372  15.506   9.970   8.444  0.0003 -0.0294 -0.0096
 1304ERGO    R217373  15.538  10.180   8.621  0.1129 -0.1072  0.0570
 1304ERGO    R317374  15.413  10.011   8.793 -0.0400 -0.0701 -0.0138
 1304ERGO    R417375  15.515  10.227   8.962  0.1416 -0.2092  0.0738
 1304ERGO    R517376  15.550  10.014   8.989 -0.0389 -0.2570 -0.0049
 1304ERGO    C117377  15.385  10.095   9.323  0.0148 -0.2338  0.0171
 1304ERGO    C217378  15.477  10.083   9.623  0.2961 -0.0938  0.2241
 1305W        W17379   9.505  10.005   2.714  0.2651  0.0720 -0.1283
 1306W        W17380  17.259   7.995   4.006  0.0669  0.1348 -0.0344
 1307W        W17381   2.177   4.526   4.797  0.2173  0.2054 -0.1547
 1308W        W17382  13.830  10.922  14.208 -0.1817 -0.1609 -0.3551
 1309W        W17383  10.484   9.147   3.635  0.0808 -0.1815  0.2432
 1310W        W17384  12.933   2.245   5.184 -0.2359 -0.0515  0.2440
 1311W        W17385   8.109  12.210  13.809 -0.1984 -0.0102  0.0235
 1312W        W17386   6.133  12.146   4.896  0.1508 -0.0938  0.1651
 1313W        W17387   8.107  15.437  14.778 -0.0616  0.1075  0.2705
 1314W        W17388   6.925  13.156  13.551  0.0401 -0.2270 -0.1401
 1315W        W17389   9.455   0.703  14.297 -0.1354 -0.2216 -0.3227
 1316W        W17390  10.062   8.204   3.318  0.1829 -0.1441 -0.2896
 1317W        W17391  11.332  13.967   1.941  0.0224  0.0742 -0.3341
 1318W        W17392   9.292   8.909   2.224 -0.1212  0.1438  0.2918
 1319W        W17393   1.619   7.154  13.504 -0.1063  0.2713  0.3021
 1320W        W17394  14.335   9.488   4.742 -0.0987  0.2936 -0.2116
 1321W        W17395  14.765   5.697   2.372  0.2265  0.0172 -0.0406
 1322W        W17396   4.443   1.201  16.386 -0.2269  0.0320 -0.3045
 1323W        W17397   7.751   0.343  15.425 -0.1193 -0.2160  0.2737
 1324W        W17398   2.593   7.179  10.576  0.0746  0.0341 -0.0279
 1325W        W17399  13.299   4.581  14.061 -0.2047  0.0541  0.0108
 1326W        W17400   8.862   0.603   5.979 -0.1247 -0.3325  0.0702
 1327W        W17401  11.842  12.684  12.012 -0.1775  0.0229  0.0312
 1328W        W17402  11.099  10.744   4.392  0.0373  0.0168  0.0603
 1329W        W17403  14.005   2.280   2.649 -0.0483 -0.3176 -0.1884
 1330W        W17404  10.414   7.166   4.380 -0.0100  0.1779 -0.0734
 1331W        W17405  10.793   2.601  17.065 -0.0609  0.0429  0.0408
 1332W        W17406   8.002  10.439  16.902 -0.1408 -0.0736 -0.3177
 1333W        W17407  17.531  10.956  11.849  0.4511  0.1341  0.0054
 1334W        W17408   6.750   4.841  11.891  0.2166  0.2092 -0.2682
 1335W        W17409  12.481  10.288   4.389  0.2337  0.2102  0.3241
 1336W        W17410   0.589  13.215  13.280  0.0779  0.1719  0.1528
 1337W        W17411   2.742   7.209   4.749  0.1104 -0.1414  0.1405
 1338W        W17412  11.565   2.883  15.014 -0.0576  0.3484 -0.4148
 1339W        W17413   8.416  13.282  17.060  0.1054  0.0885  0.1065
 1340W        W17414   1.874   4.705  12.029 -0.0390  0.2048 -0.2164
 1341W        W17415   1.752   0.786  11.974 -0.0427 -0.1385 -0.0690
 1342W        W17416   1.348  14.022   1.822 -0.0429 -0.2681  0.1115
 1343W        W17417  12.682  15.549   0.256 -0.3194  0.0090 -0.0529
 1344W        W17418   0.879  10.560  14.919 -0.1340 -0.0687  0.0423
 1345W        W17419   5.542  15.278   4.431  0.0010 -0.0139  0.2497
 1346W        W17420   6.825  17.134  12.885  0.2707  0.0424  0.2211
 1347W        W17421   0.417   4.837  14.641 -0.0422 -0.0194 -0.0157
 1348W        W17422   7.820   2.191  12.767  0.0063  0.0365 -0.1664
 1349W        W17423  15.347   2.830  14.584  0.0013  0.1480 -0.1587
 1350W        W17424  11.420  15.720  12.559 -0.1427 -0.0395 -0.3169
 1351W        W17425  12.807   6.170  14.362 -0.2668  0.3478  0.1553
 1352W        W17426   3.254   4.175   0.816 -0.0139 -0.2556 -0.2907
 1353W        W17427   2.602   3.724  15.174 -0.0866  0.1817  0.2099
 1354W        W17428   5.471   6.943   5.198  0.0056  0.1398 -0.0426
 1355W        W17429  15.150  11.646  14.612  0.1721 -0.2282  0.0932
 1356W        W17430  14.534   7.065  13.458  0.0359 -0.0451  0.0418
 1357W        W17431   7.973  10.985   4.364  0.0273  0.2366  0.3002
 1358W        W17432  13.266   6.706   0.045 -0.1074 -0.2045 -0.1822
 1359W        W17433   7.916  16.968  14.815 -0.1501  0.0878 -0.1703
 1360W        W17434   7.859   4.118   5.066 -0.2558 -0.0297  0.0132
 1361W        W17435  11.682   2.850   3.850  0.1199  0.0658  0.0186
 1362W        W17436   2.321  11.530   3.605 -0.0934  0.0663 -0.0861
 1363W        W17437   9.882  12.819   1.323  0.2287  0.1278  0.2657
 1364W        W17438   9.603   5.823  13.878  0.0041  0.1820 -0.0004
 1365W        W17439  16.518   3.614   2.708  0.3526  0.0872 -0.2461
 1366W        W17440  17.691   0.708   1.487 -0.1613  0.0067 -0.2262
 1367W        W17441  12.277  15.911  12.393  0.1030  0.0214 -0.1030
 1368W        W17442  13.621  13.772   2.487 -0.1040  0.0338  0.2121
 1369W        W17443   4.375   4.352   4.203  0.0119  0.3075  0.1483
 1370W        W17444   5.664   4.605  14.625 -0.0192 -0.0797  0.2931
 1371W        W17445  12.129   2.195   3.367  0.2477 -0.1467  0.1695
 1372W        W17446  11.997  17.055   1.903 -0.1622  0.1247  0.2575
 1373W        W17447   4.102  16.519  11.720 -0.3597 -0.2740 -0.0539
 1374W        W17448  15.490   5.573   1.528  0.0344  0.0931  0.1468
 1375W        W17449   4.382   3.578  13.955  0.1307 -0.1333 -0.0330
 1376W        W17450  10.768   6.409  12.512  0.0706  0.1906 -0.1254
 1377W        W17451   3.622  15.458  16.204  0.3112 -0.1139  0.0729
 1378W        W17452   8.336  14.539   1.230 -0.1166  0.0591 -0.3420
 1379W        W17453  13.022   4.219  16.848  0.1760  0.0784  0.1474
 1380W        W17454   1.534   4.288  14.518 -0.1008  0.0611  0.0869
 1381W        W17455  15.259  11.018   1.672  0.1360  0.0483 -0.2097
 1382W        W17456  11.794  10.123  15.305  0.3183 -0.1446  0.0432
 1383W        W17457   6.521   8.336   4.090  0.2857  0.0562  0.1838
 1384W        W17458   3.040  14.330  13.080 -0.0255  0.3273  0.0863
 1385W        W17459  13.214   0.078  15.770 -0.0939  0.3332 -0.0869
 1386W        W17460   4.650   8.905  16.013  0.2111  0.0379  0.1390
 1387W        W17461  10.666  15.991   3.568 -0.1737  0.0331 -0.0741
 1388W        W17462  15.041  17.042   5.000  0.0967  0.1143 -0.0209
 1389W        W17463   8.279  16.078   0.354 -0.1679  0.1377 -0.1347
 1390W        W17464   2.257   0.587   3.087 -0.1305 -0.0039  0.1600
 1391W        W17465  17.192   2.927   3.703 -0.0041 -0.2239  0.0340
 1392W        W17466   2.747   4.691  16.146  0.3620 -0.2057 -0.5267
 1393W        W17467   4.591   7.951   2.082  0.1011  0.2716 -0.0104
 1394W        W17468   9.242   2.126   5.002  0.2847 -0.1945  0.2652
 1395W        W17469   5.198  15.988   3.547  0.2573 -0.1844 -0.3326
 1396W        W17470   3.244   5.043   2.254 -0.0694 -0.1803 -0.0342
 1397W        W17471   6.713  17.200   0.890 -0.3445  0.1552 -0.0258
 1398W        W17472   7.681  12.961   2.666  0.0049 -0.1376  0.1231
 1399W        W17473  16.783  10.402   1.393  0.0730 -0.1556  0.1017
 1400W        W17474   9.224   8.438   2.400 -0.1166 -0.2030  0.2028
 1401W        W17475   2.610   0.021  15.351  0.4366  0.2527 -0.0129
 1402W        W17476   4.186  15.816   1.297 -0.2393  0.0808 -0.1811
 1403W        W17477   6.320   2.844  16.911 -0.0213 -0.2685  0.1642
 1404W        W17478   4.698  11.043  16.191 -0.2356  0.2781  0.2927
 1405W        W17479   6.385   9.492   5.036  0.2527  0.4493 -0.1897
 1406W        W17480  12.412   4.466   3.858  0.0819 -0.1949 -0.0032
 1407W        W17481   6.300  13.171  16.671  0.0929  0.0554 -0.1566
 1408W        W17482   1.500  12.560   2.351 -0.0447  0.0230  0.2009
 1409W        W17483   6.247   8.121  13.228  0.1750 -0.2504 -0.1276
 1410W        W17484   8.458   4.406  12.127 -0.1290 -0.4018 -0.3762
 1411W        W17485   6.060   1.697   1.474 -0.1836  0.0396 -0.2429
 1412W        W17486   8.833  16.123   4.192  0.2325 -0.1520 -0.1325
 1413W        W17487   8.965   0.296  12.062  0.4489 -0.2280  0.0657
 1414W        W17488  13.462  16.052  14.174  0.0462  0.0156 -0.1233
 1415W        W17489   6.857  16.215   1.733 -0.1102  0.3079 -0.2622
 1416W        W17490  10.142   4.659  13.667 -0.1095  0.2154 -0.5625
 1417W        W17491  13.831  12.629   0.463  0.2303  0.0090 -0.0508
 1418W        W17492  16.279   7.104   2.914 -0.0622 -0.0386  0.0413
 1419W        W17493   2.955   1.262   3.130  0.0459  0.1583  0.0427
 1420W        W17494   4.274   4.961   3.788 -0.0385  0.0449 -0.1747
 1421W        W17495   7.891   3.934  13.923 -0.0204 -0.0023 -0.0391
 1422W        W17496   0.543   8.644   4.222 -0.0090 -0.0531 -0.0730
 1423W        W17497   2.790   3.754   0.986 -0.0444  0.0148  0.1271
 1424W        W17498   0.558   1.946  14.155 -0.1604 -0.0689  0.1831
 1425W        W17499  16.902   9.498  16.480  0.0373  0.0782 -0.0055
 1426W        W17500  12.777   3.735   2.489 -0.0838  0.0940  0.0934
 1427W        W17501   0.002   0.462   0.122 -0.1890 -0.0889 -0.1007
 1428W        W17502   1.252   9.161   2.590  0.2344  0.2291  0.3379
 1429W        W17503   2.840  15.711  16.815 -0.0908 -0.1821 -0.0612
 1430W        W17504   4.769  14.051  15.001  0.1981 -0.0066  0.4024
 1431W        W17505  16.811   2.167   5.352 -0.0327  0.0342  0.0465
 1432W        W17506   2.242  13.600   2.205 -0.1205  0.1622  0.1334
 1433W        W17507   4.058  14.506   3.088 -0.0339  0.0772  0.3428
 1434W        W17508  15.720  12.310   2.420  0.0042 -0.3121 -0.0027
 1435W        W17509   6.634  15.786   5.194  0.4134 -0.2270  0.3192
 1436W        W17510   9.990  17.552   4.065  0.0497  0.1233 -0.1162
 1437W        W17511   3.164   0.026   1.924  0.2408  0.1160 -0.1494
 1438W        W17512   0.531  10.588   2.023  0.4044 -0.0434 -0.1175
 1439W        W17513  12.964  15.063  14.145  0.1358 -0.3035 -0.1053
 1440W        W17514  15.152   8.189   3.256 -0.2349  0.2624 -0.0036
 1441W        W17515   0.182   0.875  16.121 -0.0511 -0.1704 -0.1477
 1442W        W17516   6.928   9.459   5.097 -0.1259  0.0062  0.0466
 1443W        W17517   5.734  15.560  14.343  0.4169 -0.0494 -0.1020
 1444W        W17518  14.189   1.452   3.072 -0.0844  0.1092  0.1307
 1445W        W17519  15.281   4.316   2.603  0.0676 -0.0526 -0.0647
 1446W        W17520  16.672   7.441  16.063  0.1707 -0.1292 -0.0452
 1447W        W17521   0.707  12.629   4.801  0.1010  0.0356  0.1795
 1448W        W17522   4.721   7.337  13.971 -0.1920 -0.2032 -0.1101
 1449W        W17523   7.099   8.059   3.997  0.0611  0.0394 -0.1764
 1450W        W17524  13.286   4.348   0.487 -0.1099 -0.1248  0.0401
 1451W        W17525  13.019   7.753   2.603 -0.3364  0.4542  0.2078
 1452W        W17526   2.404   7.025  12.711 -0.1385 -0.1858 -0.3322
 1453W        W17527   5.538  14.525   4.913  0.1060 -0.3314 -0.2748
 1454W        W17528   8.289   4.519   4.590 -0.3220  0.0340 -0.1634
 1455W        W17529   5.480   1.773  14.339  0.1495  0.3902 -0.1268
 1456W        W17530  16.746   9.108   1.022 -0.1089  0.0063  0.2299
 1457W        W17531  11.402   3.066   1.305  0.0632  0.2512 -0.0097
 1458W        W17532  16.706   5.964  10.595  0.0331 -0.0350  0.0882
 1459W        W17533   3.917   5.805   1.321  0.0115  0.1712 -0.2263
 1460W        W17534   9.694  11.161  11.943 -0.2032  0.2158  0.2914
 1461W        W17535  11.004   2.494  14.077  0.1841 -0.0821  0.1306
 1462W        W17536   8.076   8.568  16.494  0.0757  0.0146 -0.2551
 1463W        W17537  14.368   7.450  16.070  0.1686 -0.1751  0.0000
 1464W        W17538   8.778  16.064   4.729  0.1762  0.2682 -0.3347
 1465W        W17539   2.631   0.409   2.723 -0.3372  0.2347  0.0663
 1466W        W17540   8.898   4.017   6.356 -0.0928 -0.0762  0.1707
 1467W        W17541   6.702   3.891   4.092  0.2050 -0.0133 -0.0885
 1468W        W17542   8.567  10.152  16.683 -0.3988 -0.2001  0.0019
 1469W        W17543  16.066   3.299  12.601  0.0963 -0.0321  0.1086
 1470W        W17544   8.740   7.272  13.143 -0.1070  0.0238  0.0408
 1471W        W17545   0.040   8.959   2.619  0.0510  0.2229 -0.1604
 1472W        W17546   7.995  14.123   5.982 -0.2501  0.1388 -0.3299
 1473W        W17547   5.597  13.565  15.439 -0.0953  0.0190  0.0552
 1474W        W17548  13.679   2.756  17.057 -0.3395  0.3196  0.6052
 1475W        W17549   1.609   6.996  14.031 -0.1983 -0.2262  0.1311
 1476W        W17550  16.032  11.811   2.291 -0.0061  0.0499  0.3389
 1477W        W17551   5.169   4.303  17.087 -0.0899 -0.0124 -0.0411
 1478W        W17552   6.062  13.177  13.605 -0.0427  0.0430  0.0053
 1479W        W17553   9.966  15.992   0.420 -0.1547 -0.1612 -0.1668
 1480W        W17554   7.095   4.196  13.150 -0.2038 -0.1279 -0.0652
 1481W        W17555   3.128   6.474   6.056  0.3134 -0.0268 -0.2657
 1482W        W17556   4.741   7.021  13.470 -0.0123 -0.4085 -0.0887
 1483W        W17557  16.194   5.792  15.014  0.1202 -0.1862 -0.2558
 1484W        W17558  15.277   7.693   3.385 -0.0097  0.1141 -0.0558
 1485W        W17559  12.718   6.914   0.309  0.0261  0.2116  0.4298
 1486W        W17560  15.905   9.627  11.758  0.1935 -0.2281 -0.0646
 1487W        W17561   0.197  17.574  14.306  0.0589  0.1679 -0.1912
 1488W        W17562  12.910  16.686  14.992  0.3586  0.5140 -0.0165
 1489W        W17563  12.938   7.892  14.823  0.0876  0.2831 -0.1257
 1490W        W17564   6.235  15.798  13.590  0.1454  0.0737  0.3279
 1491W        W17565   4.581  11.350   4.998 -0.0490 -0.1078  0.0620
 1492W        W17566   0.189   3.327  14.821  0.1805 -0.0764  0.2052
 1493W        W17567   5.456   2.691   3.912 -0.4023  0.0534 -0.1779
 1494W        W17568   7.769   4.468   3.772  0.1951 -0.0860 -0.0734
 1495W        W17569   5.910   2.900   5.350 -0.1210  0.0081  0.0531
 1496W        W17570   5.066   5.631  11.695  0.0966 -0.1313  0.2803
 1497W        W17571   8.266   2.870  13.123 -0.0241 -0.1284 -0.1615
 1498W        W17572   2.165   1.633   2.112  0.1736 -0.0774 -0.1821
 1499W        W17573   9.786   1.846  16.770 -0.0414  0.2448  0.0830
 1500W        W17574   6.416   5.122  13.696 -0.1915  0.1270  0.1950
 1501W        W17575   3.705   5.061   6.516 -0.2361 -0.0362  0.1833
 1502W        W17576   5.971  13.026   1.780  0.0508 -0.0710 -0.4155
 1503W        W17577  11.879   4.919  11.994 -0.2489 -0.0595 -0.2012
 1504W        W17578   8.990   9.362  15.096 -0.3601  0.2594 -0.0202
 1505W        W17579   9.765  16.997  11.548 -0.0146 -0.3082 -0.2018
 1506W        W17580   4.616  10.685  14.706 -0.0504  0.1369 -0.3508
 1507W        W17581   0.745  11.532   5.012  0.0503  0.0988  0.0564
 1508W        W17582   0.205   2.775   4.414  0.2420  0.0365 -0.0011
 1509W        W17583   7.163  15.794   0.367 -0.1928 -0.1025  0.2160
 1510W        W17584  16.754   7.046   5.070  0.5074 -0.0625  0.2875
 1511W        W17585   9.511  16.126  15.789  0.2114 -0.0476  0.0629
 1512W        W17586   2.987   6.506   2.312 -0.0936  0.1676 -0.1086
 1513W        W17587   3.285  13.396   5.257 -0.2084  0.0933  0.5139
 1514W        W17588   0.815   8.419  14.913 -0.3215  0.1978  0.1867
 1515W        W17589  15.302   5.343  12.274 -0.1580  0.1228 -0.0952
 1516W        W17590   0.204  15.519   5.253  0.2851  0.1645  0.2018
 1517W        W17591  10.768  10.841  17.087 -0.3154  0.0516  0.2261
 1518W        W17592  14.549  13.771   0.956 -0.2463 -0.1829 -0.1277
 1519W        W17593  17.247   8.164  12.532  0.1391  0.1007 -0.0723
 1520W        W17594  11.404   6.042  11.831 -0.2132 -0.0563  0.2977
 1521W        W17595   8.327   4.253   5.529  0.0772  0.1119 -0.1640
 1522W        W17596   1.011  10.361   5.106  0.2346 -0.0643 -0.1259
 1523W        W17597   0.242  10.129   4.123 -0.1241  0.2760  0.3482
 1524W        W17598   5.766   5.596  15.242 -0.1774  0.0446 -0.0372
 1525W        W17599   9.471   3.424   3.918 -0.1755  0.0182 -0.1144
 1526W        W17600   4.585   5.416  12.470 -0.1593  0.0834  0.1255
 1527W        W17601   1.229   8.817   0.348 -0.1159  0.0556 -0.1335
 1528W        W17602   0.854   6.166  14.249 -0.2654 -0.0988 -0.0761
 1529W        W17603   9.912   7.009   1.852 -0.0440  0.1972  0.0368
 1530W        W17604   6.842  15.897  12.714 -0.3339  0.1178 -0.2423
 1531W        W17605  11.934  11.114  13.249  0.0753 -0.1959 -0.3113
 1532W        W17606  16.343   8.428   3.095  0.0116 -0.1973 -0.0876
 1533W        W17607   2.111  10.340   0.001  0.1056  0.1819 -0.0335
 1534W        W17608   4.708   7.598   3.475  0.1110  0.0512  0.2181
 1535W        W17609   4.213  12.557   0.056 -0.3456 -0.0818 -0.0060
 1536W        W17610   0.788   9.273  14.444  0.1267 -0.3236  0.1199
 1537W        W17611   9.205  17.245  14.114  0.0961  0.0636 -0.1978
 1538W        W17612   8.847  15.693   5.886 -0.0821 -0.0477 -0.2246
 1539W        W17613  11.775  14.365  13.499  0.2252 -0.0197  0.1450
 1540W        W17614   9.635  16.448  16.553  0.3694  0.0767 -0.0926
 1541W        W17615   9.021  16.586   0.419 -0.0391 -0.0429  0.0882
 1542W        W17616   4.699   7.845   2.914 -0.1386  0.1385  0.0616
 1543W        W17617  13.797  11.568   4.831  0.2666  0.0147  0.0248
 1544W        W17618   5.969   4.110  16.309  0.2731  0.1093 -0.1772
 1545W        W17619   5.284   6.821  14.913  0.1739  0.2546 -0.0647
 1546W        W17620  16.708   1.665   0.259  0.0040  0.1216 -0.0596
 1547W        W17621  13.121   7.475  12.546  0.1231 -0.2156 -0.0440
 1548W        W17622   4.253  16.564   4.653 -0.1988  0.0086  0.0809
 1549W        W17623   0.664  11.416  14.531  0.0803 -0.3720 -0.2994
 1550W        W17624   1.758  14.755   2.654 -0.0142 -0.2040  0.0989
 1551W        W17625  13.881   2.352   2.142 -0.0136 -0.0571 -0.2138
 1552W        W17626   0.270  11.689   2.830 -0.0253 -0.0070  0.2023
 1553W        W17627   3.865   5.072   1.241  0.0592  0.0581 -0.0316
 1554W        W17628  14.427   6.883  11.723  0.0166  0.2591  0.1638
 1555W        W17629  16.168  15.252  13.702 -0.0585  0.1482 -0.0278
 1556W        W17630   9.120  13.458  12.797  0.1086  0.0223  0.1320
 1557W        W17631   1.509   9.177  16.286  0.1725  0.0053  0.0208
 1558W        W17632   3.401   0.755   1.426  0.2995 -0.0381  0.0253
 1559W        W17633  10.587  13.281  16.538  0.0566  0.0904 -0.1065
 1560W        W17634  10.466  16.917   3.791 -0.0736  0.0196  0.1929
 1561W        W17635   7.988  10.084  11.331  0.3552  0.1760  0.1297
 1562W        W17636  11.676   5.818  15.910  0.0054 -0.0310  0.2684
 1563W        W17637   3.294  14.229   1.294 -0.2268 -0.0489  0.1074
 1564W        W17638   1.542   8.575   4.948  0.0407  0.0106  0.0609
 1565W        W17639   7.620   5.956   3.465 -0.3250 -0.1982  0.0146
 1566W        W17640  13.740  10.322  13.778 -0.2498  0.1033 -0.1263
 1567W        W17641   5.502   3.147  13.480 -0.4759  0.0925  0.0580
 1568W        W17642  17.253  15.084   0.988 -0.0751  0.0231  0.2835
 1569W        W17643   1.398  13.800  12.511  0.0622  0.4077  0.1822
 1570W        W17644  15.457   9.287  15.452 -0.1213 -0.0770 -0.1298
 1571W        W17645  16.502   3.673  15.574  0.0116  0.1135  0.5195
 1572W        W17646   6.267   9.757  16.055  0.3246 -0.0849 -0.1281
 1573W        W17647   7.224  16.413  15.091  0.0437 -0.0181 -0.1601
 1574W        W17648   2.043   1.891   4.574  0.2135 -0.1884 -0.0558
 1575W        W17649   9.248  15.604   1.194 -0.1003 -0.2991 -0.3315
 1576W        W17650   1.286  13.203   3.663  0.0554  0.1951 -0.1885
 1577W        W17651   8.255   9.191  11.528 -0.1491 -0.2912  0.1867
 1578W        W17652  12.061  13.438  12.044  0.2077  0.0436 -0.1112
 1579W        W17653  10.748   5.371  14.100  0.1502  0.2420  0.0866
 1580W        W17654  12.398   9.572  16.830 -0.0120 -0.0351  0.0632
 1581W        W17655   3.071   4.574  13.053  0.0603  0.0186 -0.0142
 1582W        W17656  16.937   3.038  14.953  0.1642  0.1726  0.0758
 1583W        W17657  11.098  14.553   1.586  0.0537  0.1632  0.1800
 1584W        W17658   0.934   8.953  15.187 -0.2846 -0.2525  0.0761
 1585W        W17659  16.530   0.646  16.256 -0.1140 -0.0328 -0.2871
 1586W        W17660  12.656   7.392   4.530 -0.2131  0.0600  0.0077
 1587W        W17661   3.954   3.365   5.477  0.1057 -0.2189 -0.1343
 1588W        W17662  14.723   7.544  13.575  0.1016  0.1496  0.1187
 1589W        W17663  16.467   2.581   5.009 -0.1476 -0.1976  0.5108
 1590W        W17664   4.843  16.913  11.538  0.0602  0.2895 -0.0719
 1591W        W17665  14.470  15.514  15.027 -0.1186 -0.0861  0.0197
 1592W        W17666  10.704   3.438   1.955 -0.1198  0.0106 -0.3638
 1593W        W17667   4.211  13.760   1.936 -0.0373  0.0368 -0.1082
 1594W        W17668   6.435   0.558   3.771  0.2287  0.1118  0.2140
 1595W        W17669  15.278  14.501  11.966 -0.0096  0.0007 -0.2702
 1596W        W17670  14.769  13.919  14.419  0.2955 -0.0393 -0.0819
 1597W        W17671   3.610  17.640   4.449  0.1022  0.2493 -0.0182
 1598W        W17672  15.211   4.932  12.650 -0.0572  0.2521  0.1337
 1599W        W17673  11.661   1.344   5.300 -0.1033  0.0627 -0.3523
 1600W        W17674   0.233  15.631  16.340  0.0200 -0.4137 -0.0451
 1601W        W17675   0.980  14.677   1.263 -0.1964  0.1224  0.5094
 1602W        W17676  11.136  16.604   4.869 -0.2267  0.0126  0.2331
 1603W        W17677  14.096   6.574   5.627  0.1595  0.1355  0.0866
 1604W        W17678   6.895   5.023  16.659 -0.2849 -0.1239 -0.0934
 1605W        W17679   5.694   7.599  13.486 -0.3748 -0.0203  0.1821
 1606W        W17680  11.516   9.771   5.254 -0.4091 -0.0819 -0.0546
 1607W        W17681   8.277  11.856   0.665 -0.0367 -0.5199  0.0245
 1608W        W17682  10.560   9.606  15.584  0.0264 -0.0634 -0.0549
 1609W        W17683  15.289   3.402   3.480 -0.2729  0.0778  0.0174
 1610W        W17684   0.580  12.786   3.171  0.0030 -0.0573 -0.0158
 1611W        W17685   7.995  12.067  13.289  0.0317 -0.0954 -0.1634
 1612W        W17686   1.972  17.494  13.125  0.1483 -0.3126  0.0076
 1613W        W17687   1.327  16.850   4.541  0.2826  0.0025 -0.0262
 1614W        W17688   7.505   2.025   4.481 -0.0191  0.1265  0.1741
 1615W        W17689   8.882   5.696  16.764  0.2706  0.0606 -0.1284
 1616W        W17690  16.040   0.546  16.984  0.1934  0.0052  0.1107
 1617W        W17691   9.787   7.847  15.131  0.1453  0.3969  0.1159
 1618W        W17692  17.496   0.742  12.399 -0.1529  0.0503  0.1910
 1619W        W17693   1.374   1.067  16.054  0.0981  0.0918  0.0411
 1620W        W17694  16.905   0.666   0.279 -0.2117 -0.0093  0.0425
 1621W        W17695  13.473  16.408   3.594 -0.1737  0.4509  0.0009
 1622W        W17696   2.170   3.946  15.096 -0.3864  0.2280  0.3688
 1623W        W17697   1.723   4.042  16.158  0.0679 -0.2658 -0.0926
 1624W        W17698   1.147   5.257   4.548 -0.0491  0.1068 -0.1479
 1625W        W17699  11.666   8.662   1.044  0.1736 -0.0009  0.2013
 1626W        W17700  15.448   3.112  16.883  0.2529 -0.1416  0.1482
 1627W        W17701   6.978  16.448   5.998  0.0752 -0.2266  0.0936
 1628W        W17702  17.716   4.372   3.161  0.1237  0.0440 -0.2391
 1629W        W17703   5.197  10.904   5.572 -0.0749 -0.2563  0.2052
 1630W        W17704   0.755   7.828  12.780  0.1049 -0.1706 -0.0076
 1631W        W17705   9.616   4.000   0.872  0.0556 -0.0503 -0.1057
 1632W        W17706   5.214   2.873   5.133  0.3024 -0.1775  0.1525
 1633W        W17707  12.522   9.863  14.912  0.4435 -0.1965  0.1968
 1634W        W17708  16.116  16.148   1.928 -0.1040  0.3871  0.2884
 1635W        W17709   0.084   3.073  14.013 -0.0488  0.1048  0.1380
 1636W        W17710  15.537  13.169   3.840  0.2009 -0.0318  0.0387
 1637W        W17711  11.071  17.730  12.186  0.0150  0.0818  0.0130
 1638W        W17712   0.875   4.034  12.326  0.2236  0.2533  0.1718
 1639W        W17713   8.486   1.545   3.484 -0.0127 -0.0032 -0.1561
 1640W        W17714  11.973   0.420  15.707 -0.0471  0.1445 -0.0683
 1641W        W17715   2.642   2.497   5.268 -0.0295  0.1459 -0.0126
 1642W        W17716  13.694   9.737  12.939 -0.0981 -0.0112 -0.1167
 1643W        W17717   2.289   2.174   1.742 -0.2953 -0.1310 -0.2653
 1644W        W17718   2.664   5.383  13.144  0.0667 -0.0069  0.1364
 1645W        W17719   6.275   2.025   1.779  0.0221  0.0650 -0.1231
 1646W        W17720   7.127   2.221  11.518  0.4089 -0.2025  0.0574
 1647W        W17721   9.069   0.302  13.029  0.0771 -0.0240  0.2173
 1648W        W17722   4.856   3.908  14.164 -0.0601  0.2110  0.2250
 1649W        W17723  16.574  10.528   1.848  0.0135  0.0577  0.0128
 1650W        W17724   7.282  16.103  12.650 -0.0772  0.0758  0.0045
 1651W        W17725  15.199   7.966  12.881  0.0764 -0.1469  0.0384
 1652W        W17726  12.746  10.610  15.603 -0.1278 -0.0742 -0.3697
 1653W        W17727  10.784  14.598  14.476  0.0635  0.0735 -0.0624
 1654W        W17728  11.741   3.496   5.304  0.3671 -0.0461  0.0790
 1655W        W17729  11.070   5.695  12.191 -0.0761  0.0246 -0.4915
 1656W        W17730  16.100   1.888   3.212 -0.3293  0.0991 -0.2899
 1657W        W17731   1.945   6.160  15.843  0.1827  0.2040  0.2616
 1658W        W17732  17.057  11.568   3.403 -0.3234  0.1860  0.2589
 1659W        W17733   2.518  11.726  14.436  0.1393 -0.4584 -0.1164
 1660W        W17734   3.791  14.145   5.747 -0.1515 -0.0536  0.0233
 1661W        W17735   4.001  17.109  13.855 -0.0641 -0.1938  0.0477
 1662W        W17736  15.045   2.554   2.101 -0.2590 -0.0777 -0.0866
 1663W        W17737   6.905   4.434  15.835 -0.2685  0.0561  0.3186
 1664W        W17738  16.114  12.704  14.425  0.0744 -0.3179 -0.1483
 1665W        W17739  15.471  15.390  14.900 -0.4391 -0.0996 -0.4935
 1666W        W17740   8.767   4.419   5.334  0.1129 -0.2249  0.2694
 1667W        W17741  16.658  11.308   2.755  0.3338 -0.1395  0.3887
 1668W        W17742  16.532  10.062   3.678 -0.3269 -0.2819 -0.2405
 1669W        W17743   4.261  15.599  17.062 -0.0135 -0.2688  0.0515
 1670W        W17744   4.108  11.968   2.487  0.3548  0.1219  0.0941
 1671W        W17745   6.906  13.390   1.258 -0.0247  0.1610  0.0308
 1672W        W17746   0.462  13.071   2.138 -0.0322 -0.1578 -0.0891
 1673W        W17747  17.096   3.793   2.567 -0.3512 -0.1747 -0.3098
 1674W        W17748  16.492   7.286   5.516  0.1103  0.2978  0.0284
 1675W        W17749   7.617  10.564   4.529 -0.1382  0.2322 -0.0339
 1676W        W17750   8.742  15.435  16.989 -0.0645  0.0978  0.1421
 1677W        W17751  12.967   9.997  16.723 -0.1430  0.2383 -0.2832
 1678W        W17752  16.432   0.567  12.846  0.3167  0.2811 -0.2091
 1679W        W17753  12.971   6.197   3.535 -0.0726  0.0470 -0.2933
 1680W        W17754   3.632   9.191   2.599 -0.1287 -0.2529  0.0193
 1681W        W17755   5.696   9.147  16.684 -0.2109 -0.0887 -0.1249
 1682W        W17756  16.492   5.874  12.539  0.3029  0.0568 -0.1983
 1683W        W17757   3.677   8.058   1.594  0.0372 -0.2374  0.1855
 1684W        W17758   0.514   0.922  14.185 -0.3414 -0.3286 -0.2361
 1685W        W17759  14.470  12.480   5.953  0.1345 -0.3091  0.1224
 1686W        W17760  17.518   1.650   5.011  0.0179 -0.0505  0.0634
 1687W        W17761  10.617   5.427   3.894 -0.1056  0.0186 -0.1943
 1688W        W17762   2.626  13.358  14.367  0.0844 -0.1271  0.0474
 1689W        W17763   9.934  11.016   5.563  0.3539 -0.0731 -0.0118
 1690W        W17764   1.291   9.126  12.868  0.2183 -0.1601 -0.0587
 1691W        W17765   3.965  15.121  12.700  0.0339 -0.1092  0.0271
 1692W        W17766  14.515   6.447  13.625  0.0901 -0.0440  0.0296
 1693W        W17767   8.430  10.991  14.864 -0.1408 -0.0091 -0.0215
 1694W        W17768  16.160   3.764  15.059 -0.0688 -0.1557  0.0004
 1695W        W17769   3.627   7.247   1.171 -0.1703  0.0700 -0.1364
 1696W        W17770  10.534   4.038   6.166 -0.0440 -0.0298  0.1403
 1697W        W17771  16.927  17.227   4.279  0.3917 -0.0088  0.0067
 1698W        W17772  15.237   2.630   4.135  0.0746 -0.0503  0.1839
 1699W        W17773   8.218  16.907  11.293 -0.2758 -0.0373 -0.0660
 1700W        W17774   8.203   7.107   1.206  0.1343  0.1634 -0.0030
 1701W        W17775   9.697   4.409   4.229  0.0195 -0.1609  0.0290
 1702W        W17776  17.482  12.786  14.829 -0.0937  0.0563  0.0203
 1703W        W17777   6.439   7.396  11.827  0.0427 -0.1822 -0.1914
 1704W        W17778  11.340  14.005   4.322 -0.0399 -0.0649 -0.0743
 1705W        W17779   5.545  10.228   3.986 -0.0694  0.1064 -0.1248
 1706W        W17780   4.617   5.380  11.578 -0.0555  0.2377 -0.2916
 1707W        W17781   2.471  10.753   1.525 -0.1771  0.3322  0.3094
 1708W        W17782  13.639  17.175   4.849 -0.0386  0.3244  0.1758
 1709W        W17783  13.921  15.610  15.840 -0.0647 -0.4382  0.4455
 1710W        W17784   2.826   0.355   4.230 -0.3901 -0.0072 -0.0755
 1711W        W17785  17.512  10.084   4.027  0.1954 -0.1638  0.0508
 1712W        W17786  12.976   2.915  11.832 -0.0163 -0.0465  0.1213
 1713W        W17787   7.314  10.858   4.895 -0.0373 -0.1237 -0.1773
 1714W        W17788   8.725  16.261  13.288 -0.0117 -0.2421 -0.0578
 1715W        W17789   4.939  14.337  15.426 -0.2228 -0.0201  0.1645
 1716W        W17790   3.441   6.439   1.708  0.0080 -0.0163  0.0604
 1717W        W17791  10.122   0.589  14.866 -0.0025  0.2759 -0.0774
 1718W        W17792   9.472   5.755   4.359 -0.1142  0.0638  0.0046
 1719W        W17793  13.708   4.285   4.130  0.2276  0.2304 -0.0296
 1720W        W17794   1.646   2.161  15.125 -0.2298  0.0688 -0.0313
 1721W        W17795  15.760   1.099   3.048  0.2815  0.0237  0.1117
 1722W        W17796  13.325  10.214  16.400  0.3867 -0.0148 -0.0254
 1723W        W17797  16.748   4.365   1.755 -0.2277  0.0545 -0.1104
 1724W        W17798  13.948  11.392  12.335 -0.0163 -0.1566 -0.2363
 1725W        W17799  14.990  17.520  12.332  0.0166  0.1023  0.0471
 1726W        W17800   1.880   4.583  16.202 -0.0489  0.0383  0.3163
 1727W        W17801  14.504  13.913  12.150  0.0235 -0.0784  0.0893
 1728W        W17802  13.099   4.396  11.663  0.2562 -0.0441  0.1014
 1729W        W17803  14.953  12.941  11.780  0.1678 -0.2208  0.5175
 1730W        W17804  10.915  12.495  14.131  0.0165  0.3164  0.1912
 1731W        W17805  17.396   2.535   3.996 -0.0784  0.0568  0.0829
 1732W        W17806  16.549   5.051  14.667 -0.0521 -0.1531  0.2051
 1733W        W17807   0.969   5.742   3.196  0.0463  0.0284  0.0663
 1734W        W17808  15.563   1.611  11.609 -0.0607 -0.0109 -0.1187
 1735W        W17809   3.514   9.632   4.833  0.1326 -0.0307 -0.0966
 1736W        W17810  15.477  11.197  12.729 -0.0567 -0.2771  0.0912
 1737W        W17811  14.124  15.693   2.180  0.2281 -0.0112 -0.1082
 1738W        W17812   8.817  14.430   2.805  0.0509 -0.0511  0.1344
 1739W        W17813   8.837   7.596  12.487  0.1354  0.0610  0.0898
 1740W        W17814  10.604  16.760   0.956 -0.1539 -0.1540 -0.0227
 1741W        W17815   2.469   6.760  11.822 -0.2859 -0.4137 -0.0014
 1742W        W17816   0.936  15.472  12.389  0.1018 -0.2147 -0.2714
 1743W        W17817   7.312  14.766   0.352  0.0493 -0.0330  0.0921
 1744W        W17818  14.214   7.742  15.101  0.1961 -0.5290 -0.1953
 1745W        W17819   2.557   0.659   0.966 -0.1138  0.1197 -0.1563
 1746W        W17820  16.707   4.429  12.717 -0.2734 -0.2036 -0.2205
 1747W        W17821  10.753  15.321  12.012  0.0944 -0.1207 -0.0100
 1748W        W17822   6.203   6.127   2.623  0.0924 -0.0057  0.1103
 1749W        W17823  12.344  14.781  15.835  0.0715  0.0482  0.1554
 1750W        W17824   3.191   2.858   1.655  0.0292 -0.1020  0.2770
 1751W        W17825   8.763   3.265   1.571  0.0223  0.1657 -0.0825
 1752W        W17826  17.565  13.570   2.552 -0.2347 -0.0076  0.1129
 1753W        W17827   4.345   1.331   4.523  0.1953 -0.4410  0.1200
 1754W        W17828  15.187  16.778  12.182  0.1694 -0.2365  0.2250
 1755W        W17829   8.885   2.368   4.790  0.2090 -0.0048  0.1170
 1756W        W17830   9.776   2.272  15.370  0.0022 -0.0343 -0.0113
 1757W        W17831  15.081  13.347  16.458 -0.2489  0.3167  0.0980
 1758W        W17832  15.420   3.296  16.442  0.1977 -0.3816  0.0325
 1759W        W17833   9.183   2.228   2.680  0.0255  0.0944 -0.2713
 1760W        W17834   0.776  11.144   0.901  0.2105  0.2027 -0.3338
 1761W        W17835   0.598   8.490  16.721 -0.1059 -0.0285 -0.0556
 1762W        W17836   5.321  17.688   1.933 -0.0312  0.2774  0.1983
 1763W        W17837   7.719   4.753   6.166 -0.0247 -0.1220 -0.2131
 1764W        W17838  11.575   2.297  15.180 -0.1365  0.0451  0.0052
 1765W        W17839   3.680   6.810  16.309 -0.0513  0.3480  0.0206
 1766W        W17840   6.092   7.196  14.153  0.0168  0.2195  0.0201
 1767W        W17841   9.788   6.508   4.189  0.2732 -0.1315 -0.1059
 1768W        W17842   9.500  16.393  12.427 -0.4421  0.0924 -0.3024
 1769W        W17843   0.453   5.690   2.971  0.0191 -0.1997 -0.2407
 1770W        W17844  10.480   0.740  14.519 -0.0266 -0.1608  0.3089
 1771W        W17845  16.373   2.897   1.808 -0.2071  0.0751  0.0364
 1772W        W17846   7.794   2.276  11.845  0.0171 -0.1368 -0.0110
 1773W        W17847   1.892  16.060  13.539 -0.4328  0.2638  0.2575
 1774W        W17848   3.443  16.468   2.565 -0.0962 -0.3905  0.1878
 1775W        W17849  16.923  14.906   1.538 -0.1325  0.0050  0.0471
 1776W        W17850  11.787  15.727  16.558  0.1109  0.1485 -0.2326
 1777W        W17851   9.055  13.524  14.436  0.1425 -0.2611 -0.2312
 1778W        W17852   6.455   9.527   0.571  0.1112 -0.3503  0.1425
 1779W        W17853  10.047  13.993   2.393  0.1320 -0.2529  0.1131
 1780W        W17854  15.822  16.765   4.819 -0.1699 -0.0240 -0.0319
 1781W        W17855  15.154  17.136   6.197  0.1739 -0.0191 -0.2598
 1782W        W17856   3.157   2.596   5.052  0.3544 -0.1956 -0.0259
 1783W        W17857   0.066   3.840   3.287 -0.0264  0.1917  0.5068
 1784W        W17858   0.487   4.516  14.145 -0.1223  0.2354  0.1675
 1785W        W17859   9.519   6.795   4.844  0.0564  0.2421 -0.1291
 1786W        W17860   6.057  10.695   3.264 -0.1320 -0.0406 -0.2272
 1787W        W17861   8.576   0.592  12.808  0.1547  0.0557 -0.0582
 1788W        W17862   6.848   6.460   5.412 -0.3820 -0.0081  0.1636
 1789W        W17863   4.942   7.708   0.792 -0.3112 -0.0375 -0.0246
 1790W        W17864  16.975   1.483   3.466  0.3554  0.3165  0.4221
 1791W        W17865  13.292  12.129   1.743  0.2339 -0.3565 -0.4030
 1792W        W17866   4.005   4.276  15.356  0.1631  0.1477 -0.0790
 1793W        W17867  14.428   7.813  12.010 -0.0574  0.0676  0.0980
 1794W        W17868   3.075   0.768   0.614  0.0908 -0.2608  0.0929
 1795W        W17869  10.822  12.571   3.397 -0.0283 -0.1089  0.0944
 1796W        W17870  10.176  12.513   3.357 -0.0452  0.1274 -0.3444
 1797W        W17871   8.263   5.775  14.225 -0.2924 -0.1491 -0.3900
 1798W        W17872   5.759   2.857   4.300  0.2591  0.0996  0.1579
 1799W        W17873   7.712   8.653  16.137 -0.5227 -0.3873 -0.2218
 1800W        W17874   3.356   2.275   1.861  0.1021 -0.1838 -0.0579
 1801W        W17875   9.509   6.021  16.208  0.2058  0.3275  0.0781
 1802W        W17876   3.888   0.431  13.557 -0.1992  0.0922  0.1957
 1803W        W17877  11.106  16.821   0.710 -0.0340 -0.1495 -0.0680
 1804W        W17878   1.188   7.057   2.106 -0.0362 -0.0086  0.2743
 1805W        W17879  12.067  15.679   4.625  0.2288 -0.0502  0.0138
 1806W        W17880  13.462   7.860   4.639 -0.2294 -0.2360 -0.1539
 1807W        W17881  13.696   8.445   4.914  0.0752  0.0895 -0.2348
 1808W        W17882   3.646  13.120   3.215  0.0730  0.0626  0.3043
 1809W        W17883   1.783  15.487   4.773 -0.3373 -0.0766  0.0012
 1810W        W17884   3.462   9.174   3.284 -0.0420  0.2266 -0.1412
 1811W        W17885   0.025  16.939  11.135 -0.0348  0.0487 -0.2602
 1812W        W17886  16.274   9.370   5.584 -0.0489 -0.2277  0.0571
 1813W        W17887  15.281  14.860  14.622  0.0254  0.1144  0.1190
 1814W        W17888  11.605   1.451   1.207 -0.0473  0.2453 -0.0421
 1815W        W17889   7.450  13.194  16.836  0.0166 -0.1106  0.3550
 1816W        W17890  13.516   6.690  12.300 -0.1956  0.0400  0.2971
 1817W        W17891   5.319   1.164  14.336 -0.2562 -0.0197  0.0412
 1818W        W17892  12.793   9.929   5.541  0.0766  0.1212 -0.1438
 1819W        W17893   2.963   6.303   3.902  0.3355  0.1902 -0.0134
 1820W        W17894   4.146  15.649  14.112  0.1371 -0.1705  0.0302
 1821W        W17895   6.607   9.839   2.429 -0.0135  0.1082 -0.3230
 1822W        W17896  15.809   4.229  14.172  0.1710  0.2136  0.1354
 1823W        W17897  16.501   9.526  13.992  0.0727  0.0747 -0.2461
 1824W        W17898  14.814   3.254   3.721  0.1267 -0.1248  0.0561
 1825W        W17899  17.227   7.608  16.216 -0.0248  0.0983  0.2472
 1826W        W17900  17.721   5.374   5.138 -0.1004  0.1331 -0.0628
 1827W        W17901  10.008   4.693  15.623 -0.1264 -0.0204 -0.2535
 1828W        W17902   6.671   0.039   4.644  0.0929  0.0670 -0.0968
 1829W        W17903  17.679  12.228   4.365 -0.0227  0.0117  0.0193
 1830W        W17904   6.663  10.413  16.601 -0.0830 -0.0293  0.1759
 1831W        W17905  16.589  17.487  15.095 -0.3496 -0.1256  0.0094
 1832W        W17906   1.514   4.834   1.365 -0.1971  0.0083  0.2583
 1833W        W17907   6.493   2.379   4.809  0.1277 -0.0265  0.2034
 1834W        W17908   3.242  10.726   5.372 -0.2998 -0.2633  0.1013
 1835W        W17909  16.455  11.426  14.771  0.1409 -0.4446  0.0907
 1836W        W17910  14.223   0.228   0.965 -0.1430 -0.2766  0.2875
 1837W        W17911   4.244   9.677  13.464 -0.0810  0.1716 -0.0721
 1838W        W17912   0.010   7.951   1.762 -0.0820 -0.2094  0.0404
 1839W        W17913  14.809   2.792   4.878 -0.0363  0.0103  0.1155
 1840W        W17914  14.979   3.525   5.789 -0.0056 -0.0688  0.2451
 1841W        W17915  11.875   3.887   0.987  0.0303 -0.1510 -0.0052
 1842W        W17916   1.634   1.015  15.537 -0.3409 -0.0215 -0.2245
 1843W        W17917  17.355  16.148  14.638  0.2736 -0.2492  0.1797
 1844W        W17918  16.866  10.644   0.998  0.0486 -0.1227  0.1066
 1845W        W17919  15.487   4.064   4.392  0.0112 -0.0414 -0.3850
 1846W        W17920   6.407  15.769   4.331  0.0990 -0.0651 -0.0752
 1847W        W17921  17.703   6.685  13.885 -0.0404  0.1426 -0.0894
 1848W        W17922   8.857  15.816  13.486  0.2067 -0.0723 -0.1148
 1849W        W17923  14.118   9.202   5.897 -0.0270  0.2246  0.0222
 1850W        W17924   5.773   1.202  15.433 -0.1617  0.0034 -0.2326
 1851W        W17925  17.662  15.311  13.731 -0.3849  0.0167  0.0226
 1852W        W17926   8.793   2.632  11.738 -0.2676 -0.1295  0.2614
 1853W        W17927   8.179   2.973  17.154 -0.0231 -0.3867 -0.0850
 1854W        W17928   0.057   0.000   6.309  0.1613 -0.0412 -0.2296
 1855W        W17929   7.075   5.247   3.192  0.1715  0.3645 -0.1696
 1856W        W17930  13.154   1.872  14.928 -0.0448  0.1192  0.3619
 1857W        W17931   0.578  10.005  16.596 -0.1491  0.1589 -0.0405
 1858W        W17932  17.553  14.511   3.179 -0.2155 -0.0042  0.1146
 1859W        W17933   7.615  11.731  16.884  0.2460  0.0561  0.6248
 1860W        W17934   4.329  12.083  12.006  0.0176 -0.0544  0.2115
 1861W        W17935  13.901  17.471   1.026  0.4176 -0.0944  0.0216
 1862W        W17936   7.113   9.665  14.397 -0.0297 -0.2534  0.0923
 1863W        W17937   8.194   5.084  14.450 -0.1317 -0.3481  0.0657
 1864W        W17938   2.247   3.075  12.621  0.3275 -0.0509 -0.0397
 1865W        W17939   0.398   7.600  14.271 -0.0857 -0.1587 -0.3411
 1866W        W17940  13.348  10.845  14.334  0.1258 -0.0477 -0.1767
 1867W        W17941   4.455  10.845  16.837  0.0962 -0.1007 -0.1270
 1868W        W17942   4.512  14.370   5.183  0.1333  0.1455 -0.2632
 1869W        W17943   6.188  15.009  12.002 -0.1089  0.1148 -0.2071
 1870W        W17944   3.520   7.657   5.942 -0.1792  0.3052 -0.3723
 1871W        W17945   8.393   7.797   1.139  0.0045 -0.1080  0.2201
 1872W        W17946   9.708   2.558   1.384  0.2101  0.0454  0.0763
 1873W        W17947   0.913  14.541   0.763 -0.0330 -0.2455  0.1128
 1874W        W17948  17.153   4.547   4.999 -0.0512 -0.2335 -0.3201
 1875W        W17949   7.619  17.456  12.466  0.1178 -0.0222 -0.0816
 1876W        W17950  16.327   4.324   5.354  0.1843  0.1281 -0.0370
 1877W        W17951  14.171  14.684  14.876  0.0186 -0.0747 -0.0837
 1878W        W17952   7.699   0.810  16.436  0.3661 -0.1020  0.1789
 1879W        W17953  12.848  16.966   4.744  0.0683 -0.2014 -0.1139
 1880W        W17954  13.222  14.291  12.974  0.4421 -0.1471  0.1552
 1881W        W17955  17.465  15.986   2.331  0.1153  0.2948  0.1959
 1882W        W17956   7.058   9.700   5.546 -0.1127 -0.2910 -0.2159
 1883W        W17957   3.684   2.967   0.719  0.0527 -0.1418  0.0251
 1884W        W17958  10.694   6.040  12.155 -0.0126  0.0842 -0.2335
 1885W        W17959   1.348  12.853   1.204  0.0952 -0.2275  0.2120
 1886W        W17960  15.434   6.750  15.904  0.0257 -0.1122  0.2435
 1887W        W17961   4.638   0.765  14.625  0.0397 -0.0170 -0.0322
 1888W        W17962   7.374   4.823   3.078  0.0768  0.0551  0.0905
 1889W        W17963   0.802   5.724  15.623 -0.1761  0.1262 -0.1211
 1890W        W17964  16.611   5.649   2.984 -0.1004 -0.2866 -0.0219
 1891W        W17965  13.434  14.081   4.828  0.1176  0.1848 -0.1103
 1892W        W17966  12.676  15.922  16.628  0.0209 -0.2699 -0.1616
 1893W        W17967   0.814   4.823   2.889 -0.0343  0.2046 -0.2785
 1894W        W17968   5.187   6.404  16.468  0.0825 -0.1867 -0.0908
 1895W        W17969   9.950   0.246   0.429  0.1600  0.0732 -0.0168
 1896W        W17970  16.845   9.673   3.598 -0.0357 -0.1331 -0.3236
 1897W        W17971   1.988  16.969   0.481  0.1098 -0.1261 -0.1217
 1898W        W17972   0.756   1.968  12.833  0.0998 -0.2680  0.2687
 1899W        W17973   0.739   1.489   4.897 -0.1364 -0.0206  0.0470
 1900W        W17974  10.761  16.928   0.368  0.5383  0.0415 -0.0214
 1901W        W17975   0.835  12.860   3.982 -0.0825  0.0975 -0.2114
 1902W        W17976  15.662  11.599   6.343  0.0343 -0.2992  0.1823
 1903W        W17977   5.560  10.503   3.101 -0.0408  0.1551 -0.2038
 1904W        W17978  12.795   3.783  16.105 -0.0339 -0.1027 -0.1707
 1905W        W17979   3.420   3.314  13.337  0.3305 -0.1065 -0.0783
 1906W        W17980   0.765   7.991  13.976  0.3903 -0.2710  0.1009
 1907W        W17981  12.915   7.136   0.668  0.1754  0.1252 -0.0872
 1908W        W17982   0.483  12.098   0.566  0.0014 -0.3819 -0.0589
 1909W        W17983   8.609   3.875   5.458  0.1794  0.1746 -0.0845
 1910W        W17984   7.372  16.260   3.354  0.0704 -0.0521  0.0869
 1911W        W17985   4.720   6.670   3.102 -0.0354  0.1255 -0.1205
 1912W        W17986   3.077   1.815   3.985 -0.0996  0.1551 -0.0381
 1913W        W17987   8.294   3.761  16.361 -0.0933 -0.2232 -0.1717
 1914W        W17988  12.427  11.904  15.262  0.0173  0.0920 -0.0865
 1915W        W17989  15.055   3.661  14.285  0.1526  0.2849  0.2447
 1916W        W17990  14.810  16.577  11.878  0.1559 -0.0650  0.1725
 1917W        W17991   5.903   8.760   0.136  0.1930 -0.3642 -0.1274
 1918W        W17992   9.700  12.273   4.440  0.2166 -0.1715  0.0425
 1919W        W17993   0.407   5.139  16.448  0.2808  0.1812 -0.0706
 1920W        W17994   1.945   1.376  14.759 -0.4937 -0.0424 -0.2152
 1921W        W17995  13.489   7.473   5.161  0.2797 -0.5079  0.0627
 1922W        W17996   4.080  11.050   2.921 -0.0731  0.2015 -0.0076
 1923W        W17997   5.369   9.042   1.165 -0.0081 -0.2264 -0.0574
 1924W        W17998  12.169  10.815  11.959 -0.3350  0.0669 -0.1945
 1925W        W17999  16.104  15.864   4.315  0.1794 -0.0216 -0.2598
 1926W        W18000  16.765   6.579  16.519  0.1093  0.0128 -0.0289
 1927W        W18001  15.027   3.847   1.387 -0.1538  0.1549 -0.1087
 1928W        W18002   8.947   4.627   0.692  0.3752  0.1352  0.2212
 1929W        W18003   5.553   0.101  13.203  0.0338 -0.1800  0.0361
 1930W        W18004   3.855  11.980  12.372 -0.0878 -0.1580  0.4389
 1931W        W18005   3.971   4.260   2.109  0.1777  0.0077  0.0125
 1932W        W18006   8.813   7.924  12.079 -0.0064  0.1354 -0.0490
 1933W        W18007   8.240   2.978   5.560 -0.2502  0.3437 -0.1457
 1934W        W18008   0.540  12.124   5.690  0.1795  0.2784  0.0079
 1935W        W18009   6.735   9.399  16.676  0.1304 -0.1957  0.1251
 1936W        W18010   1.418   9.667   3.469  0.0231  0.0944  0.0685
 1937W        W18011  11.516   5.981   0.521  0.1641  0.0601  0.2175
 1938W        W18012  17.047   2.716  16.780 -0.0449 -0.2689 -0.0483
 1939W        W18013  12.291   3.803  16.283  0.1950 -0.0910  0.0193
 1940W        W18014   0.851  11.998   3.362 -0.0357  0.3135 -0.0483
 1941W        W18015   4.147  11.562  13.449  0.1128  0.2081 -0.1339
 1942W        W18016  11.436   2.084   3.996  0.0314 -0.4059 -0.0571
 1943W        W18017   6.787   4.990   1.018  0.0191 -0.2645 -0.0115
 1944W        W18018   9.859   3.555   3.514  0.0335  0.0469 -0.2067
 1945W        W18019   4.193   8.883  14.524  0.0727  0.2490 -0.0297
 1946W        W18020   0.255  11.625  12.826 -0.2703  0.3261 -0.1244
 1947W        W18021  10.688   1.311   4.216  0.3014  0.0731  0.1665
 1948W        W18022  15.274   2.558  14.065 -0.2490  0.1721 -0.3638
 1949W        W18023   9.792   1.455   4.791 -0.1073 -0.2995  0.2306
 1950W        W18024   3.875   1.715   0.799  0.0697  0.5620  0.1411
 1951W        W18025  15.130  14.100  14.067 -0.0606 -0.1761 -0.3696
 1952W        W18026  11.736  11.238  12.748 -0.2069 -0.1464 -0.0183
 1953W        W18027   2.966   8.327  15.838  0.0973 -0.1785  0.1712
 1954W        W18028  16.013  10.658  14.308 -0.0273 -0.1217  0.0403
 1955W        W18029   3.675  10.277   3.243  0.0256 -0.2108  0.0130
 1956W        W18030   3.563  13.375   5.714 -0.0804  0.3864  0.1661
 1957W        W18031   1.571   0.545   2.734  0.0800  0.1586 -0.1298
 1958W        W18032   0.646  12.028  14.195  0.0728  0.1630  0.1447
 1959W        W18033  13.311  10.631  13.333  0.0197  0.0583 -0.0813
 1960W        W18034  13.998   3.816   3.910  0.3610 -0.0077 -0.0360
 1961W        W18035   2.933   6.093  14.290 -0.1115  0.2054  0.1147
 1962W        W18036  10.765   1.652  11.943 -0.0819  0.0585  0.1304
 1963W        W18037  12.710  17.563  16.566  0.0983 -0.0999  0.5289
 1964W        W18038   1.292  13.217   1.582 -0.4617  0.0882  0.1142
 1965W        W18039  14.618   5.919   3.470  0.3660  0.2923 -0.0053
 1966W        W18040  10.953   4.253  14.918  0.0953  0.1890 -0.0020
 1967W        W18041  15.787  13.536   5.943  0.0339 -0.0454 -0.4499
 1968W        W18042  16.154   6.211  11.669 -0.0702 -0.4350 -0.4020
 1969W        W18043   7.458   7.922   6.105  0.1684 -0.0175  0.1855
 1970W        W18044   3.612   3.638   5.915  0.0956 -0.4949  0.1714
 1971W        W18045   5.319   1.924   1.832 -0.2177  0.0690 -0.2430
 1972W        W18046  13.196  10.059   0.528  0.2370  0.0562 -0.3821
 1973W        W18047  12.339   3.449   5.129  0.1166  0.1880 -0.1039
 1974W        W18048   2.439  13.866   1.474 -0.1894 -0.3613 -0.3391
 1975W        W18049  10.408   6.556   2.550 -0.0029 -0.1793  0.0755
 1976W        W18050   6.209  17.379   3.893  0.0796 -0.0194 -0.2971
 1977W        W18051  13.482   7.786  12.307  0.4440  0.0099 -0.3579
 1978W        W18052   3.092  17.335  13.835  0.3406  0.0530 -0.1229
 1979W        W18053   0.970  10.434  12.317 -0.1916 -0.2457 -0.0483
 1980W        W18054  15.656  10.957  13.462  0.0513 -0.0465 -0.0709
 1981W        W18055  14.529  11.208   4.762 -0.1580  0.1368 -0.0239
 1982W        W18056   2.862  13.265   4.451  0.1745  0.0175  0.3254
 1983W        W18057   3.440   1.201  11.889  0.3439  0.1249  0.2216
 1984W        W18058  11.322   0.769  10.997  0.2327 -0.2086 -0.4474
 1985W        W18059   7.721   6.402   3.073 -0.0042  0.1388  0.1733
 1986W        W18060  11.027   0.432   0.327 -0.1052  0.2452 -0.0284
 1987W        W18061   6.750   4.262  12.543  0.0272  0.3407 -0.1785
 1988W        W18062   1.679  14.632  14.127  0.1196  0.0044 -0.1985
 1989W        W18063   3.619   1.096   4.335  0.2539  0.0036  0.0181
 1990W        W18064   3.206   9.228  16.939 -0.1474  0.3617 -0.2736
 1991W        W18065  16.671  16.756   0.440  0.0264 -0.1326 -0.2706
 1992W        W18066  17.122   7.140  14.426 -0.1178 -0.3074 -0.0702
 1993W        W18067  16.849  15.077  13.134 -0.0667 -0.0928  0.0015
 1994W        W18068   4.496  14.698  14.060 -0.2138 -0.0738 -0.2430
 1995W        W18069  15.030  15.128  11.395  0.0945  0.0118  0.3069
 1996W        W18070  16.537   9.833  14.382  0.1774  0.1622 -0.1052
 1997W        W18071   3.863   9.868   2.271  0.0782 -0.2235 -0.0713
 1998W        W18072  14.748  14.900  15.634  0.3441  0.0015  0.1761
 1999W        W18073   4.980   9.701  12.404 -0.1451  0.0310  0.3415
 2000W        W18074  14.705  16.855   1.683  0.2138  0.1352 -0.0310
 2001W        W18075   3.918  11.954   1.747 -0.0679 -0.2806  0.0026
 2002W        W18076  13.707   8.530  16.300  0.0190 -0.2597 -0.0440
 2003W        W18077   5.315  17.272   6.096  0.0287  0.0327 -0.0544
 2004W        W18078   0.650  14.615  13.540  0.4271 -0.1125 -0.0079
 2005W        W18079   5.170   3.040   0.937  0.0886 -0.1816  0.0097
 2006W        W18080  13.594   0.446   3.581 -0.1394 -0.0216  0.1141
 2007W        W18081   1.068   0.832   5.923 -0.0142  0.0030  0.2422
 2008W        W18082   8.872  15.189   5.916 -0.1990 -0.1198 -0.0676
 2009W        W18083  15.429  16.666  16.222 -0.1749 -0.0610  0.1213
 2010W        W18084   1.040   3.081  16.694 -0.1492  0.0011  0.0829
 2011W        W18085   0.508  17.272  15.555 -0.0260  0.1487 -0.0567
 2012W        W18086  12.430   1.248  12.231  0.1012 -0.2345  0.1666
 2013W        W18087  13.215  16.072   2.648  0.2985  0.0496 -0.1939
 2014W        W18088   8.351   9.190   2.428  0.1321  0.1003 -0.0204
 2015W        W18089   9.615   6.807   0.156 -0.0157  0.1921 -0.1892
 2016W        W18090   3.982  17.554   0.424 -0.2036  0.2780 -0.0236
 2017W        W18091   9.603   1.447  16.342 -0.2394 -0.0308 -0.0569
 2018W        W18092  11.235  12.554   5.309 -0.0771  0.3570 -0.0047
 2019W        W18093   5.258  13.451   5.285 -0.0937 -0.1138 -0.1598
 2020W        W18094  10.419   5.872   4.049  0.4008 -0.2651 -0.2214
 2021W        W18095  12.965  16.267   5.967  0.1182  0.0786 -0.2282
 2022W        W18096   7.371  12.850   5.862 -0.2005 -0.2683 -0.2194
 2023W        W18097   7.750   6.567  15.636  0.0616 -0.1409  0.0205
 2024W        W18098   7.174   2.890   3.411 -0.0811 -0.0694  0.0051
 2025W        W18099   0.491   5.559   0.698 -0.2375  0.3446  0.2109
 2026W        W18100  12.934   7.827  15.752 -0.2997 -0.2152  0.0872
 2027W        W18101   5.710  13.564  13.729 -0.0154  0.0901 -0.4287
 2028W        W18102   0.669   0.935  11.683 -0.0093  0.0316 -0.0411
 2029W        W18103  17.275  12.917   0.019 -0.1380  0.0885 -0.1696
 2030W        W18104   2.993   9.460   3.397  0.0179  0.0538 -0.0309
 2031W        W18105   1.077   6.885  10.984 -0.1543  0.2736  0.2817
 2032W        W18106   2.234  17.382  16.444 -0.0992  0.1763 -0.1278
 2033W        W18107  15.588   6.280   5.557  0.0117  0.0540 -0.0359
 2034W        W18108  12.264  10.254  15.154 -0.2214  0.1287  0.3044
 2035W        W18109   5.858  17.214  17.009  0.0287 -0.0703  0.0584
 2036W        W18110   5.607  12.320   4.739  0.0148  0.2215 -0.1102
 2037W        W18111  11.047  12.745  13.160 -0.1341 -0.0383  0.0982
 2038W        W18112  14.106   8.409   3.015 -0.1235  0.1869  0.0422
 2039W        W18113   9.163  10.643   0.091 -0.0663  0.2197 -0.3261
 2040W        W18114   9.289  12.659   5.088  0.2260 -0.0087 -0.3237
 2041W        W18115  14.856   5.738  12.156 -0.0204 -0.0294 -0.1617
 2042W        W18116   3.902   1.742   0.293  0.0740 -0.1596  0.0760
 2043W        W18117   6.402   5.244   0.036 -0.0585  0.1643 -0.0450
 2044W        W18118   3.395  10.949  13.384 -0.1499 -0.2892  0.3067
 2045W        W18119   5.659   5.841   1.460 -0.0715  0.1270 -0.1844
 2046W        W18120   2.604   1.434   5.269 -0.1709  0.3459 -0.1185
 2047W        W18121  15.925  14.356  16.224  0.2155  0.3358 -0.1041
 2048W        W18122   3.128  10.015   3.255  0.1119  0.0322  0.0379
 2049W        W18123   5.431   5.721  11.434 -0.0013  0.2754  0.2412
 2050W        W18124  11.093  13.496   3.611  0.1859  0.3214  0.1802
 2051W        W18125   2.879  15.379   5.847 -0.0782  0.1407 -0.1939
 2052W        W18126   6.270   2.390  14.807 -0.0682  0.2042  0.0634
 2053W        W18127  14.033   6.617  12.101 -0.0496 -0.1379 -0.0545
 2054W        W18128  11.770   5.532  16.894  0.0734  0.1217 -0.0537
 2055W        W18129   6.242   5.548  13.839  0.2156 -0.0594 -0.2890
 2056W        W18130   7.689  14.498   0.104 -0.3128 -0.1549 -0.0223
 2057W        W18131   2.582   8.685   0.799 -0.0718  0.1739  0.2145
 2058W        W18132   6.619  11.238   0.309  0.0883 -0.0278  0.0012
 2059W        W18133  11.601   6.398  13.636  0.0201 -0.2070 -0.0623
 2060W        W18134  16.308   7.839  15.941  0.1110  0.1459 -0.1634
 2061W        W18135  14.810   7.815  14.431 -0.3437  0.3437  0.0031
 2062W        W18136  16.279  11.232   1.053  0.3336 -0.1312 -0.1078
 2063W        W18137   0.462  13.220  17.072  0.1802 -0.3427  0.3833
 2064W        W18138   3.782   4.898   3.939 -0.1979  0.2066 -0.2169
 2065W        W18139   8.573  16.792  16.055  0.0074 -0.1942 -0.0939
 2066W        W18140  10.356  17.196   0.978 -0.2106  0.2426  0.0475
 2067W        W18141  16.532   5.349  12.520  0.0217 -0.1419 -0.4256
 2068W        W18142   1.674  15.417   5.341  0.0556 -0.1431 -0.0973
 2069W        W18143   0.805   7.276   5.362  0.1615  0.2265  0.1975
 2070W        W18144   6.696   3.932   2.133  0.0194  0.0240  0.0978
 2071W        W18145  12.250  11.675  16.239  0.1110  0.0718  0.0497
 2072W        W18146   2.285   8.639   5.071  0.2067  0.0367 -0.1292
 2073W        W18147   7.026   2.785  14.665  0.0888 -0.1684 -0.0368
 2074W        W18148  14.029  12.357  15.114 -0.1015 -0.4034 -0.0460
 2075W        W18149  10.324   2.414   2.632 -0.1933  0.2235  0.0831
 2076W        W18150   1.131   1.170  15.198 -0.2742 -0.0427  0.3395
 2077W        W18151   2.788  12.562   4.316 -0.0448  0.0067  0.1772
 2078W        W18152  11.473   1.928   0.053  0.1975  0.0460 -0.1733
 2079W        W18153   3.773   3.728   6.870 -0.2556  0.2438 -0.0888
 2080W        W18154  15.263  17.079   2.294  0.3341 -0.0478  0.2864
 2081W        W18155  13.081   7.662   5.540  0.1641  0.0526  0.2429
 2082W        W18156   5.152  10.121   5.098  0.1228  0.0740 -0.0181
 2083W        W18157   7.563   1.954   5.862  0.1751  0.2561  0.0840
 2084W        W18158  12.746  10.761   0.173  0.1443  0.2715 -0.2836
 2085W        W18159  15.318  10.520   1.877  0.3857 -0.0146 -0.0906
 2086W        W18160   6.035   6.525   2.387 -0.2446  0.0027 -0.0884
 2087W        W18161   8.298   0.317   2.955  0.2709 -0.3797 -0.1804
 2088W        W18162   9.472  17.365   5.254 -0.0662 -0.1848 -0.0186
 2089W        W18163   6.993  13.712  13.124 -0.3407  0.0079  0.2528
 2090W        W18164   6.351  14.855   4.160 -0.0625 -0.1189  0.1328
 2091W        W18165   6.070   4.237   1.218 -0.2315  0.0361 -0.1340
 2092W        W18166   0.620  13.164  16.023  0.0540  0.0438  0.0929
 2093W        W18167   1.258  10.851   2.386 -0.1772 -0.1213 -0.0677
 2094W        W18168  12.555   5.469  16.553  0.1311 -0.0526  0.3297
 2095W        W18169   2.392  10.960  12.293  0.3681  0.2348  0.2082
 2096W        W18170  14.842  13.910   0.530  0.1211  0.2587  0.0493
 2097W        W18171   5.979   6.668   0.940  0.1120  0.0613  0.1428
 2098W        W18172   3.151  15.867  13.013  0.0478  0.0582  0.1609
 2099W        W18173  14.983   4.027  16.621  0.1271 -0.3440  0.2546
 2100W        W18174  12.858   5.505  15.190 -0.0889 -0.0203  0.0801
 2101W        W18175   6.884  10.880   1.477 -0.0010 -0.0766  0.1016
 2102W        W18176   8.472  13.520  12.064 -0.2471  0.3092 -0.0649
 2103W        W18177   4.023  14.224   0.408  0.1184  0.1635 -0.2822
 2104W        W18178  16.607  13.678  16.396 -0.1227  0.0080 -0.1047
 2105W        W18179   9.409  12.170   4.825  0.0987  0.1760 -0.1691
 2106W        W18180  17.647  11.624   0.494 -0.5715 -0.1064  0.2365
 2107W        W18181   4.939  16.004   2.567 -0.3976 -0.0050 -0.2487
 2108W        W18182   6.881   4.375  13.969 -0.0915  0.0250 -0.0960
 2109W        W18183  17.451   0.248   1.737  0.2305 -0.2285  0.4297
 2110W        W18184  13.542   0.887  13.361  0.1475  0.0385  0.1025
 2111W        W18185   5.012  13.679  15.297 -0.1678  0.1555  0.2268
 2112W        W18186   7.649  11.436  11.976 -0.0245  0.0802 -0.2141
 2113W        W18187   6.522  17.621   0.492  0.0481  0.0795 -0.1254
 2114W        W18188   8.392  16.775  16.490  0.3835 -0.3367 -0.2556
 2115W        W18189   1.842  16.052   3.173 -0.1544 -0.1303  0.1803
 2116W        W18190   2.611  16.813   3.882 -0.3309 -0.0784 -0.0176
 2117W        W18191  13.296   1.024   1.029 -0.1127  0.1447 -0.1393
 2118W        W18192   8.746  11.317   1.390 -0.1186  0.0127  0.2697
 2119W        W18193  15.998  16.803   3.309  0.1903 -0.2256  0.1648
 2120W        W18194  15.355   6.657  14.986  0.0851 -0.0282 -0.0616
 2121W        W18195   5.081  17.714   2.450 -0.0592  0.0884 -0.0329
 2122W        W18196  16.968   8.287   1.155 -0.0085  0.1004 -0.3170
 2123W        W18197  12.417  14.110  14.252  0.2535  0.0308 -0.1083
 2124W        W18198   8.191  13.004   1.653 -0.2402  0.3542  0.4405
 2125W        W18199   4.362  15.579  16.233 -0.0803 -0.0241  0.2328
 2126W        W18200  16.429  16.316   1.169  0.0831 -0.2652  0.0630
 2127W        W18201   5.903   1.155   4.444 -0.0062 -0.0976  0.1955
 2128W        W18202  12.082  17.489   0.009  0.2363 -0.1314 -0.0710
 2129W        W18203  16.205   1.795   0.349  0.4793  0.1442 -0.2855
 2130W        W18204   5.534  12.692  11.881 -0.1523  0.0702  0.3861
 2131W        W18205   8.007  13.033  13.816 -0.0544  0.0973 -0.1319
 2132W        W18206  16.433  11.882  15.456  0.0366 -0.2910  0.0771
 2133W        W18207  14.955   7.113  16.751 -0.0318  0.2930  0.1231
 2134W        W18208   2.564  12.222  14.625 -0.1365 -0.2294 -0.1199
 2135W        W18209   1.211  15.164  11.996 -0.0887 -0.3347 -0.0159
 2136W        W18210   2.196   0.459   1.436 -0.2216  0.2027 -0.3369
 2137W        W18211   4.722  16.893   0.020  0.3130 -0.0780  0.0221
 2138W        W18212  10.288   2.505   0.631 -0.1224  0.2050 -0.0153
 2139W        W18213   1.559  10.091  14.550  0.0804  0.1729 -0.1543
 2140W        W18214  14.664   5.470   4.903 -0.0187  0.3209  0.1940
 2141W        W18215  14.625  15.310  11.209  0.0997  0.0623 -0.0411
 2142W        W18216   8.744   8.958   5.870 -0.2662  0.2011  0.0837
 2143W        W18217   1.020  14.742   3.009  0.1932 -0.1597  0.0074
 2144W        W18218   8.369  15.306   1.587  0.3081 -0.0202  0.1044
 2145W        W18219   8.715   9.167   1.028 -0.2334 -0.3508  0.0008
 2146W        W18220  16.219  16.072  12.576 -0.1721  0.2726 -0.0542
 2147W        W18221   5.299   9.576   1.261  0.2347 -0.2448  0.0454
 2148W        W18222   1.020  14.415   5.928 -0.0828 -0.0655 -0.3054
 2149W        W18223  12.354   6.889  14.207 -0.2917 -0.1260 -0.0133
 2150W        W18224   7.639   1.189   0.751  0.1914 -0.2506 -0.2960
 2151W        W18225  12.027  15.790  15.237 -0.1420  0.2144  0.3548
 2152W        W18226   0.579   3.691   5.572  0.0757  0.0648 -0.0311
 2153W        W18227   7.191  14.504  17.049  0.1665  0.1566  0.3040
 2154W        W18228   6.024   9.245  15.950 -0.2964  0.1200 -0.2375
 2155W        W18229  10.245  12.396   1.253  0.3933  0.0919 -0.1266
 2156W        W18230  10.706   7.668   1.566  0.1273 -0.0359  0.1816
 2157W        W18231   3.634  11.301  14.160  0.1202  0.0211 -0.0413
 2158W        W18232   2.860   2.181   3.678  0.2501  0.2380 -0.3221
 2159W        W18233  14.556   6.780   3.356  0.0468  0.1299 -0.2070
 2160W        W18234  16.063   7.731  12.854 -0.0727 -0.3309 -0.3359
 2161W        W18235   3.226  10.491  13.064  0.0110  0.0288 -0.1003
 2162W        W18236  11.312  17.399   5.799  0.4468 -0.1433 -0.0724
 2163W        W18237   2.261   7.813  16.842  0.0524 -0.0253 -0.1089
 2164W        W18238   7.339   8.845   0.129 -0.0313 -0.0623 -0.1353
 2165W        W18239   8.361   2.442   4.770  0.0943  0.3276  0.0803
 2166W        W18240   2.971   4.667   0.756 -0.1149  0.0903 -0.0181
 2167W        W18241  13.148   3.121   3.203  0.0426  0.0948  0.1278
 2168W        W18242  15.144   5.663   1.941 -0.2432 -0.2320 -0.2118
 2169W        W18243   0.763   1.583  14.879 -0.4501  0.2952  0.2229
 2170W        W18244  11.657  14.031   4.734 -0.0421  0.0205  0.0879
 2171W        W18245  16.137  15.928  12.050 -0.2855 -0.1517 -0.0202
 2172W        W18246   3.693  11.211   2.189  0.0744  0.0818 -0.0536
 2173W        W18247  13.691  15.195  14.098 -0.1792 -0.0848  0.1836
 2174W        W18248   8.124   6.404   5.827 -0.3640  0.2365  0.0552
 2175W        W18249   2.665   7.145  13.631  0.0295  0.3605 -0.1579
 2176W        W18250  12.911   4.059  12.937  0.1501 -0.1993  0.1304
 2177W        W18251   0.216   9.097   0.656  0.0873 -0.2902  0.2005
 2178W        W18252  11.812  14.305  12.961  0.4459 -0.2684 -0.1365
 2179W        W18253  12.379   3.090   1.128  0.1887 -0.1329  0.1960
 2180W        W18254   2.600  17.466   3.070 -0.1653  0.1920  0.1412
 2181W        W18255   9.497   1.129  14.615 -0.0148  0.0800  0.1867
 2182W        W18256   4.661   9.635  16.721  0.1503 -0.3582 -0.2694
 2183W        W18257   0.854   1.784   1.548 -0.2445 -0.2763  0.2172
 2184W        W18258   1.227   4.563   3.218 -0.1229  0.3042  0.1181
 2185W        W18259   5.595  16.553   0.852 -0.2735  0.2343  0.3900
 2186W        W18260   7.301  11.472  12.837  0.1375 -0.1366 -0.1223
 2187W        W18261   8.426   9.042  12.388  0.3046  0.3414  0.0195
 2188W        W18262   9.594  14.789  12.289 -0.2106  0.1270 -0.0163
 2189W        W18263  16.404   9.550   2.392 -0.2487  0.2017 -0.0316
 2190W        W18264  16.505   8.755   4.070  0.0028  0.1063 -0.5400
 2191W        W18265  10.441   8.942  15.801 -0.0072 -0.2636 -0.0059
 2192W        W18266   4.468   8.491  11.828  0.0401 -0.1160 -0.1175
 2193W        W18267   2.401  13.815   3.943  0.2528  0.0710 -0.0492
 2194W        W18268   0.910   2.531   3.885 -0.2807  0.2097 -0.3194
 2195W        W18269  11.730  10.074   4.911 -0.3707  0.0207  0.0590
 2196W        W18270  17.270  15.330   2.265  0.0384  0.2963 -0.2671
 2197W        W18271   7.092  14.866  15.463  0.1236  0.0545 -0.0547
 2198W        W18272   9.034   0.383   0.193  0.1487 -0.2334  0.3549
 2199W        W18273   0.131   0.666   0.637 -0.1247  0.0971  0.1009
 2200W        W18274   4.076   7.232  11.482 -0.1723  0.2537  0.2804
 2201W        W18275  10.591   4.806  16.781  0.2792 -0.0894 -0.3549
 2202W        W18276   1.555   3.006   4.036 -0.3612  0.1644  0.3586
 2203W        W18277   6.493   8.672   2.033 -0.0079  0.1157  0.0104
 2204W        W18278  14.926  11.308  13.384 -0.1046  0.0011 -0.0865
 2205W        W18279   2.897   7.681   5.048 -0.1544  0.0322 -0.1242
 2206W        W18280   7.718  12.074   2.124 -0.0309 -0.3553 -0.2309
 2207W        W18281   8.076   9.006   3.774  0.0331  0.1241  0.0648
 2208W        W18282  16.294   4.357   0.567  0.0421  0.0832 -0.0621
 2209W        W18283   1.327  15.610   4.061 -0.1061  0.0635 -0.4161
 2210W        W18284   2.087  17.475  15.561 -0.1209  0.0262  0.0831
 2211W        W18285   2.959  15.303   0.609 -0.1388 -0.2559 -0.0611
 2212W        W18286   5.295  16.045  12.370 -0.0073 -0.3279  0.1323
 2213W        W18287   3.559  17.207  12.005 -0.4914  0.2205  0.1904
 2214W        W18288   2.352   9.415   2.561  0.2030  0.0125  0.1108
 2215W        W18289   2.491  17.703   3.519 -0.0880  0.0881 -0.0639
 2216W        W18290  14.481  15.067  14.732 -0.2486 -0.1570  0.1537
 2217W        W18291   8.780   0.529   2.660 -0.1986  0.3817  0.3482
 2218W        W18292  14.227   9.477  13.461 -0.0368 -0.0476  0.0778
 2219W        W18293  14.425  16.094  12.302  0.1515 -0.0793  0.1278
 2220W        W18294   5.103   1.881   2.306 -0.0231 -0.1075  0.1612
 2221W        W18295   1.336   6.584  13.862 -0.4201 -0.0747 -0.1834
 2222W        W18296   4.790   5.228  16.162 -0.0887  0.0924 -0.1700
 2223W        W18297  12.604   0.547  14.719  0.1371 -0.2160  0.0634
 2224W        W18298   9.214   2.329   0.437  0.0603 -0.0399 -0.6258
 2225W        W18299  10.638  11.585   4.637  0.1619 -0.0863 -0.1400
 2226W        W18300   0.161  16.381  12.524  0.0557 -0.1263 -0.0356
 2227W        W18301  12.681   7.833  13.352  0.2073  0.0757  0.0548
 2228W        W18302   5.532  16.975   4.436 -0.1575 -0.3706 -0.1022
 2229W        W18303   4.021   7.989   2.120  0.2844 -0.0478  0.1431
 2230W        W18304  13.504  10.188   3.625  0.0538 -0.4786  0.0964
 2231W        W18305   2.473  15.352  17.157  0.2060 -0.2579 -0.1127
 2232W        W18306   5.798   0.650   2.888 -0.1135 -0.3212 -0.3015
 2233W        W18307   6.462  10.605  16.078 -0.0320  0.3957 -0.0583
 2234W        W18308   7.252   2.692   1.909 -0.2747 -0.0701 -0.2342
 2235W        W18309   9.044   4.047   5.487  0.2062  0.0465 -0.0413
 2236W        W18310  15.354  10.397  14.253  0.0632  0.3140  0.0770
 2237W        W18311  12.629   6.584  13.260  0.1906 -0.5896 -0.1445
 2238W        W18312  12.606  15.927   5.939  0.1171  0.1727  0.2725
 2239W        W18313   3.694   5.789  14.685 -0.2602  0.0369 -0.1281
 2240W        W18314  12.569   4.440  15.145 -0.0836 -0.0051 -0.0747
 2241W        W18315   2.031   8.178  17.071 -0.2137 -0.0772  0.5393
 2242W        W18316   9.865   9.923  14.401  0.0355 -0.3995  0.1258
 2243W        W18317  14.134   2.819   5.086 -0.1523 -0.0658  0.7315
 2244W        W18318  12.760   2.567  12.987  0.2513  0.1247 -0.1159
 2245W        W18319  13.119  15.733   1.666 -0.0976  0.0941  0.0155
 2246W        W18320  10.542  14.620   2.934 -0.1589 -0.4527 -0.3152
 2247W        W18321   4.248   6.893  16.294 -0.0248  0.0737 -0.3396
 2248W        W18322   1.176   8.011   2.946 -0.1166 -0.0074  0.1478
 2249W        W18323   4.555  15.646   0.415 -0.0269  0.1268 -0.0601
 2250W        W18324   4.965   8.076  16.601 -0.0850 -0.0648  0.0205
 2251W        W18325   7.637  13.359  12.655  0.1754 -0.0196 -0.1541
 2252W        W18326   2.952   9.624  12.893 -0.0054 -0.2608 -0.1053
 2253W        W18327  10.627   4.358   1.160  0.0895  0.0447 -0.1408
 2254W        W18328   8.101   9.609   2.038 -0.4064 -0.0625 -0.2693
 2255W        W18329   8.305  13.036  14.924  0.0100  0.1957  0.4106
 2256W        W18330   3.782  11.407   1.703  0.3042  0.2838 -0.1197
 2257W        W18331  11.684   2.515   1.350  0.4562 -0.3934 -0.0083
 2258W        W18332  16.087   6.226   4.583 -0.3166  0.2495 -0.2018
 2259W        W18333  14.397   3.651   5.067 -0.1534 -0.0466 -0.0386
 2260W        W18334  13.528   7.752   1.307 -0.0489  0.4755 -0.0071
 2261W        W18335   7.223   2.610  16.339  0.2772  0.0401  0.3036
 2262W        W18336  11.053  14.599   3.010 -0.2406  0.1556  0.2609
 2263W        W18337   5.763   2.005   5.355  0.2539  0.0113  0.0786
 2264W        W18338   7.231   3.934   0.316  0.0375 -0.0620 -0.0014
 2265W        W18339   9.813   3.530  13.655  0.0130 -0.0902 -0.0452
 2266W        W18340   0.740   8.687   4.706 -0.1198 -0.1189 -0.1089
 2267W        W18341  15.379  11.717   4.778 -0.0032 -0.1459 -0.2499
 2268W        W18342   6.121   7.731  14.192 -0.1248  0.2994 -0.2717
 2269W        W18343   5.435   3.167  16.528 -0.3126  0.0973 -0.0379
 2270W        W18344   9.443   0.867   2.109  0.1301 -0.2155  0.1040
 2271W        W18345  12.709   9.233  15.665  0.0962  0.1594 -0.2052
 2272W        W18346  14.035   7.626   0.999 -0.1491 -0.1299 -0.2098
 2273W        W18347   6.263   0.766  14.275  0.2021 -0.3073 -0.1005
 2274W        W18348  10.472   3.977  17.110  0.2590  0.3415  0.0958
 2275W        W18349  14.889  14.662   5.659  0.0977 -0.1690 -0.1209
 2276W        W18350  16.223   6.424  17.148 -0.1686 -0.2569 -0.3421
 2277W        W18351   1.970   8.942  14.836  0.0613 -0.0307  0.0732
 2278W        W18352  11.906   4.262   4.687  0.2727 -0.1128  0.0976
 2279W        W18353   9.762   6.883  11.921 -0.0084 -0.0657  0.1219
 2280W        W18354   4.360   6.687  12.300  0.1184 -0.1551 -0.1481
 2281W        W18355   0.588  12.915  15.599  0.0311 -0.2570  0.0764
 2282W        W18356   1.804   9.042  12.019  0.2039 -0.0145 -0.0624
 2283W        W18357   3.044   1.974  14.740  0.1028  0.0839 -0.1879
 2284W        W18358  15.267   8.271   4.134  0.0598  0.4539 -0.3856
 2285W        W18359   7.922   6.520   6.272 -0.1169  0.0293 -0.0678
 2286W        W18360  12.019  13.083  13.575  0.0459  0.0169 -0.0698
 2287W        W18361  17.541   2.675  14.509 -0.1904 -0.0575 -0.0146
 2288W        W18362  15.917  11.291  15.567 -0.1283 -0.0981  0.0910
 2289W        W18363   7.351   7.281  13.584  0.0273  0.0150 -0.3044
 2290W        W18364  13.759   2.075  15.408  0.1817 -0.0248  0.0354
 2291W        W18365  11.339  14.413   4.073  0.1948 -0.0259  0.2949
 2292W        W18366  17.109   8.785   1.155  0.0549  0.0729  0.1826
 2293W        W18367   9.794  12.107   2.076 -0.4479 -0.0565  0.2039
 2294W        W18368   2.551   1.660   0.931 -0.0761  0.2834 -0.0407
 2295W        W18369   3.205   8.818  11.860 -0.2763 -0.2274  0.1312
 2296W        W18370  16.271  17.602  13.644  0.0749  0.1807 -0.1121
 2297W        W18371  13.007  16.943  12.157  0.0730  0.2597 -0.0422
 2298W        W18372  15.237  12.396  12.404  0.3337  0.4419 -0.0095
 2299W        W18373   6.358   6.352   3.533  0.1359 -0.0586 -0.0694
 2300W        W18374  12.391   0.362  14.283 -0.1074 -0.1562 -0.1560
 2301W        W18375   7.446   3.565   3.524  0.0047  0.0438  0.0888
 2302W        W18376   7.105   6.013   0.378 -0.0267  0.2076 -0.3450
 2303W        W18377  15.057   3.424  13.828 -0.3051 -0.1058  0.5584
 2304W        W18378   3.522   7.667  13.996  0.0869  0.0850  0.0353
 2305W        W18379   5.010  10.757  12.600 -0.2160  0.0154 -0.0516
 2306W        W18380  12.738   6.561   3.787 -0.1100  0.1428  0.0113
 2307W        W18381  14.809  13.629  16.810 -0.2872 -0.2209 -0.2032
 2308W        W18382  17.711   7.319   5.275 -0.0581  0.0386 -0.0619
 2309W        W18383   5.453   6.957  12.910  0.0668 -0.1325 -0.2831
 2310W        W18384  12.140   8.755   1.165 -0.2298 -0.2320 -0.3538
 2311W        W18385  17.368  11.350   2.983  0.0390  0.3242 -0.1870
 2312W        W18386   4.077  11.494  12.462  0.0558 -0.2254 -0.0235
 2313W        W18387  11.362   7.234   1.131 -0.2855  0.2602 -0.1062
 2314W        W18388  15.440   6.705   6.271  0.3083 -0.2687 -0.1237
 2315W        W18389   7.584   9.247  17.053 -0.1727  0.0756  0.0975
 2316W        W18390  14.710   0.896   4.482 -0.1816  0.3012 -0.0608
 2317W        W18391  12.304   3.162   2.633 -0.0483  0.0914  0.1939
 2318W        W18392  11.212   6.032  13.709 -0.0012  0.4827 -0.0191
 2319W        W18393  13.451   3.239  12.933  0.2010 -0.1548  0.4574
 2320W        W18394  10.306   4.165  12.831 -0.2628  0.1366  0.1090
 2321W        W18395  16.720  11.805  14.587 -0.0798 -0.0193  0.0770
 2322W        W18396   7.860   5.054   0.020 -0.0502 -0.1370 -0.0544
 2323W        W18397   8.571   4.016  14.005  0.1944 -0.1053  0.1833
 2324W        W18398   5.500  14.243   3.982 -0.2378 -0.0298 -0.4065
 2325W        W18399  17.533  17.249  17.136 -0.0154  0.0632 -0.0401
 2326W        W18400   9.806   0.198  16.151  0.3670  0.0976 -0.1803
 2327W        W18401   1.564  16.460   4.188  0.0202  0.0877 -0.0867
 2328W        W18402   1.044  17.592   3.456  0.3049 -0.1830  0.0389
 2329W        W18403   5.292   5.797   3.235  0.1611  0.2760  0.1848
 2330W        W18404   0.770   0.265  16.526  0.0220 -0.1335 -0.3234
 2331W        W18405   7.567   4.816  13.676  0.0322 -0.2567  0.1036
 2332W        W18406   3.280   7.406  15.329  0.0460  0.1983 -0.1562
 2333W        W18407   3.641  15.378   1.062  0.2304 -0.0154  0.0198
 2334W        W18408   9.834   6.494  13.948 -0.0345  0.0482 -0.1312
 2335W        W18409  13.657  10.604  16.486  0.0240  0.0368 -0.1748
 2336W        W18410   1.279   6.597  12.880 -0.0737 -0.2049 -0.2840
 2337W        W18411   7.414   1.616   4.832 -0.0643 -0.1296 -0.2878
 2338W        W18412   6.318   5.875   4.287 -0.2922  0.1889 -0.1104
 2339W        W18413   6.138  10.770  11.670 -0.0381 -0.2594  0.1901
 2340W        W18414  12.199  14.012  13.345 -0.0072 -0.1476 -0.1407
 2341W        W18415   3.943   4.290   4.542 -0.1900 -0.0194 -0.2129
 2342W        W18416   4.950   3.810  16.979  0.0248 -0.3199 -0.2015
 2343W        W18417   7.007   5.693  12.664 -0.4253 -0.1267  0.0998
 2344W        W18418  17.617   7.413   1.694  0.0962  0.1250  0.4402
 2345W        W18419   0.758  14.037  16.078  0.1006  0.0009  0.0667
 2346W        W18420  16.482   7.100  15.332 -0.2332  0.2143  0.0091
 2347W        W18421  16.228  11.616  12.770 -0.0584 -0.0774  0.2396
 2348W        W18422   6.336  11.743  14.490 -0.5230 -0.2031  0.0801
 2349W        W18423   9.049   0.404  14.376 -0.0253  0.1812  0.1173
 2350W        W18424   7.808   0.452  14.435  0.3464 -0.0165 -0.2277
 2351W        W18425   6.125   3.011  13.853 -0.0752 -0.1277  0.4785
 2352W        W18426   3.867   6.898   0.399 -0.0869  0.1529  0.1921
 2353W        W18427  11.894  16.865  13.938  0.2129  0.0176  0.0947
 2354W        W18428   9.379   3.064   2.189 -0.0800  0.0759  0.3147
 2355W        W18429  15.505  13.953  15.051  0.3147 -0.0389 -0.2016
 2356W        W18430  10.754   4.951   0.098 -0.2260  0.0248  0.1771
 2357W        W18431  10.761   8.236  14.899 -0.0054 -0.1173  0.0711
 2358W        W18432   3.696   8.897  15.379 -0.0616  0.1314 -0.2645
 2359W        W18433   8.421  13.273   0.417 -0.1933 -0.0258 -0.1289
 2360W        W18434   0.333   3.575   0.052 -0.0693  0.1112 -0.0296
 2361W        W18435   0.215   8.462   4.670 -0.0960 -0.0181 -0.2103
 2362W        W18436  10.740  16.422   0.552  0.0481  0.1989 -0.3540
 2363W        W18437  12.536  11.785   3.625  0.3778 -0.0411 -0.1344
 2364W        W18438  16.630  17.721  13.312  0.0218  0.0229 -0.0694
 2365W        W18439   5.521   1.468   4.423  0.0140  0.4058  0.3118
 2366W        W18440   0.203   5.124   4.528 -0.0362 -0.1148 -0.1059
 2367W        W18441   7.019  15.653   5.505 -0.0380  0.0598  0.0517
 2368W        W18442  12.031   2.420   4.588  0.0338 -0.1568 -0.2629
 2369W        W18443   9.978   7.428   4.411  0.2778 -0.1028  0.3960
 2370W        W18444   3.269   3.244   5.001  0.0661 -0.2199  0.0366
 2371W        W18445   0.547  15.549   2.185 -0.1695  0.1408 -0.2672
 2372W        W18446   2.236  16.817   0.069 -0.0288  0.0623 -0.1294
 2373W        W18447  15.713   1.813  16.587  0.0874  0.2066 -0.1141
 2374W        W18448   5.827  11.557  13.673 -0.2327  0.0537  0.1124
 2375W        W18449   1.894   7.092  15.277  0.0485 -0.2565 -0.2360
 2376W        W18450  16.606  17.180   2.696 -0.0705  0.0473 -0.0918
 2377W        W18451   7.302  10.059   1.550 -0.1301  0.1988  0.1778
 2378W        W18452   1.369  15.748  16.489 -0.1533 -0.1422 -0.0179
 2379W        W18453  11.951   4.088  12.729  0.3136 -0.1904  0.0704
 2380W        W18454   2.713   8.977  15.099 -0.2417 -0.2266 -0.0580
 2381W        W18455  11.556   7.925  13.873  0.3234 -0.2490  0.1421
 2382W        W18456  16.560  14.810  12.844  0.0438  0.1272  0.0025
 2383W        W18457  16.072  13.975   0.762 -0.0595  0.1097 -0.3421
 2384W        W18458   1.158  17.577   5.715  0.2176 -0.0427  0.2884
 2385W        W18459   2.033   5.143   3.135 -0.3417 -0.2190  0.0401
 2386W        W18460   8.336   3.872  13.566  0.1687 -0.1271  0.1010
 2387W        W18461  15.101  12.167  12.829 -0.1373  0.1042 -0.0158
 2388W        W18462   1.246   3.638  14.975 -0.0041 -0.0381  0.0600
 2389W        W18463   6.892  12.045   4.570  0.0516 -0.1403 -0.0334
 2390W        W18464   9.383  10.223   4.823 -0.2025 -0.1063  0.1381
 2391W        W18465   2.937   9.136   4.757  0.0177  0.0995  0.3414
 2392W        W18466  10.546   2.139  15.628  0.0816 -0.3988  0.0476
 2393W        W18467   8.310   1.357  11.791  0.1376 -0.3383 -0.0282
 2394W        W18468  13.592   3.692   5.176  0.1066 -0.1135 -0.1882
 2395W        W18469  10.062   2.597  15.107  0.2017  0.1314 -0.0832
 2396W        W18470   1.909   4.002   1.398 -0.0744  0.0624  0.0791
 2397W        W18471   5.989  16.713   5.019  0.2302 -0.2192  0.1258
 2398W        W18472   7.332   0.254   0.312  0.0168 -0.2243 -0.0633
 2399W        W18473  10.465  10.505  13.398 -0.3063  0.2397  0.0538
 2400W        W18474   6.716  10.061  13.789 -0.1673  0.2085 -0.5268
 2401W        W18475   2.869   7.439   4.018  0.3665 -0.2432 -0.0204
 2402W        W18476   9.179   5.588  13.316  0.2294 -0.0048  0.1610
 2403W        W18477  15.069   6.079   2.253 -0.0730 -0.2979  0.0434
 2404W        W18478   0.069   5.257  15.000  0.1251  0.3188 -0.1986
 2405W        W18479   3.707   5.140  14.907 -0.3523  0.2478 -0.1700
 2406W        W18480   9.859  12.092  11.917  0.0419  0.0776 -0.2301
 2407W        W18481   6.821   9.995   3.375  0.0705  0.1117 -0.1037
 2408W        W18482   4.645   9.272   2.537 -0.2021 -0.0073  0.2170
 2409W        W18483   3.106   1.831   4.904  0.0105 -0.1222  0.1665
 2410W        W18484  10.770   5.326  13.363  0.3072 -0.3150  0.0027
 2411W        W18485  15.847   2.386   0.818 -0.1222 -0.4393  0.1329
 2412W        W18486   4.595   0.411   3.800 -0.1956  0.0392 -0.1610
 2413W        W18487   1.551   3.678   2.913 -0.1729 -0.1580 -0.1530
 2414W        W18488  15.854   3.765   5.699 -0.3067 -0.1723 -0.1105
 2415W        W18489   9.204  15.586   0.205 -0.1044  0.1560  0.0147
 2416W        W18490   6.552   8.315  14.707  0.1758  0.1501  0.2416
 2417W        W18491   0.412   2.571   2.355 -0.3120 -0.0591  0.2981
 2418W        W18492  16.648  10.864   4.553  0.1489  0.1388  0.1130
 2419W        W18493   1.516  15.881   5.615  0.0739  0.0353  0.1775
 2420W        W18494   4.016  15.203   1.933  0.0310 -0.0124 -0.2539
 2421W        W18495  15.986   9.334  13.720  0.0003 -0.0227 -0.1539
 2422W        W18496  13.678   8.933   4.503  0.3281  0.1678 -0.0807
 2423W        W18497  13.988   7.443  12.985  0.3480 -0.2139 -0.0111
 2424W        W18498  13.314  17.657  11.988  0.2483  0.0336  0.1653
 2425W        W18499  15.514   4.843   4.089 -0.3355  0.4034  0.3574
 2426W        W18500   3.162   4.629   1.654 -0.1208  0.0242  0.2264
 2427W        W18501   8.376   6.467  13.599 -0.0719  0.0362 -0.1491
 2428W        W18502   4.641  10.537   3.879 -0.1330 -0.2121 -0.0900
 2429W        W18503   8.182   6.142  14.741  0.0592 -0.0253  0.1910
 2430W        W18504  10.852   4.475  12.818  0.1184 -0.2214 -0.0821
 2431W        W18505  14.670  16.422  15.620  0.0681  0.1123  0.0477
 2432W        W18506  13.549   9.795   1.476  0.3062  0.0444 -0.2160
 2433W        W18507   1.197  17.160  13.249 -0.0696 -0.0277  0.1012
 2434W        W18508  11.169   7.652  17.028 -0.0409 -0.1795  0.2064
 2435W        W18509   0.705  16.430   4.913  0.0378  0.1252 -0.1289
 2436W        W18510  17.634  14.005   2.365 -0.0866  0.4420  0.0843
 2437W        W18511   8.675   1.985  15.172  0.1832 -0.1292 -0.0914
 2438W        W18512   6.001  15.818  13.129 -0.1299 -0.1579  0.2233
 2439W        W18513  16.892   2.330  16.230  0.0864  0.2690 -0.0667
 2440W        W18514   0.913   2.420   5.056  0.2801 -0.0925 -0.1291
 2441W        W18515  16.638   0.860   1.658 -0.0648 -0.2742 -0.1472
 2442W        W18516  12.945  16.435   0.514  0.0921 -0.2494  0.0343
 2443W        W18517   0.846  16.622   5.524 -0.0750  0.1627  0.3920
 2444W        W18518   5.875  16.041   0.737  0.1094  0.0064 -0.1795
 2445W        W18519   5.896  13.286  15.700 -0.1588  0.0259  0.0043
 2446W        W18520  11.237  10.650   0.048 -0.0659 -0.0634  0.2124
 2447W        W18521  15.036  14.612   1.605  0.2148  0.2797 -0.2426
 2448W        W18522   5.211  10.229  14.079  0.2412 -0.0595  0.0859
 2449W        W18523   5.927   5.109  13.979  0.1681  0.1088 -0.0355
 2450W        W18524   8.302  17.160  16.133  0.2372 -0.0665 -0.0399
 2451W        W18525   9.939   9.938  12.796  0.0929 -0.2729  0.0160
 2452W        W18526   6.903  12.862   1.330 -0.0209 -0.2209  0.4898
 2453W        W18527   9.539   7.374  15.361  0.1242  0.1651  0.2146
 2454W        W18528  16.364   3.621   1.415  0.1996  0.0243 -0.2345
 2455W        W18529  16.832  12.514   0.668 -0.1078 -0.0896 -0.3480
 2456W        W18530   5.254   9.808  15.521  0.2374  0.1084  0.1766
 2457W        W18531   8.264  11.508   5.064 -0.1703  0.1806 -0.5308
 2458W        W18532   5.357   3.757  13.015 -0.1703 -0.1316  0.0781
 2459W        W18533   5.615  16.556  15.747  0.0618  0.0564  0.1580
 2460W        W18534  16.978  11.286  14.699 -0.3998  0.2881  0.4047
 2461W        W18535   2.908  10.668   2.943 -0.0756 -0.2487 -0.0600
 2462W        W18536   9.565   9.784  12.020  0.0271 -0.2424  0.0839
 2463W        W18537  10.043  12.843   2.964  0.1720 -0.0778  0.1690
 2464W        W18538  10.348  17.519  14.163  0.2030  0.4450  0.1363
 2465W        W18539   4.404  12.040   1.990  0.2380  0.0153  0.1472
 2466W        W18540  10.733  10.259   5.115 -0.0525 -0.1140 -0.2149
 2467W        W18541   1.448  16.779   5.752 -0.2775 -0.0847 -0.2240
 2468W        W18542  10.263   6.974   3.438  0.1228  0.0256  0.0480
 2469W        W18543   8.847   9.067  13.247  0.1398  0.2326 -0.0303
 2470W        W18544   6.475   8.855  16.015  0.0937  0.1305 -0.0772
 2471W        W18545   7.302   9.319  15.058  0.0813  0.2148  0.4031
 2472W        W18546  12.789   4.638  16.210  0.1833 -0.1053  0.0894
 2473W        W18547  15.116  17.241   3.784  0.2913  0.0751  0.0634
 2474W        W18548   0.355   6.694  13.611 -0.0892 -0.2975  0.0801
 2475W        W18549   7.365   2.590   5.048 -0.2416 -0.1468 -0.0767
 2476W        W18550   9.323   0.429  16.140  0.0948  0.2267 -0.1499
 2477W        W18551   1.631   3.947  15.254 -0.1076 -0.0906  0.3258
 2478W        W18552   5.586  15.070  13.571  0.0752  0.0595  0.1531
 2479W        W18553   6.586   2.084  13.926 -0.0951 -0.0208  0.1365
 2480W        W18554  15.507   5.438  12.733  0.1949 -0.0194  0.3527
 2481W        W18555   7.344   0.238  15.761  0.0449 -0.0088 -0.0108
 2482W        W18556   4.816  11.779  12.723  0.2921 -0.3006  0.1246
 2483W        W18557   4.106  10.242   2.451 -0.1513  0.2389  0.1996
 2484W        W18558   7.000   6.976  15.914 -0.0497 -0.0661  0.0189
 2485W        W18559   2.773   3.424   2.278 -0.1184  0.0536  0.0807
 2486W        W18560  15.755  14.215   1.444  0.2444  0.2006  0.0588
 2487W        W18561   9.254  11.807  11.521  0.0763  0.0161  0.0566
 2488W        W18562  13.256  14.754   1.409 -0.0493  0.0369  0.0056
 2489W        W18563   7.293  13.872   0.651  0.0041  0.0892 -0.0062
 2490W        W18564  15.165   0.152  16.384 -0.0861  0.0432 -0.1078
 2491W        W18565   8.817   8.824  15.503 -0.0409  0.3719  0.2681
 2492W        W18566  14.308   0.093   5.302 -0.0137  0.0832  0.0264
 2493W        W18567  12.230   2.899   4.508  0.0145 -0.0845  0.0911
 2494W        W18568   5.201   2.474   2.460 -0.1540 -0.2193  0.1107
 2495W        W18569   6.778  16.778  15.486 -0.0443  0.2540 -0.1018
 2496W        W18570  14.213   3.584  15.794  0.0465  0.0012  0.0077
 2497W        W18571   4.689  11.057   2.064  0.0202  0.0959  0.2127
 2498W        W18572  13.450  16.721  12.253  0.2057 -0.2621 -0.3417
 2499W        W18573  15.952   2.530  14.706 -0.0986  0.4224  0.2152
 2500W        W18574  16.628  17.171   3.197 -0.0417 -0.3452  0.0642
 2501W        W18575  14.477   7.895   0.479  0.0899 -0.0116  0.2457
 2502W        W18576  13.933   0.545  13.204 -0.1279 -0.1558  0.0213
 2503W        W18577   8.890   6.312   3.101 -0.0315  0.2548 -0.0324
 2504W        W18578   7.911   9.425   3.339  0.4146 -0.0131 -0.0003
 2505W        W18579   2.169   7.788   3.918  0.3428 -0.3090 -0.1236
 2506W        W18580  10.868  13.484  12.019  0.3002 -0.3525 -0.0180
 2507W        W18581  14.062   3.106   6.019  0.2196  0.1038  0.0846
 2508W        W18582   7.941   4.137  17.150  0.0895  0.0019  0.4360
 2509W        W18583   6.244   3.348  17.077 -0.1023  0.1451 -0.0242
 2510W        W18584  10.064   1.986  14.296 -0.0465  0.1326 -0.0936
 2511W        W18585  10.946   4.844  14.105 -0.1917 -0.0038  0.0172
 2512W        W18586   1.325   5.630  14.826  0.2362  0.0776  0.0079
 2513W        W18587  15.452   0.042   4.332 -0.2425  0.0053  0.1119
 2514W        W18588  10.805   1.986   3.455 -0.0821 -0.0315  0.1232
 2515W        W18589  12.093  13.729   0.440 -0.1301 -0.1161 -0.3163
 2516W        W18590  13.378   8.110  16.104 -0.1335  0.0225 -0.0314
 2517W        W18591   0.939  16.885  14.576  0.0360  0.1722  0.2219
 2518W        W18592   7.638   7.773   5.253 -0.0879  0.1234  0.1122
 2519W        W18593  11.586  16.871   4.964  0.3716  0.1464  0.0060
 2520W        W18594  12.744   4.782   1.007 -0.0697  0.3553  0.0490
 2521W        W18595   7.092   1.920  13.557  0.1720  0.1915  0.0472
 2522W        W18596  14.063  17.179   1.986  0.0249  0.5047  0.2627
 2523W        W18597  11.177  13.574   4.481 -0.0983 -0.0297  0.1473
 2524W        W18598  16.298   7.442   5.968 -0.0682 -0.1019 -0.0552
 2525W        W18599  16.709   1.869   1.858 -0.0419  0.0557 -0.1647
 2526W        W18600   3.665   6.331   5.261  0.0815 -0.0368 -0.3832
 2527W        W18601   9.627  11.289  13.002  0.0252 -0.3238  0.2921
 2528W        W18602   8.070  15.479  10.809 -0.0102 -0.0793  0.4792
 2529W        W18603   9.380   7.322  12.075 -0.0235  0.2086  0.1266
 2530W        W18604   4.765  16.070   1.948  0.1403  0.1774  0.2189
 2531W        W18605  13.150   1.627  11.996 -0.1314 -0.1516  0.2204
 2532W        W18606   6.208   2.285  16.048 -0.2564  0.0510 -0.4215
 2533W        W18607   1.759  15.962   6.495 -0.0990  0.0640  0.0928
 2534W        W18608  16.049  11.608   1.296 -0.2101 -0.0685 -0.1110
 2535W        W18609  16.331   2.360  16.858  0.1087 -0.0221  0.0198
 2536W        W18610  11.156   8.936  14.051 -0.0821 -0.3698 -0.0725
 2537W        W18611   6.342   3.203   5.520 -0.1081 -0.0669  0.1081
 2538W        W18612   8.952   6.980   1.221 -0.1336  0.1863 -0.2804
 2539W        W18613   3.252   6.393  14.009  0.0570 -0.2145 -0.2805
 2540W        W18614   9.724   9.896  15.734 -0.0893 -0.0144  0.0765
 2541W        W18615   6.318  15.743   2.288  0.2789  0.1493  0.0077
 2542W        W18616  15.140  16.302  14.399 -0.1645  0.0075 -0.0780
 2543W        W18617   2.628   0.137   1.755  0.2118 -0.0540 -0.2687
 2544W        W18618  11.190   9.732   4.627  0.0578 -0.1362 -0.2451
 2545W        W18619  12.702   5.004   2.567  0.0205 -0.0073 -0.2030
 2546W        W18620   4.231  16.508  14.454 -0.0503  0.0797  0.2952
 2547W        W18621  14.870   8.987  14.057 -0.2470  0.1928  0.0898
 2548W        W18622   7.981   7.173  12.571  0.3632  0.3083 -0.1165
 2549W        W18623   2.448  14.619   0.297  0.0749  0.0724  0.2462
 2550W        W18624  11.920   6.832   3.385  0.0415  0.2538  0.2096
 2551W        W18625   4.144   0.993  15.524  0.0530  0.0891  0.0976
 2552W        W18626   4.935  11.311   5.435  0.3866 -0.1168  0.2285
 2553W        W18627  13.989   8.369  12.577 -0.1264 -0.2755 -0.1468
 2554W        W18628   1.334  12.224  11.882 -0.3364 -0.0395  0.0797
 2555W        W18629  11.967   8.051  11.676 -0.1713 -0.0893  0.0670
 2556W        W18630  16.314   1.280   0.216  0.0824 -0.2871  0.0992
 2557W        W18631   1.289   2.085   1.655  0.1466  0.1082 -0.1115
 2558W        W18632   2.150  13.751  12.124  0.2503  0.1613  0.1199
 2559W        W18633  17.247   4.588   4.160 -0.0529  0.3432 -0.3099
 2560W        W18634   3.639  16.746  15.793 -0.0010  0.1231  0.0480
 2561W        W18635  16.938  14.127   0.528  0.3724 -0.3723 -0.1741
 2562W        W18636   8.879  13.536  16.961 -0.0834 -0.1552  0.0742
 2563W        W18637  16.500  13.899  15.170 -0.1348 -0.0196 -0.2485
 2564W        W18638   1.387   9.558  12.098  0.1294 -0.1547 -0.1379
 2565W        W18639   9.753   7.776   1.238 -0.2092 -0.0425 -0.0320
 2566W        W18640  12.683  15.884   2.394 -0.0219  0.0878  0.0088
 2567W        W18641   5.198   1.832  13.341  0.0097 -0.1567  0.2442
 2568W        W18642   6.465   0.804  16.161 -0.0218 -0.2007 -0.2996
 2569W        W18643   9.507  17.437  15.513  0.1772  0.1063  0.2307
 2570W        W18644   4.429  13.162   4.405 -0.3258 -0.1057 -0.0368
 2571W        W18645  15.186  13.347   3.198  0.0580  0.0207  0.0736
 2572W        W18646  10.914  15.852  13.373  0.3026  0.1004  0.0076
 2573W        W18647   5.821   7.686   0.554 -0.2142  0.2377 -0.0177
 2574W        W18648   5.096   9.569  16.951  0.1835  0.1136 -0.0567
 2575W        W18649  11.444  17.201   2.437 -0.0199 -0.0632 -0.0833
 2576W        W18650  14.676   0.751  11.945 -0.0054  0.0562  0.0218
 2577W        W18651   3.960   2.856   4.749  0.3719  0.2148 -0.1846
 2578W        W18652  12.284   3.084  14.769  0.1434 -0.3052  0.1862
 2579W        W18653   7.518   7.094   4.779  0.1201 -0.0183  0.1760
 2580W        W18654   2.585   1.278  16.039  0.2235 -0.0968  0.0407
 2581W        W18655   0.627  10.193  14.549  0.1047  0.0695  0.1507
 2582W        W18656  14.298  10.243   2.953 -0.1870 -0.2046  0.2649
 2583W        W18657  10.484   5.356   1.074  0.2062  0.0765 -0.0728
 2584W        W18658   7.790   0.395   0.120  0.1311 -0.1396  0.2390
 2585W        W18659   3.164  16.246  15.287 -0.0564 -0.0498  0.0556
 2586W        W18660  13.213   4.473   5.343  0.1535  0.0323 -0.2389
 2587W        W18661  11.208   5.325  16.212 -0.1421 -0.3010  0.1173
 2588W        W18662   2.956   0.230  16.428  0.1658  0.1652  0.1232
 2589W        W18663  11.933   1.188   6.371 -0.0205  0.1303 -0.4232
 2590W        W18664  11.047  12.097   5.257  0.0854 -0.1902  0.0288
 2591W        W18665  16.074   8.006  16.449 -0.3406 -0.1499  0.0262
 2592W        W18666   6.882  12.120  14.346  0.0338 -0.0322  0.0818
 2593W        W18667   1.547   0.517  14.526 -0.3263 -0.0124  0.0759
 2594W        W18668   5.046  14.133   1.635  0.0571  0.0166 -0.0849
 2595W        W18669  15.567   6.021   4.666 -0.0275  0.1491  0.1683
 2596W        W18670  15.873   0.141  13.462 -0.1167 -0.1365  0.0864
 2597W        W18671   8.955   6.217   0.176  0.2719 -0.1024  0.3876
 2598W        W18672   9.723  11.931   3.987  0.0140  0.1164 -0.1720
 2599W        W18673  16.674  15.002   5.775  0.0397  0.1144  0.0002
 2600W        W18674   8.931   1.452   3.737 -0.1665 -0.0481 -0.1109
 2601W        W18675   8.423   6.467  15.039  0.2692 -0.3238 -0.1825
 2602W        W18676   5.306  15.334  15.656  0.0105  0.1403 -0.1714
 2603W        W18677  15.391   6.296  15.443 -0.0202  0.0422  0.1814
 2604W        W18678  14.714  15.570  16.460 -0.2869 -0.1362  0.0790
 2605W        W18679  10.506   2.993  16.322 -0.0191 -0.0607  0.0404
 2606W        W18680  16.918   0.906  16.994 -0.1724 -0.0057 -0.0561
 2607W        W18681  17.692  12.988   5.007 -0.0835  0.0634 -0.0775
 2608W        W18682  10.923   4.742   2.653  0.3231 -0.0033  0.3807
 2609W        W18683   7.774  12.853  16.741  0.1149  0.0251  0.0078
 2610W        W18684   7.074   1.911  12.178  0.1147 -0.0536 -0.0650
 2611W        W18685   7.561   3.389  16.262 -0.1394 -0.0132 -0.2130
 2612W        W18686   0.035  10.802   0.660  0.0688 -0.0161 -0.1213
 2613W        W18687   8.705  11.815  15.587 -0.0181  0.2969  0.0475
 2614W        W18688   4.410   4.518  12.831  0.2750  0.0083  0.0135
 2615W        W18689   5.698  14.753   2.901 -0.1048 -0.0019  0.0667
 2616W        W18690  11.129   9.489  16.986  0.0045  0.1038 -0.1818
 2617W        W18691  12.381  16.267   2.428 -0.0881 -0.0671 -0.0314
 2618W        W18692   8.066   9.121  16.723  0.0385 -0.0826 -0.0911
 2619W        W18693   8.451   9.940   5.231  0.0292  0.1004  0.0534
 2620W        W18694   6.963   1.846   1.355 -0.2002  0.0942  0.0099
 2621W        W18695  11.102   1.984   2.455 -0.0499  0.3774 -0.0183
 2622W        W18696  16.761   0.926  15.829  0.0466 -0.0888 -0.1292
 2623W        W18697  11.183  11.917   2.963 -0.1124  0.2121  0.2201
 2624W        W18698  12.528  14.822   3.315  0.1430  0.1785 -0.0430
 2625W        W18699   7.323   1.090   2.124  0.0519  0.1125  0.1264
 2626W        W18700   5.656  16.553  14.062  0.1618  0.1617  0.1950
 2627W        W18701  13.712   5.339   4.932  0.2978 -0.0607 -0.0874
 2628W        W18702  17.203  11.170  16.486  0.2800 -0.0700 -0.1593
 2629W        W18703  10.639  16.724   4.753  0.1009  0.3062 -0.2482
 2630W        W18704  10.732   2.638   1.027  0.1275 -0.1816 -0.1592
 2631W        W18705  15.265  15.323  15.338 -0.0761 -0.3664 -0.1617
 2632W        W18706   9.967   9.104  16.705 -0.1605 -0.0357  0.4022
 2633W        W18707  12.668   7.111  14.581  0.1780 -0.1089  0.1166
 2634W        W18708   5.468  17.109  16.657  0.1794  0.2540 -0.1841
 2635W        W18709   5.729  12.020   5.649 -0.0409 -0.0535 -0.3279
 2636W        W18710  10.658   2.796  13.311 -0.0724 -0.0092  0.2221
 2637W        W18711  16.872   8.617   5.150  0.3652  0.0084 -0.1116
 2638W        W18712  14.213   9.160  12.639 -0.0233 -0.2141 -0.1573
 2639W        W18713   4.930   2.252  11.881 -0.0896 -0.1418  0.1233
 2640W        W18714   7.272  14.365   3.563 -0.3265  0.1390  0.1588
 2641W        W18715   4.019   0.647  14.007 -0.0036  0.3496 -0.1574
 2642W        W18716  12.816   8.907  13.269  0.1130  0.0132  0.1006
 2643W        W18717   6.980  11.271   5.218  0.0258 -0.0605  0.0217
 2644W        W18718  16.564   1.724   3.228  0.1262  0.4558 -0.1494
 2645W        W18719   5.690  11.221  16.481 -0.1468  0.0921  0.2016
 2646W        W18720   1.603   9.585   4.962 -0.0710  0.1390  0.1632
 2647W        W18721   0.387  16.196  14.280 -0.2726 -0.1587 -0.1388
 2648W        W18722   6.139   9.104   5.306  0.2553 -0.1337 -0.0856
 2649W        W18723   2.174  14.598   2.450  0.0442 -0.2228 -0.0443
 2650W        W18724  16.372   9.351   0.509  0.1207 -0.0521  0.2320
 2651W        W18725  14.570  12.768   3.079  0.0952 -0.0403 -0.1022
 2652W        W18726  16.430   1.042  13.302  0.0635  0.1301 -0.0005
 2653W        W18727   2.137   0.014   1.663 -0.1244 -0.0468 -0.0189
 2654W        W18728  17.403  11.009  12.856  0.3220  0.2998  0.2864
 2655W        W18729   1.082  17.723   5.188  0.3186  0.1299  0.1628
 2656W        W18730   5.450   2.206   1.044  0.0855  0.1841  0.4038
 2657W        W18731   4.093  16.970   1.778 -0.0692  0.0299 -0.0511
 2658W        W18732  10.023  14.300  15.852  0.1310  0.2658  0.2682
 2659W        W18733  12.957  11.769  12.377 -0.0907  0.1378 -0.1649
 2660W        W18734   4.002  14.613  15.256 -0.0333 -0.0548 -0.1709
 2661W        W18735  11.886   9.653   0.959  0.1094  0.1271 -0.1942
 2662W        W18736   7.882   4.934  14.058 -0.0867  0.0772  0.1275
 2663W        W18737   7.059  10.034   4.986 -0.1998 -0.1517 -0.0912
 2664W        W18738  15.074  17.447   5.823 -0.0800 -0.0008 -0.2037
 2665W        W18739  12.697  11.604  14.763 -0.0524 -0.2930 -0.2896
 2666W        W18740   5.569  13.286   6.069  0.0997  0.0904  0.0821
 2667W        W18741  16.202   6.412  13.613 -0.0109  0.1406 -0.1417
 2668W        W18742   3.650   2.845  16.154 -0.0311  0.3793  0.2373
 2669W        W18743  12.204  16.762   0.610  0.0787  0.2295 -0.1666
 2670W        W18744   5.878  16.268  16.896  0.3238  0.0024  0.1967
 2671W        W18745   2.132  16.711   5.378 -0.0059 -0.0332  0.2791
 2672W        W18746   3.833  10.859   4.164  0.0557  0.3796  0.2959
 2673W        W18747   5.617   2.486   5.072 -0.3148  0.1208  0.1706
 2674W        W18748  17.712   3.282  15.261 -0.2802 -0.0521  0.1207
 2675W        W18749   4.504  11.088   1.069 -0.0343  0.1136 -0.0695
 2676W        W18750   8.613   3.048  14.086  0.0486  0.2144  0.1092
 2677W        W18751   0.276   3.411  15.731  0.0005 -0.1678  0.0483
 2678W        W18752  12.455   8.087  12.959 -0.0466  0.0052 -0.1738
 2679W        W18753   9.115  16.747  16.240  0.2564 -0.0235  0.1354
 2680W        W18754   7.411   6.796  13.290  0.1767  0.0203  0.2812
 2681W        W18755   2.078   2.021  11.104 -0.0422 -0.1357  0.1580
 2682W        W18756  11.374   8.886   0.640  0.1593  0.0005  0.1043
 2683W        W18757   3.336   0.173   4.120 -0.1866  0.0607  0.0825
 2684W        W18758   6.683  15.216  15.379 -0.1594 -0.3641 -0.1144
 2685W        W18759  13.535  15.960   3.441  0.0366  0.2183  0.2048
 2686W        W18760   9.275   4.366  12.697  0.1723  0.5594  0.3182
 2687W        W18761   2.834   6.674  12.752 -0.1797 -0.0871  0.0592
 2688W        W18762   7.046  16.154  14.591  0.2100 -0.0134 -0.2801
 2689W        W18763   6.560   5.277  12.070  0.0130 -0.2141 -0.3056
 2690W        W18764   0.963  10.513  13.010  0.1224 -0.0097 -0.3250
 2691W        W18765   7.832   0.534   0.965 -0.3283  0.0235 -0.2177
 2692W        W18766  15.352   1.843   0.485 -0.0673  0.1114 -0.0879
 2693W        W18767   7.930  11.356   2.676 -0.1583 -0.2179  0.2537
 2694W        W18768   0.924  15.682  12.817 -0.0210  0.1300 -0.3201
 2695W        W18769  13.507  16.552  14.425 -0.0778  0.0107 -0.1143
 2696W        W18770   5.619   1.032   5.984  0.0404 -0.1551 -0.0382
 2697W        W18771   6.617  11.080   2.686 -0.1199 -0.0828 -0.0684
 2698W        W18772   0.284   6.162   5.756 -0.1233 -0.0030 -0.1953
 2699W        W18773  11.561  12.159   5.349 -0.1277  0.0047  0.2437
 2700W        W18774  12.677   0.706  13.057  0.0269 -0.3336 -0.0578
 2701W        W18775   8.873  10.442   0.995 -0.0523 -0.1979  0.1666
 2702W        W18776   0.430  14.038  17.119  0.0090  0.0897  0.0508
 2703W        W18777  15.885  14.444   0.083  0.0629 -0.2141 -0.2489
 2704W        W18778  15.398   1.102   1.098  0.0678  0.1344 -0.3397
 2705W        W18779   3.407   5.606   3.740  0.1463  0.1816  0.1111
 2706W        W18780   1.846  15.071   0.366  0.0455 -0.1095 -0.2425
 2707W        W18781   4.852  17.213   0.809  0.3705  0.0160  0.0942
 2708W        W18782   0.012   2.230  11.846 -0.3451  0.0998  0.1051
 2709W        W18783   2.256   9.020  12.581  0.2323  0.0534  0.0682
 2710W        W18784   0.356  10.613   6.039 -0.1893 -0.0179  0.1213
 2711W        W18785   5.627  12.874  12.888 -0.0886 -0.0312  0.0184
 2712W        W18786   8.038   1.113   4.338  0.0575 -0.2738 -0.1274
 2713W        W18787   6.072  11.589   3.224 -0.1330 -0.0178 -0.1541
 2714W        W18788   3.811  10.557   6.511  0.0525  0.0509  0.2435
 2715W        W18789  14.173  14.841   5.474  0.0764 -0.1598  0.3971
 2716W        W18790  17.393   1.291   3.658  0.1111 -0.3338 -0.0867
 2717W        W18791   9.366  16.888   0.176  0.2636  0.3298 -0.1381
 2718W        W18792   8.214   8.290   0.255  0.1731  0.1676 -0.1229
 2719W        W18793   8.385  13.432  15.439 -0.3120  0.0730 -0.1816
 2720W        W18794   4.607   2.079  16.422 -0.2348  0.0909  0.3722
 2721W        W18795   7.137   1.362   0.383  0.0828 -0.0114 -0.2007
 2722W        W18796   1.911   6.484  12.275  0.1150 -0.3333  0.1256
 2723W        W18797  13.667  16.199   0.658 -0.0401 -0.1528 -0.1537
 2724W        W18798   2.977  10.266   2.610  0.1196 -0.0438 -0.0860
 2725W        W18799   3.133   3.255   1.982  0.2945  0.0310 -0.0662
 2726W        W18800   7.233  13.852   4.348  0.0570  0.0645  0.1233
 2727W        W18801   2.157  16.540  11.917  0.1639  0.2327  0.0059
 2728W        W18802   3.234   8.685  13.685 -0.0054  0.0576 -0.0970
 2729W        W18803  15.423   8.607   3.599  0.2334  0.0505 -0.0552
 2730W        W18804   1.607   9.608   1.186 -0.1447  0.1385  0.0211
 2731W        W18805  17.079   1.877   1.506  0.1461 -0.1020 -0.2214
 2732W        W18806   4.252   4.429  13.314  0.4119 -0.0113  0.0213
 2733W        W18807   0.304   3.017   2.601 -0.3179 -0.1969  0.0690
 2734W        W18808   5.733  17.722   6.230 -0.1961  0.0451 -0.0991
 2735W        W18809  17.056  12.477   5.379  0.1017 -0.1031  0.1918
 2736W        W18810   6.802   2.365  16.710  0.4595 -0.1466  0.2194
 2737W        W18811   6.408  12.052  16.228 -0.1062 -0.0328 -0.2281
 2738W        W18812  13.271  11.865   2.745 -0.1980  0.0561 -0.2514
 2739W        W18813   6.540  14.063  15.372  0.1489 -0.0670 -0.2235
 2740W        W18814   8.720  12.582   4.362 -0.0398 -0.0009  0.2534
 2741W        W18815  11.399   7.374   5.366  0.0629 -0.0692  0.2825
 2742W        W18816  14.973   7.768   6.161 -0.1626  0.3002  0.0104
 2743W        W18817   1.941  10.783  16.998 -0.1939  0.0500  0.3958
 2744W        W18818   7.832  10.659  15.026 -0.1805  0.1523 -0.0070
 2745W        W18819   3.390  16.351   4.828  0.0021 -0.1089 -0.1470
 2746W        W18820  12.667  15.042   4.543 -0.1157  0.2056  0.2896
 2747W        W18821  17.628  12.978   1.372  0.0973  0.3305  0.0878
 2748W        W18822   9.895   7.706   6.504 -0.2139  0.0790  0.2466
 2749W        W18823  11.493   6.920   3.040  0.0093  0.0293 -0.1079
 2750W        W18824  14.046  13.175  13.488  0.2682 -0.1995 -0.0131
 2751W        W18825  10.932   7.953   0.814 -0.2133  0.0529 -0.2304
 2752W        W18826  14.845  11.091  13.851 -0.0380 -0.3688 -0.1775
 2753W        W18827  15.818   1.800  13.064 -0.1012  0.1918 -0.0068
 2754W        W18828   9.789   3.601   0.541  0.0771 -0.0591 -0.1313
 2755W        W18829  10.208   6.411   3.160  0.0336 -0.1028 -0.1797
 2756W        W18830  14.101  10.220   4.457 -0.1925  0.2107  0.1683
 2757W        W18831  12.873  11.546   5.279  0.0620  0.0622  0.0320
 2758W        W18832   2.502   9.054   1.999 -0.3371 -0.2446 -0.2042
 2759W        W18833  11.365   8.208   5.650  0.1824  0.1670  0.0837
 2760W        W18834   7.123  13.779   3.206  0.0949  0.1260  0.0478
 2761W        W18835  16.652   9.195   3.818  0.0231 -0.1489  0.0387
 2762W        W18836  17.602   8.418  14.045 -0.2504 -0.2247 -0.1081
 2763W        W18837  17.697  14.595  16.271  0.0682  0.0558 -0.0997
 2764W        W18838   4.988   0.519   2.613  0.3769  0.0606 -0.0931
 2765W        W18839   4.685  15.554  11.699 -0.0020 -0.0824 -0.0181
 2766W        W18840   8.067   1.939   4.242 -0.3722  0.1227  0.0910
 2767W        W18841   4.616   6.131   3.807  0.0081 -0.1477  0.3105
 2768W        W18842   8.279  16.762   1.198  0.1990  0.0527 -0.1245
 2769W        W18843   3.785  14.256  12.621  0.1094  0.0758  0.0590
 2770W        W18844  11.501   8.636  15.107  0.0019 -0.1043  0.0367
 2771W        W18845   9.604   9.797   0.937 -0.2690 -0.1968  0.0490
 2772W        W18846   3.328   5.396   0.631 -0.1768 -0.3010 -0.2295
 2773W        W18847   7.812  15.649   4.526 -0.1234  0.1446  0.1472
 2774W        W18848   9.273   2.404  14.458 -0.0568  0.0162  0.2181
 2775W        W18849  10.369  14.987  16.333  0.0950 -0.4420  0.1508
 2776W        W18850  10.981   1.248  11.821  0.2075  0.0262  0.1763
 2777W        W18851  13.549  11.765  15.755 -0.1655  0.1724 -0.1531
 2778W        W18852  17.119   3.206   5.440 -0.0322 -0.3642 -0.0829
 2779W        W18853   4.839  10.591   2.197  0.2870  0.1550 -0.1130
 2780W        W18854   5.434  13.675  13.182 -0.2304 -0.1717 -0.0734
 2781W        W18855  15.152  13.001  11.308 -0.1345 -0.1513  0.3542
 2782W        W18856  10.855  15.297   5.610  0.0658  0.1087  0.0444
 2783W        W18857   3.372  11.696   1.893 -0.1816  0.0058 -0.2254
 2784W        W18858  11.843  10.977   1.346 -0.2369 -0.0357 -0.2127
 2785W        W18859   2.173   4.199  15.625  0.3882  0.1434 -0.2303
 2786W        W18860  10.750   5.815  16.877 -0.1725 -0.1588  0.3863
 2787W        W18861  15.950  16.743  17.021 -0.2248  0.2975  0.1297
 2788W        W18862  15.322  11.001   5.221 -0.0433  0.1401  0.0539
 2789W        W18863   7.867  15.272  14.369  0.2123  0.2029 -0.3657
 2790W        W18864  12.055  15.567   1.706  0.0705  0.3987 -0.0311
 2791W        W18865  10.784  13.283   2.406  0.1044 -0.1899 -0.1270
 2792W        W18866   4.559   6.102   0.074  0.1303  0.0638 -0.2326
 2793W        W18867   9.129   2.558  14.945 -0.0820 -0.1668  0.3650
 2794W        W18868   7.037   3.703  13.100 -0.0377  0.0146  0.1679
 2795W        W18869   4.520  14.569  14.534 -0.2042  0.0194 -0.1825
 2796W        W18870   8.594  11.378  15.834  0.3860  0.0860 -0.2028
 2797W        W18871   0.153   5.644   2.197 -0.0989 -0.0897  0.1359
 2798W        W18872  16.094   0.375   3.722  0.2993  0.0153 -0.2260
 2799W        W18873   5.961   0.641  14.658 -0.3722 -0.3025 -0.2382
 2800W        W18874  12.620   0.298   5.506 -0.0111 -0.1002 -0.0851
 2801W        W18875   2.593   9.180   3.435  0.0913  0.3738  0.1594
 2802W        W18876   5.928   3.246   3.217  0.1523  0.1171 -0.4122
 2803W        W18877   0.466  13.513   5.799 -0.1083 -0.0008 -0.3835
 2804W        W18878  13.491   4.703  16.114  0.0210 -0.2787 -0.1015
 2805W        W18879  10.365   7.524  16.446 -0.0894  0.2777  0.5997
 2806W        W18880  11.552  16.707  14.980  0.0395 -0.1444 -0.1365
 2807W        W18881   5.086   4.723   4.761  0.1481  0.1417 -0.0730
 2808W        W18882   9.444  15.445   3.582  0.3505 -0.1584  0.3562
 2809W        W18883  16.611   1.408  16.995  0.0190  0.0515 -0.2571
 2810W        W18884  12.100   0.332   4.367  0.1524 -0.3777 -0.1935
 2811W        W18885  17.356  14.422   0.693 -0.0119  0.0896 -0.0371
 2812W        W18886  13.481   0.068   0.281 -0.3810 -0.3211 -0.2438
 2813W        W18887   8.840   7.389   5.922 -0.1298 -0.1097 -0.3742
 2814W        W18888  15.911   8.495  12.573 -0.1172  0.1540  0.0469
 2815W        W18889   9.119   0.944   0.884  0.5348  0.2030 -0.1355
 2816W        W18890  11.844   4.738   4.202  0.1101 -0.1611 -0.0393
 2817W        W18891   4.848   0.361   0.863  0.0711 -0.1258 -0.2090
 2818W        W18892  15.344   2.993   5.666 -0.1308  0.0613 -0.1178
 2819W        W18893  11.139  10.692   3.923  0.0490  0.0002 -0.0704
 2820W        W18894   4.206   6.860  14.327 -0.0200 -0.1349  0.0122
 2821W        W18895   5.508   6.514  12.640  0.0064  0.2004 -0.1426
 2822W        W18896   7.455  17.429  13.676  0.2774 -0.1774  0.3323
 2823W        W18897  11.769  14.747  16.277  0.2124 -0.0304 -0.1777
 2824W        W18898  10.237   0.939  16.948  0.0911 -0.0542 -0.2172
 2825W        W18899  17.532   7.274  12.217  0.2068  0.0578  0.1092
 2826W        W18900   6.006   2.858  16.462  0.3378  0.0398  0.0145
 2827W        W18901   1.768   4.619   0.914 -0.1024  0.2367  0.0303
 2828W        W18902   6.546  13.246   4.018 -0.0998  0.0106  0.0806
 2829W        W18903   0.231  15.183   1.302 -0.0745 -0.0133  0.1559
 2830W        W18904   1.320   3.271   4.733 -0.0309 -0.0960 -0.0060
 2831W        W18905   8.455   2.148  16.391  0.2863  0.2812  0.1641
 2832W        W18906  11.073  11.288   1.401  0.1171  0.2379  0.1435
 2833W        W18907  15.695   0.602   3.389 -0.2368 -0.1871  0.1779
 2834W        W18908   4.112   2.793  16.386  0.3042  0.0229 -0.0528
 2835W        W18909  10.627  14.261   1.030  0.0095  0.1319 -0.1180
 2836W        W18910   6.872   0.361   6.547  0.0084  0.0211  0.1043
 2837W        W18911  14.297   6.692  14.579  0.0792  0.1817 -0.2824
 2838W        W18912  12.402  13.480   5.118 -0.0484 -0.0310 -0.3955
 2839W        W18913   5.442   3.883   0.009  0.0258  0.1340  0.0206
 2840W        W18914   5.857  14.638   0.688 -0.0790  0.2398 -0.0127
 2841W        W18915   4.224  14.341   3.993  0.0888 -0.3280  0.0323
 2842W        W18916  14.405  17.706   4.808  0.0076 -0.2062 -0.2788
 2843W        W18917   8.422  12.317   0.615 -0.1944 -0.0268 -0.0849
 2844W        W18918   0.607   3.572   2.662 -0.0327 -0.0640 -0.5076
 2845W        W18919   3.680  12.237   4.675  0.3593 -0.2322  0.0728
 2846W        W18920   3.737  10.460   2.107  0.5133  0.2475  0.1242
 2847W        W18921   7.482  13.966  14.302 -0.0219  0.0901  0.2637
 2848W        W18922  10.616   3.968   2.249 -0.1126  0.1325  0.1558
 2849W        W18923   1.628   7.983   2.024 -0.0076 -0.2277  0.1988
 2850W        W18924   0.922  17.673   2.180  0.0250 -0.1220  0.1331
 2851W        W18925  13.321  11.772   5.359  0.1539 -0.2031  0.1550
 2852W        W18926   5.968   8.121   4.748  0.1963  0.0522  0.2361
 2853W        W18927   6.060   4.901  14.580  0.0548 -0.0568 -0.3994
 2854W        W18928  15.683   6.171  11.960  0.1327  0.1256  0.2239
 2855W        W18929   7.922   7.756  14.720  0.1103  0.0758  0.0386
 2856W        W18930   8.055  13.155  11.801  0.1269  0.0642  0.0106
 2857W        W18931  15.135   5.183  15.238  0.1123 -0.1164  0.0590
 2858W        W18932   7.121   6.598   2.670 -0.1057  0.0003 -0.2277
 2859W        W18933   1.804  16.971  12.860 -0.1041  0.1329 -0.0902
 2860W        W18934   1.941  13.520   3.725 -0.1767 -0.0676 -0.1088
 2861W        W18935   6.580   3.294   4.979 -0.0756 -0.1502 -0.0211
 2862W        W18936   4.350  14.605   4.443 -0.1656  0.1510 -0.0682
 2863W        W18937  12.534   7.286   2.049 -0.0086  0.1287 -0.1604
 2864W        W18938  10.501  11.293  13.629  0.1102  0.0798 -0.0058
 2865W        W18939   8.088   8.310  14.577  0.0832  0.0330 -0.0645
 2866W        W18940  10.605   8.738   1.137  0.1109  0.0467  0.1487
 2867W        W18941  11.282   8.869   2.766 -0.4489  0.1115 -0.1736
 2868W        W18942   2.490   5.921   2.746 -0.1153 -0.0059 -0.1462
 2869W        W18943  16.490  16.978   6.084 -0.1406 -0.0353  0.2247
 2870W        W18944  14.419  15.388   2.973 -0.1513  0.0312 -0.1647
 2871W        W18945  15.685   3.129   0.970 -0.2875  0.2742  0.0018
 2872W        W18946  16.371  12.374  15.242  0.3322  0.1001 -0.0756
 2873W        W18947   9.728   7.506   3.011 -0.0714  0.0021  0.1078
 2874W        W18948   3.413  11.876  12.083 -0.1842  0.2168 -0.2546
 2875W        W18949  12.112   9.151   3.954  0.1828  0.0892 -0.1297
 2876W        W18950   6.647   7.358   4.153  0.2034  0.3377 -0.3919
 2877W        W18951   7.619   1.476   5.573  0.1124 -0.2169  0.0800
 2878W        W18952  15.575   5.106  11.340  0.2755 -0.0882 -0.2166
 2879W        W18953  16.402  13.846  13.660  0.1412 -0.1086  0.2710
 2880W        W18954  12.725  10.358  14.690 -0.0811 -0.2949  0.2973
 2881W        W18955   7.000   0.055   5.538  0.3257 -0.0571 -0.1552
 2882W        W18956   5.462  12.428   0.059 -0.0411  0.1239  0.1075
 2883W        W18957  11.507   3.404   2.300  0.0675 -0.0992 -0.0906
 2884W        W18958   3.545   6.335  16.035  0.2308  0.1545 -0.0301
 2885W        W18959   0.832  11.851  16.179 -0.0135 -0.0048 -0.1298
 2886W        W18960   6.401  12.606  14.768 -0.2384 -0.1034 -0.0730
 2887W        W18961  15.009   9.949  14.168 -0.1184  0.1222  0.2464
 2888W        W18962  12.837   4.400   0.714 -0.2195  0.0068  0.0960
 2889W        W18963  10.502  15.238   5.229  0.0729  0.0138  0.2831
 2890W        W18964  14.437   4.701  14.894 -0.3299 -0.3196 -0.1169
 2891W        W18965  15.430   7.263  12.935  0.2046 -0.1503 -0.0924
 2892W        W18966   0.256   1.515   4.762 -0.1161 -0.0498  0.0692
 2893W        W18967  14.702  16.540  16.129  0.1090  0.2327  0.0422
 2894W        W18968   4.262   0.367   4.804 -0.0634  0.1965  0.2963
 2895W        W18969  16.504  17.443  12.542 -0.0124  0.2932  0.2586
 2896W        W18970   2.991   2.024   4.444 -0.1070 -0.1398  0.0456
 2897W        W18971   6.388   3.877   1.171 -0.0538  0.0592  0.0683
 2898W        W18972  13.841   0.599  13.691  0.0956 -0.1663  0.0762
 2899W        W18973  12.642  11.493   0.515  0.0723  0.0288 -0.6002
 2900W        W18974   0.587  12.919  13.966 -0.1919  0.1086 -0.0111
 2901W        W18975   7.211  10.089  12.379  0.0493 -0.0942 -0.3444
 2902W        W18976  16.690   6.665  15.205  0.0216 -0.0561  0.1904
 2903W        W18977  11.347  11.691   1.749  0.0723  0.2307  0.3183
 2904W        W18978  14.266   9.849  11.060  0.3946  0.1803 -0.1970
 2905W        W18979   5.394   6.680   4.714  0.0599  0.3452  0.0909
 2906W        W18980  17.058   9.307   4.121  0.1714 -0.1055 -0.3332
 2907W        W18981  13.724  11.677  14.180  0.2537 -0.0893 -0.0972
 2908W        W18982  11.402   9.913  11.858  0.0791  0.2839 -0.0359
 2909W        W18983   5.653   9.613  15.856 -0.0837  0.2822  0.1961
 2910W        W18984  12.218   6.898   3.744 -0.2413 -0.1312  0.1156
 2911W        W18985  15.608   7.495   5.084 -0.1060  0.1934 -0.1770
 2912W        W18986  11.466  15.959   2.242  0.3009  0.0884 -0.0589
 2913W        W18987   6.262  12.538   3.504 -0.1467 -0.2673  0.3410
 2914W        W18988   7.618  12.224   1.056 -0.3798 -0.0089 -0.2271
 2915W        W18989  10.505  12.474   0.769  0.4057  0.1421  0.2324
 2916W        W18990  13.209  12.486   2.266  0.1731 -0.3738 -0.1950
 2917W        W18991  17.574  12.500  14.069  0.0508  0.2770  0.2632
 2918W        W18992   0.758   2.883   0.227  0.1786 -0.0644  0.0542
 2919W        W18993  10.897   4.030   0.280  0.0104  0.0150  0.4800
 2920W        W18994   9.965   5.314  14.913 -0.1270  0.3171 -0.0331
 2921W        W18995  13.688   7.592   0.198  0.1259 -0.2688 -0.1173
 2922W        W18996  11.123  17.225  13.786  0.0750 -0.1549  0.1505
 2923W        W18997   7.413   0.281   4.131 -0.1116 -0.1880  0.1068
 2924W        W18998   6.555  13.630   3.583 -0.1754  0.0358  0.0980
 2925W        W18999  12.385   0.904   2.889 -0.1297  0.0336  0.1238
 2926W        W19000   0.042   0.095  13.081  0.0486  0.3653 -0.0556
 2927W        W19001   3.851  14.739  13.931 -0.0950 -0.2908 -0.3093
 2928W        W19002  17.645   1.340   2.665 -0.0902  0.1571  0.0520
 2929W        W19003   6.919  10.286   2.397  0.0299 -0.2491  0.0951
 2930W        W19004   2.599   7.664   1.062  0.0014 -0.1815 -0.1980
 2931W        W19005  10.895  11.277  13.967 -0.2101  0.0474 -0.1672
 2932W        W19006  16.325  10.546   3.705  0.0732  0.3069 -0.0838
 2933W        W19007   5.333  10.341  16.268 -0.1337 -0.1669 -0.0858
 2934W        W19008   6.952   7.169  16.771  0.3749  0.3155 -0.1755
 2935W        W19009  16.840   1.194   0.234 -0.0661  0.1752  0.2609
 2936W        W19010   0.523   1.367  13.872 -0.0728 -0.1952  0.1236
 2937W        W19011  12.724   5.191  11.620 -0.3015  0.2125  0.0660
 2938W        W19012   1.583   4.781  14.294 -0.3308  0.0280 -0.2013
 2939W        W19013  10.744   1.238   3.698  0.2783 -0.1798 -0.2883
 2940W        W19014  16.162   7.470   2.600 -0.0261  0.3205 -0.0050
 2941W        W19015   8.760   6.583  15.897 -0.0723  0.0558 -0.2388
 2942W        W19016   5.047  14.776   0.271  0.0256  0.0753 -0.1241
 2943W        W19017  13.362   9.161   3.553  0.1938 -0.0446 -0.0579
 2944W        W19018   8.035   1.093  13.983 -0.0488 -0.0550  0.1098
 2945W        W19019  11.020  11.689   4.360 -0.1055 -0.1217 -0.0007
 2946W        W19020   5.316  16.516  12.240 -0.0815  0.3705 -0.0310
 2947W        W19021  10.441   2.427   5.125 -0.0647  0.1471 -0.2414
 2948W        W19022   2.840  14.502   4.972  0.1402  0.1422  0.0186
 2949W        W19023  13.829   6.245   4.326  0.0892 -0.0143 -0.1216
 2950W        W19024  17.041   4.551   1.146  0.2513  0.0803  0.0369
 2951W        W19025  11.118  11.963  13.458  0.1309  0.1733 -0.0295
 2952W        W19026   1.741  15.300  12.910  0.1481  0.0052  0.0794
 2953W        W19027  14.782   2.235  16.795  0.0583 -0.2935  0.1031
 2954W        W19028  11.738   3.695   2.696  0.0222  0.1233  0.1464
 2955W        W19029   8.953  11.480   2.086  0.0256  0.1996  0.2336
 2956W        W19030   1.507  10.939  14.336 -0.2161 -0.3681 -0.1712
 2957W        W19031   5.040   3.332  12.734  0.0977 -0.0262  0.1626
 2958W        W19032   1.056  15.762   1.264  0.4384  0.0071 -0.1352
 2959W        W19033  15.167   4.315  12.479  0.0672 -0.1244 -0.1471
 2960W        W19034   6.792  11.487  13.403 -0.0937  0.1419 -0.2265
 2961W        W19035   8.637  11.305   5.306 -0.1471  0.0972  0.0202
 2962W        W19036   8.688   6.442   4.432 -0.0712  0.0083  0.2619
 2963W        W19037   5.897   4.317  12.834 -0.0892 -0.1610  0.1586
 2964W        W19038  12.703   0.242   2.668  0.3600 -0.3578  0.2569
 2965W        W19039  12.426   0.021  14.699 -0.2225  0.1655  0.1402
 2966W        W19040   0.208   3.380   3.485 -0.0505  0.0220 -0.3521
 2967W        W19041   7.120   0.557  13.223  0.2148  0.2674  0.1445
 2968W        W19042   7.276   4.560   2.078  0.0511  0.1775  0.1880
 2969W        W19043   9.848  16.407   0.787  0.0379 -0.2129 -0.0034
 2970W        W19044   6.685   6.338   2.642 -0.1449  0.2457  0.2056
 2971W        W19045   0.600   1.075  16.682  0.0648  0.2298  0.0331
 2972W        W19046   8.052  12.154  11.570 -0.0111  0.0071  0.2024
 2973W        W19047   6.078   2.923   2.149 -0.1600 -0.0639  0.0376
 2974W        W19048   4.144  17.561  12.909  0.1725 -0.1024  0.0472
 2975W        W19049   5.214   7.649  16.396  0.4539 -0.1856 -0.1526
 2976W        W19050   9.402  11.569   4.963 -0.1693  0.0987 -0.1273
 2977W        W19051   1.939  10.985   5.359  0.3338  0.3116  0.0069
 2978W        W19052  15.737   9.771  15.360  0.1084  0.0681  0.0549
 2979W        W19053  10.755  13.961  16.823  0.1239  0.0403  0.1073
 2980W        W19054  16.510   1.730   2.713 -0.4391 -0.0537 -0.0628
 2981W        W19055  13.580   9.779  15.470 -0.2640 -0.1868  0.1676
 2982W        W19056   1.520   1.952  14.682 -0.0901 -0.4239 -0.0189
 2983W        W19057  17.316  13.282   4.786 -0.0011  0.0927  0.1483
 2984W        W19058  12.404   7.288   1.438 -0.0031  0.0869  0.0694
 2985W        W19059  14.040   8.755   0.988 -0.1628 -0.3169  0.0980
 2986W        W19060  10.859   9.266   4.883 -0.0001 -0.1864  0.0421
 2987W        W19061  14.511   2.548  15.411  0.4088 -0.2154 -0.2832
 2988W        W19062   7.312  11.621   1.126 -0.1048  0.2851 -0.0933
 2989W        W19063   5.474   4.155   4.069  0.1508  0.0186 -0.0155
 2990W        W19064  13.777  16.030  16.767 -0.1169  0.2464  0.2530
 2991W        W19065  15.575  13.062  17.134  0.0791 -0.1613 -0.3485
 2992W        W19066   7.743  11.312   1.727  0.1749  0.0509 -0.0150
 2993W        W19067  16.944   8.763   3.831  0.1306  0.3750 -0.1277
 2994W        W19068   6.785  16.866   4.631 -0.1003  0.0643  0.0450
 2995W        W19069   1.650  17.073   4.815 -0.2499 -0.2086 -0.1483
 2996W        W19070  13.108   1.392   0.717  0.2657 -0.0855  0.1425
 2997W        W19071   4.087   7.523  15.150 -0.1044  0.2025  0.0628
 2998W        W19072   1.105   3.975  15.336  0.1021  0.2226  0.0647
 2999W        W19073  15.957   7.079   0.529 -0.1301  0.2891  0.1587
 3000W        W19074   1.016  11.842   2.326 -0.2651  0.1697 -0.0567
 3001W        W19075   8.308   1.408  15.755 -0.0701  0.1396 -0.0091
 3002W        W19076   8.864   1.651  11.896 -0.2130 -0.2541 -0.0504
 3003W        W19077  15.573   8.030   5.435 -0.1410  0.0293  0.0134
 3004W        W19078  17.135   5.889  14.939  0.0806  0.0705 -0.0131
 3005W        W19079  11.103  11.389   6.282 -0.2290  0.0816  0.0802
 3006W        W19080   1.994  14.285  12.867 -0.0314  0.1306 -0.0600
 3007W        W19081  16.373   6.582   3.738  0.0645 -0.0749 -0.1596
 3008W        W19082  11.451  14.868   1.511 -0.2250  0.0038  0.4319
 3009W        W19083   5.059  10.742  16.066 -0.3014 -0.2675 -0.2547
 3010W        W19084   3.798   7.822  14.871  0.1793 -0.0027 -0.1139
 3011W        W19085   9.356  15.816   4.937 -0.0467  0.0818  0.0781
 3012W        W19086   4.235   1.287  16.905 -0.1399  0.0496  0.0978
 3013W        W19087   6.082  17.514  13.442 -0.0220 -0.2058  0.2268
 3014W        W19088   5.396   2.264  14.793 -0.1786 -0.1316 -0.1994
 3015W        W19089  12.806   3.212   2.380 -0.0846  0.0163  0.1725
 3016W        W19090   1.222   8.189  12.659  0.0939 -0.0987 -0.0044
 3017W        W19091   5.645  11.598  12.356  0.0791  0.1604  0.0539
 3018W        W19092  17.244   4.352  11.843 -0.0006  0.2331 -0.0332
 3019W        W19093   9.266  16.741  13.917 -0.0759 -0.0372 -0.0990
 3020W        W19094   3.406   4.239   4.249  0.0051 -0.2354 -0.1531
 3021W        W19095  12.638   3.481  14.786  0.1342 -0.0097  0.1740
 3022W        W19096  13.680   3.950  14.873 -0.2171  0.1170  0.1438
 3023W        W19097  11.036   8.287   2.207 -0.1601 -0.0672 -0.1767
 3024W        W19098  12.088  10.031  13.407  0.0560 -0.1778  0.1071
 3025W        W19099   9.542  15.551   6.591  0.2047 -0.3438 -0.0312
 3026W        W19100  14.698   1.364  12.697 -0.2380 -0.3033 -0.1003
 3027W        W19101   3.540  17.566   0.988 -0.0944  0.0896  0.2044
 3028W        W19102   3.782  12.812  14.870  0.0499 -0.0733  0.1852
 3029W        W19103  11.595   4.988   3.804 -0.1528 -0.0263  0.2335
 3030W        W19104   6.108   4.720  11.927 -0.0377 -0.0720  0.1560
 3031W        W19105  11.812   6.110   1.745 -0.2399 -0.1393  0.1277
 3032W        W19106   0.988  14.399   4.904  0.1297 -0.0228 -0.1847
 3033W        W19107   3.646   7.151  13.477  0.1567  0.0324  0.7191
 3034W        W19108   4.343   4.846  15.462  0.1416 -0.0839 -0.0530
 3035W        W19109   9.448   9.067   1.663  0.1143 -0.1563 -0.4516
 3036W        W19110  13.773  15.407  16.886 -0.1545 -0.0546  0.0281
 3037W        W19111   4.996  15.786  15.166 -0.0702 -0.0465 -0.0227
 3038W        W19112  15.827   6.532   5.908 -0.1169  0.1124  0.1515
 3039W        W19113  14.212  15.876   5.111  0.0275  0.0744 -0.1679
 3040W        W19114  13.909  15.456  11.873 -0.4450 -0.1316  0.1658
 3041W        W19115   7.182   8.747  12.086 -0.1134 -0.2217 -0.0050
 3042W        W19116   3.494  11.950  17.098 -0.2181 -0.0126  0.2389
 3043W        W19117   2.043  14.458   2.932 -0.4819 -0.0590 -0.0113
 3044W        W19118   3.202   2.138  12.088  0.1063  0.0275 -0.2400
 3045W        W19119  13.740   5.843   1.128  0.2911 -0.1122  0.2066
 3046W        W19120   2.177   2.373  14.275  0.0562 -0.1873  0.1008
 3047W        W19121  15.593   5.145   1.325 -0.2774 -0.0173  0.1764
 3048W        W19122   7.912  16.105  15.768 -0.1990  0.0511 -0.0349
 3049W        W19123   4.157   0.945   5.128 -0.0040  0.0440  0.0852
 3050W        W19124   6.255   3.738   4.251 -0.1501 -0.0792 -0.3670
 3051W        W19125  16.393   9.237   6.431  0.0846  0.4059 -0.0765
 3052W        W19126   7.876   0.393   2.157  0.0672  0.1676  0.1304
 3053W        W19127   9.950  16.151   1.286 -0.0070  0.0099 -0.0648
 3054W        W19128  10.897  11.536  13.444 -0.0221 -0.2692 -0.1068
 3055W        W19129  16.306  16.597  12.566 -0.2237 -0.3152 -0.0409
 3056W        W19130  11.338   5.112  13.320  0.0976 -0.1931 -0.0250
 3057W        W19131   7.682  11.919   0.228  0.0193 -0.0731  0.2266
 3058W        W19132  10.800   4.850   4.388 -0.0868  0.0296 -0.4589
 3059W        W19133   1.447   2.620  12.936  0.3391 -0.0097  0.1593
 3060W        W19134   3.860   2.267  12.748  0.0631 -0.1412 -0.0140
 3061W        W19135   7.527  15.150   1.755 -0.0154  0.0210  0.2165
 3062W        W19136  11.154   1.644   5.533  0.0985 -0.1418  0.0815
 3063W        W19137   5.966   1.280  16.715  0.0331 -0.4583 -0.3116
 3064W        W19138   3.379   8.752   3.544 -0.0446 -0.1948 -0.1771
 3065W        W19139  10.954  13.110   4.610  0.0145  0.1082 -0.2658
 3066W        W19140   2.183   0.850  12.838  0.2067  0.1267  0.3849
 3067W        W19141   7.046  13.413  15.645  0.0070 -0.0855  0.1162
 3068W        W19142   2.427  17.290   3.938  0.3230  0.1158 -0.0946
 3069W        W19143   1.315   6.589  14.376  0.0894 -0.0295 -0.0511
 3070W        W19144  10.263   1.304   4.031  0.1447  0.0038  0.0768
 3071W        W19145   7.483  10.920  14.522  0.0179  0.2963 -0.0945
 3072W        W19146  15.224  10.912   2.179  0.2220  0.1278 -0.3059
 3073W        W19147  14.687   8.263   3.077 -0.1229 -0.1897 -0.0660
 3074W        W19148   9.514  15.507   2.951 -0.0143 -0.0326  0.2485
 3075W        W19149  10.694   6.122  16.406 -0.2470  0.0447 -0.1675
 3076W        W19150  13.620   2.359  15.786 -0.0938 -0.0961 -0.2572
 3077W        W19151  10.690  15.807  14.666 -0.0816 -0.0271 -0.4029
 3078W        W19152   4.079   7.859   1.199 -0.0933 -0.0816 -0.0080
 3079W        W19153   2.850  14.778  13.126 -0.1437 -0.0217 -0.1288
 3080W        W19154   7.487   3.652   1.570  0.2803  0.4460  0.1627
 3081W        W19155   3.149  12.243   3.009  0.0735  0.1144 -0.3316
 3082W        W19156   8.086   3.772   5.450  0.0499 -0.2128  0.0517
 3083W        W19157  14.876  13.715   3.363  0.0854 -0.0560  0.2425
 3084W        W19158   9.969   4.158  12.001  0.1104 -0.3628 -0.1339
 3085W        W19159  17.133   6.387  12.695  0.0049 -0.0783  0.1609
 3086W        W19160  16.213  10.295   3.223  0.0455 -0.0097  0.0756
 3087W        W19161  10.534  11.949  15.954  0.2567 -0.1655  0.1246
 3088W        W19162   3.466   2.450   1.363 -0.2067  0.1007  0.4605
 3089W        W19163   5.087  16.410  12.707 -0.3773 -0.0205 -0.1522
 3090W        W19164   9.908  16.715  15.056  0.0008 -0.0324 -0.0848
 3091W        W19165  10.768   9.829   3.906  0.0157  0.1947  0.0685
 3092W        W19166  16.603   7.779  13.449 -0.1981  0.0058 -0.0157
 3093W        W19167   6.577   5.796  14.079  0.0577  0.1314 -0.0106
 3094W        W19168  11.851  11.836   1.644  0.1485 -0.0762  0.2218
 3095W        W19169  11.041   3.571  13.044 -0.2800 -0.1921 -0.1376
 3096W        W19170   7.318   5.961  16.633 -0.1508  0.2371 -0.0416
 3097W        W19171   6.633   8.146   5.027  0.0923  0.2396  0.1009
 3098W        W19172   4.061  16.284   1.068 -0.1127  0.2477  0.2220
 3099W        W19173   8.045   1.450  13.103  0.0672  0.1010 -0.1303
 3100W        W19174   2.947  14.967   6.056 -0.0719 -0.0641  0.0160
 3101W        W19175  11.665  12.286   3.409 -0.2573  0.2784 -0.2734
 3102W        W19176  16.235   9.327  13.219 -0.3034 -0.1544 -0.0892
 3103W        W19177   9.215   0.879   3.098  0.2008  0.1915  0.1440
 3104W        W19178   3.443  10.560   1.618  0.0804 -0.0471  0.0214
 3105W        W19179  13.213   0.276   2.687 -0.0156  0.0873  0.0510
 3106W        W19180   5.334   2.163   4.709  0.4313 -0.1180 -0.2854
 3107W        W19181   8.445   7.930  12.488  0.0131 -0.1880 -0.0865
 3108W        W19182   4.300   9.673   4.179 -0.0665  0.2771 -0.1181
 3109W        W19183  16.571  13.174   1.414 -0.1102 -0.2036  0.0308
 3110W        W19184   6.757   5.608   3.119 -0.2335  0.2723 -0.0209
 3111W        W19185  13.765   7.149  12.210  0.1060 -0.0520  0.0489
 3112W        W19186   8.432  11.200  16.793 -0.0447  0.0314 -0.1111
 3113W        W19187   1.490  10.707  15.961  0.0137 -0.2414  0.1159
 3114W        W19188   0.596   8.681   0.891 -0.1599  0.1236 -0.1072
 3115W        W19189   3.340  12.038  12.867  0.4993  0.2963 -0.1801
 3116W        W19190   2.131   2.349  13.109  0.0505 -0.0387  0.1051
 3117W        W19191   4.987   0.328  15.522 -0.3608 -0.1554  0.1602
 3118W        W19192  17.349  12.536   0.416 -0.1985 -0.1305 -0.1747
 3119W        W19193   6.008   7.267   2.990 -0.0291 -0.1817  0.2273
 3120W        W19194  11.201   1.065  14.087  0.1282  0.0375 -0.1108
 3121W        W19195  17.345   6.291   4.681 -0.0968 -0.1064  0.2479
 3122W        W19196  15.687  11.528  16.890  0.3314  0.3007 -0.1305
 3123W        W19197   9.489   1.282  15.078  0.1005 -0.0292 -0.0538
 3124W        W19198   6.523   2.844   4.763 -0.1722 -0.0083  0.0261
 3125W        W19199  16.097   1.028   1.721  0.2563 -0.2435 -0.0785
 3126W        W19200  12.470   4.807   1.786 -0.2299  0.3352 -0.5041
 3127W        W19201   2.775  16.322   3.018 -0.0126  0.0522  0.0331
 3128W        W19202   7.365   7.645  13.947  0.2059  0.0367  0.0420
 3129W        W19203   4.132  14.438  13.268  0.1382  0.2761  0.0946
 3130W        W19204  13.123  14.610   0.747 -0.1782 -0.1439 -0.1017
 3131W        W19205   6.793   9.909   5.930  0.1490  0.0153 -0.2876
 3132W        W19206  16.826  13.849  13.908 -0.0269 -0.0523  0.1565
 3133W        W19207   6.866   7.645   0.603 -0.1587  0.0550  0.1865
 3134W        W19208  15.591   3.419  14.522  0.2021 -0.2547 -0.3846
 3135W        W19209  15.033  12.326  13.770 -0.0204 -0.0056 -0.0732
 3136W        W19210   6.452   2.446   2.038  0.2694  0.0249  0.1603
 3137W        W19211   9.656   5.440   1.556 -0.0296  0.2444  0.0074
 3138W        W19212   2.448  12.067  13.639  0.1004  0.0893 -0.0495
 3139W        W19213  13.040  16.262   3.377  0.2499 -0.0560 -0.3623
 3140W        W19214  16.479  13.332  13.613 -0.0892  0.0919 -0.4043
 3141W        W19215   7.948  11.111  15.257  0.4408  0.1518 -0.1196
 3142W        W19216  11.808  10.164  15.808 -0.3076  0.1414 -0.1315
 3143W        W19217   7.856   3.959   0.921 -0.0256  0.1029  0.0553
 3144W        W19218   7.580  15.557  15.677 -0.1319 -0.0024 -0.1290
 3145W        W19219   7.134   9.643   4.684 -0.0772  0.1283 -0.1361
 3146W        W19220   6.996  10.227  15.213  0.0503 -0.0328 -0.1283
 3147W        W19221   6.027   7.176  15.040  0.0572 -0.2066  0.0397
 3148W        W19222   6.480  10.262  10.898  0.1444 -0.2354 -0.0498
 3149W        W19223   3.141   4.616  12.158 -0.0100  0.0575  0.0884
 3150W        W19224   4.660  12.241  15.010 -0.0183 -0.0780 -0.1493
 3151W        W19225  13.907  17.701   2.110  0.0286 -0.0072  0.0290
 3152W        W19226  16.358   3.205  16.400  0.3486  0.0790 -0.0077
 3153W        W19227  10.796  11.790   3.342  0.2701  0.1877  0.0779
 3154W        W19228   4.194   3.026   3.518  0.3468 -0.0155  0.0942
 3155W        W19229  14.375   4.332  16.336  0.1990  0.1373 -0.1106
 3156W        W19230   8.584  16.961   3.882  0.0848 -0.3243  0.1444
 3157W        W19231  17.590  10.041   5.523  0.1081  0.0499 -0.2503
 3158W        W19232   5.759  14.846  14.472 -0.1303 -0.4304  0.0458
 3159W        W19233  13.633  10.980  12.509  0.0140  0.1391  0.0717
 3160W        W19234  11.510   5.545   3.884 -0.1316 -0.2218 -0.1014
 3161W        W19235  15.939   4.232   4.387  0.3514 -0.1316  0.1231
 3162W        W19236  12.069   3.527  15.508 -0.1694  0.2153 -0.0349
 3163W        W19237  12.524  14.266  12.388  0.2508 -0.3168 -0.1661
 3164W        W19238  13.580  13.867  12.792  0.0020 -0.0962 -0.0816
 3165W        W19239   8.408  16.509   2.596  0.0289 -0.0697  0.0811
 3166W        W19240  12.094  15.530   3.071  0.5747  0.1192  0.0912
 3167W        W19241  15.627   7.786   1.430 -0.1761  0.1363  0.0752
 3168W        W19242   5.118   7.760  16.993  0.2489  0.1619  0.1003
 3169W        W19243  12.592  10.030  17.048  0.0554  0.0943 -0.2052
 3170W        W19244  13.554   0.164   1.697  0.0118  0.0213  0.1749
 3171W        W19245   9.039   9.319   5.119 -0.2114  0.1569 -0.0331
 3172W        W19246   2.881  15.410  14.383  0.0453  0.0486 -0.0592
 3173W        W19247   1.279   8.390  13.175 -0.0984 -0.0915 -0.4169
 3174W        W19248   2.345  10.762  15.644  0.2168 -0.0233 -0.0955
 3175W        W19249  11.551   4.414   0.970  0.1393  0.1503 -0.1276
 3176W        W19250   9.103  11.844  15.269 -0.0391  0.0003 -0.1941
 3177W        W19251   0.765   4.104   3.979  0.1078  0.4309 -0.1895
 3178W        W19252  11.560   9.240  15.748  0.0946  0.0480 -0.1051
 3179W        W19253   5.783  10.270  16.569  0.3577 -0.1091  0.2963
 3180W        W19254  12.852   4.609   2.824  0.0550 -0.2410 -0.1169
 3181W        W19255  11.767   9.399   1.508 -0.1680 -0.3438  0.0445
 3182W        W19256  16.738  15.189   4.684 -0.1550  0.2510  0.0112
 3183W        W19257  15.558  10.173   4.536  0.1148 -0.3240 -0.1367
 3184W        W19258  16.909  12.009  15.784  0.0173  0.2098 -0.1379
 3185W        W19259  12.685   4.969  14.378  0.0612  0.3107  0.1440
 3186W        W19260   4.277   9.450   1.402  0.1338  0.1312  0.0009
 3187W        W19261  11.028   3.204  12.669 -0.0309 -0.1320  0.3944
 3188W        W19262  14.609   0.727   3.571 -0.1556  0.0210  0.1629
 3189W        W19263  17.697  16.674  13.974 -0.1013  0.3696 -0.1567
 3190W        W19264   6.063  14.683   2.584  0.1862  0.4237  0.2115
 3191W        W19265  15.537  14.063   0.004 -0.0051  0.2117  0.1600
 3192W        W19266   5.512  15.707  12.122  0.0917 -0.1971  0.0292
 3193W        W19267  16.002  10.800   4.002 -0.0125 -0.0240 -0.3337
 3194W        W19268  10.919  10.063   4.334  0.2384  0.2292 -0.2601
 3195W        W19269  11.449  16.462   2.120  0.3341  0.3849  0.0656
 3196W        W19270  14.166   3.379   1.634  0.3847  0.0424  0.0803
 3197W        W19271  16.687   9.638   4.091  0.2211 -0.1802  0.0400
 3198W        W19272   0.736   5.666  15.080  0.0240  0.0224  0.2555
 3199W        W19273  12.726  13.835  12.235  0.0877  0.1155 -0.3231
 3200W        W19274  10.064   5.577  10.941 -0.1673 -0.1513  0.1230
 3201W        W19275  11.768  12.950   4.886 -0.1015  0.1308 -0.2013
 3202W        W19276  16.150  12.192  16.701  0.0701 -0.1303  0.1832
 3203W        W19277   4.997   1.684   1.336  0.3921  0.1011 -0.0844
 3204W        W19278   0.502   9.499   0.398  0.2457 -0.2996  0.0302
 3205W        W19279   2.126   3.624   4.366 -0.0737  0.0935  0.0223
 3206W        W19280  15.967  17.583  12.599 -0.1574  0.1056  0.0532
 3207W        W19281  16.112   3.225   0.592  0.0314  0.2892  0.0839
 3208W        W19282   2.626   5.616  15.982  0.0035 -0.0006  0.0542
 3209W        W19283  12.887  10.414  12.850 -0.2796  0.2235  0.0033
 3210W        W19284   9.340   5.287  14.641 -0.0272 -0.2721 -0.0058
 3211W        W19285  17.067   6.556   4.249  0.2057  0.0565 -0.0602
 3212W        W19286   5.347  15.900  12.840  0.0579  0.0506  0.4306
 3213W        W19287   1.670   1.410   5.469  0.0071 -0.1292  0.0705
 3214W        W19288   9.677  15.701   1.361 -0.2371 -0.0717  0.1182
 3215W        W19289  14.545   4.308  14.611  0.0842 -0.1003  0.1544
 3216W        W19290   8.800  16.649  15.488  0.1323  0.0615  0.1767
 3217W        W19291   2.789  14.531  16.069 -0.0151 -0.2816  0.0179
 3218W        W19292  10.602  13.404   3.472  0.0091  0.3034 -0.0076
 3219W        W19293  17.689   2.302   4.284  0.0153  0.1285  0.1171
 3220W        W19294   4.561  10.935  14.322  0.0076  0.1850 -0.0301
 3221W        W19295   6.498   0.673   3.257 -0.0689 -0.0199  0.2848
 3222W        W19296   6.916   7.324  13.956  0.0646 -0.2642  0.1247
 3223W        W19297   5.385  17.107  12.222 -0.2566  0.0741  0.0682
 3224W        W19298   6.357  10.112  14.304  0.0610 -0.2675 -0.1971
 3225W        W19299   3.230   0.112   4.676  0.1953  0.1041  0.3369
 3226W        W19300   5.971   7.187  16.882  0.1969 -0.1271  0.2630
 3227W        W19301  16.176  14.152   5.513 -0.1527 -0.1870  0.4502
 3228W        W19302   9.041  11.784  12.342  0.1047  0.1519  0.2010
 3229W        W19303   7.529   9.603  14.168 -0.2528 -0.2045  0.0662
 3230W        W19304   0.092   1.360   4.318  0.2467 -0.1090  0.2158
 3231W        W19305  13.524   1.214   0.426 -0.2357  0.2063  0.0850
 3232W        W19306  12.643   2.005   4.572 -0.1065  0.1424  0.0026
 3233W        W19307  17.603   0.528   2.498 -0.0268 -0.0814  0.2652
 3234W        W19308  15.927   8.281   2.128  0.1029  0.1408  0.3946
 3235W        W19309   5.741   7.808   5.269  0.2870 -0.2437  0.0257
 3236W        W19310  12.490  13.987   0.280  0.0936  0.1115 -0.2545
 3237W        W19311   3.634  16.717  11.829  0.3242  0.1207  0.1738
 3238W        W19312   9.806   2.110  13.924 -0.0250  0.0034 -0.4185
 3239W        W19313   9.849   3.264  15.601 -0.1075  0.0195  0.1806
 3240W        W19314  14.127   3.784  14.695  0.1082 -0.1735 -0.0815
 3241W        W19315  15.557   8.327  16.161 -0.0623 -0.0658  0.2407
 3242W        W19316   8.223   0.214  15.691  0.0375 -0.3517 -0.0362
 3243W        W19317   1.329   5.616  12.376 -0.1055  0.0954 -0.0666
 3244W        W19318  17.457   4.063   1.136 -0.0507 -0.6076 -0.1068
 3245W        W19319  16.706   3.134  15.448  0.2013 -0.5006  0.3282
 3246W        W19320   7.432   6.536   4.121  0.2732  0.0914 -0.0753
 3247W        W19321   8.146   3.795   4.206  0.2777 -0.3623  0.0329
 3248W        W19322  12.117  13.843   3.535 -0.1425  0.0039 -0.2936
 3249W        W19323   6.602   9.676  14.457  0.1588  0.0886 -0.0387
 3250W        W19324  13.310  17.407   3.837 -0.1648  0.1298 -0.1918
 3251W        W19325  14.224   5.534  15.276  0.0585  0.0637 -0.1122
 3252W        W19326   7.959   6.240   0.322  0.2210  0.1554  0.0243
 3253W        W19327   4.195   7.960  12.788  0.2010 -0.1229 -0.0366
 3254W        W19328  17.251  10.697  12.514 -0.1147  0.3650 -0.1401
 3255W        W19329   3.192   9.490  14.191  0.2433 -0.0893  0.0054
 3256W        W19330  13.834  15.667  16.448  0.1324 -0.2646 -0.1127
 3257W        W19331   3.493  17.678  17.034  0.1487 -0.1765  0.0507
 3258W        W19332  13.138   2.931   2.147 -0.0472  0.0272  0.1009
 3259W        W19333  16.835  12.392  13.622  0.1183  0.0039  0.1742
 3260W        W19334   4.584  13.001   2.900  0.1233 -0.1621  0.0960
 3261W        W19335   2.343  10.759  14.627  0.0133  0.0412 -0.1224
 3262W        W19336  17.214   9.736   4.302  0.4466  0.0251  0.1116
 3263W        W19337  16.089   1.121  12.142  0.1276 -0.0349  0.0721
 3264W        W19338  17.122   1.104   0.713 -0.0943 -0.0437 -0.3017
 3265W        W19339  12.362  14.467  15.373  0.3275  0.3008  0.0509
 3266W        W19340   0.200  12.614  12.473  0.1037 -0.0088 -0.2898
 3267W        W19341   8.412  14.082  15.844 -0.1297  0.0705  0.2283
 3268W        W19342   1.538   2.781   2.707 -0.3418  0.1438  0.2103
 3269W        W19343   7.836   0.934  13.561 -0.1351  0.0160 -0.1385
 3270W        W19344  15.161   2.929  12.903 -0.1563  0.1515 -0.2379
 3271W        W19345  15.514   8.200  11.044 -0.1708  0.4272 -0.2784
 3272W        W19346   4.419   4.055  12.996 -0.2428  0.0481  0.3776
 3273W        W19347   1.567  15.858  13.888  0.3124  0.0452  0.2062
 3274W        W19348  15.235   1.543  14.946 -0.1448  0.0315  0.1475
 3275W        W19349  17.453  15.737  12.518 -0.1937  0.1936  0.0665
 3276W        W19350  12.794   6.650  14.561 -0.2689  0.4671 -0.1341
 3277W        W19351   5.237   8.662  15.989 -0.0739 -0.3789 -0.1495
 3278W        W19352   6.677  13.321   4.964  0.3148  0.0958 -0.1158
 3279W        W19353   7.863  15.571   3.200 -0.0427 -0.3308  0.0219
 3280W        W19354  16.452   1.256  15.508  0.1907  0.1788 -0.0911
 3281W        W19355   9.012   1.281   0.490  0.2124  0.1515 -0.0859
 3282W        W19356  12.898  13.783  14.135 -0.1097 -0.1822  0.1348
 3283W        W19357   6.175   6.000   0.207 -0.0953 -0.1244  0.0997
 3284W        W19358  13.016  17.361   3.310  0.3463 -0.1749  0.1844
 3285W        W19359   2.434   2.499   3.079 -0.1474 -0.0479  0.1058
 3286W        W19360   6.275   9.293  15.255 -0.0127  0.1595 -0.0932
 3287W        W19361   8.926   9.676   5.888  0.1140 -0.2437  0.4056
 3288W        W19362   6.285   2.604   1.034 -0.0469 -0.0905 -0.1132
 3289W        W19363  10.658   2.197  12.737 -0.0525  0.0812 -0.2951
 3290W        W19364  10.875  16.471   3.897 -0.3078 -0.2006 -0.1463
 3291W        W19365  12.556  14.837  13.838 -0.1985  0.4365 -0.1982
 3292W        W19366  12.915   5.318   3.459 -0.5582 -0.0183 -0.2282
 3293W        W19367   6.231  16.548  12.094  0.4383 -0.1011  0.0302
 3294W        W19368  12.212   7.632  15.211 -0.1628 -0.4189  0.3385
 3295W        W19369   0.192   5.007  14.190  0.1560 -0.1351  0.1655
 3296W        W19370   7.404  16.610   5.587 -0.0883  0.1413 -0.2866
 3297W        W19371  10.607  11.043  16.175  0.0563  0.2172 -0.0124
 3298W        W19372  14.993   5.568   3.727 -0.0012 -0.0138  0.0815
 3299W        W19373   3.638  10.519   5.094 -0.0749  0.0639  0.0751
 3300W        W19374   2.255  11.255  16.924 -0.1328 -0.1798 -0.3747
 3301W        W19375   8.037  13.494   0.199 -0.0460 -0.0518 -0.1607
 3302W        W19376  17.196  11.185  12.452  0.1018  0.1190  0.0543
 3303W        W19377   8.278  10.575   0.096  0.0580  0.0513 -0.3058
 3304W        W19378   6.192  11.394   2.581 -0.0699  0.1630 -0.0272
 3305W        W19379   9.485   2.075   4.047 -0.1006  0.0592  0.0780
 3306W        W19380  11.652  12.920  12.400 -0.0281 -0.1572  0.1402
 3307W        W19381  17.677   1.891  15.760  0.0731 -0.0484 -0.1481
 3308W        W19382  11.576  17.443   3.258  0.1344 -0.2785  0.1795
 3309W        W19383   1.309   1.830  13.643  0.1104  0.0539 -0.0604
 3310W        W19384   4.555   6.154  12.167 -0.0588 -0.1527  0.0746
 3311W        W19385  15.571   7.020   1.074  0.0602 -0.1126 -0.0338
 3312W        W19386   7.286   7.907  16.360  0.1059  0.0352 -0.1765
 3313W        W19387  14.418   9.710   1.873  0.0787  0.1325 -0.3422
 3314W        W19388  16.174   5.939  12.130 -0.0243 -0.0709 -0.0765
 3315W        W19389   4.400   9.410   3.047  0.3798  0.0581  0.0494
 3316W        W19390   2.274   5.093  13.169 -0.1264  0.2342 -0.1322
 3317W        W19391   9.082   3.986  14.107 -0.1283 -0.1080 -0.0065
 3318W        W19392   0.418   3.077  16.998 -0.1989  0.2077  0.1357
 3319W        W19393  10.547   0.942  11.917  0.0217 -0.0712  0.2797
 3320W        W19394  15.819   7.696   0.263 -0.1658 -0.2981  0.2408
 3321W        W19395   5.441   5.617   4.952  0.2825  0.1742 -0.0134
 3322W        W19396   4.547  17.363  16.633 -0.2008 -0.1643 -0.0279
 3323W        W19397   0.777   2.659   1.957 -0.0404 -0.0505 -0.1797
 3324W        W19398  14.046   7.314   3.365 -0.0037  0.0783 -0.0844
 3325W        W19399   6.598  15.990   2.670  0.2227 -0.4981 -0.1447
 3326W        W19400  13.772   0.410   3.009 -0.1852  0.3178  0.1251
 3327W        W19401   2.515   6.878   0.042 -0.0911  0.1875  0.1210
 3328W        W19402   0.522   6.013  16.574 -0.1871 -0.0180 -0.2556
 3329W        W19403   3.794   5.296  12.064 -0.0900 -0.0652 -0.0041
 3330W        W19404   2.647  12.387  13.196  0.0156 -0.2415 -0.0677
 3331W        W19405  16.016  13.634   1.916 -0.0221  0.2151  0.0638
 3332W        W19406  11.198   8.695   4.169  0.3034  0.0541  0.0117
 3333W        W19407   9.783   4.329  14.888 -0.0056 -0.0643  0.1021
 3334W        W19408   5.690   4.955   2.429 -0.0496  0.1132 -0.2941
 3335W        W19409  12.833   3.016  14.790 -0.0993 -0.2193 -0.2386
 3336W        W19410  12.286   0.184  17.020  0.0264  0.1065  0.1325
 3337W        W19411  12.904   1.261  12.331 -0.0230  0.0343 -0.2539
 3338W        W19412  11.032  13.131   5.634 -0.1456 -0.3345  0.0295
 3339W        W19413   7.044  12.758   3.609 -0.1084  0.1176  0.0313
 3340W        W19414   2.639   4.946  15.624  0.2678 -0.0485 -0.1744
 3341W        W19415  11.589   7.241   4.491 -0.1319 -0.2466 -0.1671
 3342W        W19416   9.984  17.732  16.530  0.1022  0.1510  0.0474
 3343W        W19417   4.363  10.236  12.276  0.0702  0.2420 -0.2344
 3344W        W19418   0.155  13.977   1.282  0.0052 -0.1219 -0.2377
 3345W        W19419   7.566  10.862   4.086  0.0355  0.2261 -0.2209
 3346W        W19420   8.736  10.795   4.985 -0.0676 -0.2449 -0.0608
 3347W        W19421  11.409   6.725   2.125  0.1265 -0.0890  0.3248
 3348W        W19422   9.132   3.976   2.570 -0.2126  0.2052 -0.1424
 3349W        W19423   3.370   2.236   3.608  0.2119 -0.1183 -0.2494
 3350W        W19424   5.264   9.780  13.741 -0.2438 -0.1932 -0.3703
 3351W        W19425  12.321   1.529  15.769  0.1626  0.0735 -0.0465
 3352W        W19426  12.231   0.635   0.331 -0.0602  0.0963 -0.1683
 3353W        W19427  12.461  17.054   4.401 -0.1983  0.2758 -0.1742
 3354W        W19428  10.334   2.760   0.061 -0.0249  0.0038  0.3464
 3355W        W19429  12.562  14.311   5.059 -0.3102 -0.0461  0.0672
 3356W        W19430   0.792  11.449  16.651 -0.3321 -0.1836 -0.0425
 3357W        W19431  15.856   4.482   6.040 -0.2568 -0.0326 -0.1268
 3358W        W19432   0.325   5.711   4.896  0.1430 -0.1400 -0.1478
 3359W        W19433  17.565   3.772   2.113  0.1285 -0.0508  0.2517
 3360W        W19434  10.885  15.309   3.907 -0.2475 -0.0844 -0.0632
 3361W        W19435   5.140  13.140   2.189  0.0062  0.0791 -0.0155
 3362W        W19436   7.630   1.628   4.127  0.1335  0.3376  0.1341
 3363W        W19437  13.743   8.810  13.138  0.2331  0.2611  0.1810
 3364W        W19438   3.107  11.622  14.198 -0.1382 -0.0050 -0.1981
 3365W        W19439  15.762  10.915   1.042 -0.0240  0.1352 -0.1152
 3366W        W19440  12.493  13.583  16.670 -0.2791  0.0819  0.0256
 3367W        W19441  14.539   5.658  13.081  0.0672  0.0251 -0.0305
 3368W        W19442   5.739   4.345  17.104 -0.1850 -0.2046  0.4014
 3369W        W19443  16.677  11.245   4.165 -0.1831 -0.0790  0.0711
 3370W        W19444  11.390   2.195   4.524 -0.0868  0.0138  0.2314
 3371W        W19445  10.399   7.462   4.880 -0.0658  0.1869  0.1214
 3372W        W19446   5.906   6.574  12.388 -0.2722 -0.2386  0.0032
 3373W        W19447   1.441  17.509  16.975 -0.1252 -0.0263 -0.1819
 3374W        W19448  14.043  16.941   2.641  0.0563 -0.0969 -0.0634
 3375W        W19449   5.610  15.886   2.986 -0.0355  0.1715 -0.4170
 3376W        W19450   1.806   1.852   5.406  0.0622  0.0516  0.1408
 3377W        W19451   5.910   1.990   2.707  0.0368  0.1277  0.3798
 3378W        W19452  11.418   8.455   1.879 -0.1079 -0.0001 -0.3479
 3379W        W19453  13.672  14.507  16.354 -0.0400  0.0817 -0.3021
 3380W        W19454   6.804  11.953  13.493  0.0666 -0.1810 -0.1597
 3381W        W19455  13.348   2.210   0.555 -0.0798 -0.0581  0.0067
 3382W        W19456   7.897  11.105  13.306 -0.0456  0.0430  0.3063
 3383W        W19457   6.018   5.056  12.313  0.0545 -0.1626  0.0689
 3384W        W19458   1.508  13.229   0.324  0.1779  0.2594  0.0137
 3385W        W19459   1.901   0.883  14.540  0.1033 -0.3115 -0.1461
 3386W        W19460  13.238   7.971   5.229  0.2165  0.0025 -0.2690
 3387W        W19461   7.332   0.601   4.807 -0.3060 -0.1920 -0.3088
 3388W        W19462  12.098  13.056   3.206  0.0159  0.0020 -0.0441
 3389W        W19463  10.297   0.478  15.336 -0.0838  0.1279 -0.0743
 3390W        W19464  16.170   4.073   4.813 -0.4310  0.0444  0.0518
 3391W        W19465   6.629   8.147   1.163  0.1422 -0.0226  0.1827
 3392W        W19466  14.579   5.956  15.405 -0.2948  0.1195  0.1899
 3393W        W19467  15.162   3.234  15.072 -0.2378 -0.2780 -0.0091
 3394W        W19468  16.005   8.461  14.430  0.0719 -0.1497 -0.0615
 3395W        W19469  11.317   3.767   5.795  0.1705  0.3357  0.1606
 3396W        W19470   2.669  14.973  12.718 -0.0197  0.1383  0.4029
 3397W        W19471  15.789   5.192  12.358  0.0616  0.1819  0.2185
 3398W        W19472   6.587  15.790   0.475 -0.0325 -0.2284 -0.0475
 3399W        W19473   1.745   3.649  16.458  0.0667 -0.1886 -0.1159
 3400W        W19474   5.818   7.104  13.295  0.2433 -0.2002  0.0591
 3401W        W19475   5.057   3.924   3.751  0.0284 -0.0811  0.4207
 3402W        W19476   1.671   8.744  13.767 -0.1209  0.2744  0.1104
 3403W        W19477   7.984   5.067  11.551  0.0980 -0.2441  0.1324
 3404W        W19478  15.156  12.324   3.380 -0.0731 -0.3597 -0.3464
 3405W        W19479   8.970  14.627  16.879 -0.0381 -0.3595  0.0630
 3406W        W19480  13.073  17.548   2.774 -0.1395 -0.0533 -0.2032
 3407W        W19481   2.736  10.823   5.969 -0.3110 -0.0721 -0.1916
 3408W        W19482  17.195   1.898   6.319  0.0427 -0.1586 -0.0161
 3409W        W19483  15.539  11.547  15.363  0.0196  0.2780  0.3646
 3410W        W19484  11.404   5.287   2.132  0.0009  0.1080 -0.1784
 3411W        W19485  16.333  14.957  13.314  0.0880 -0.0848  0.4471
 3412W        W19486  17.057  16.793   6.079  0.1576 -0.1059  0.2638
 3413W        W19487  15.357   4.942   3.136  0.2108 -0.1074  0.0246
 3414W        W19488  12.371   7.968  14.335  0.1130  0.1376  0.0483
 3415W        W19489  14.264   0.927   4.737 -0.2727 -0.1055 -0.1114
 3416W        W19490  11.254   3.684   0.019 -0.1661 -0.5250 -0.2179
 3417W        W19491   0.307  10.431  14.968 -0.1631 -0.1654 -0.1075
 3418W        W19492  10.498  14.151  11.514 -0.1504  0.4227 -0.2012
 3419W        W19493  12.408   5.501   1.960  0.3576  0.0806 -0.0494
 3420W        W19494   9.495   2.486  16.693 -0.1482 -0.0832 -0.1557
 3421W        W19495   1.675  15.017   1.740 -0.0142 -0.2049  0.1489
 3422W        W19496   7.359   4.134   2.670  0.1625 -0.1666  0.0802
 3423W        W19497   9.129   3.167  11.688  0.0526 -0.1550  0.3113
 3424W        W19498   7.501  15.540   3.580 -0.1106  0.2064 -0.1763
 3425W        W19499  15.782   0.714  16.403 -0.3066  0.1626 -0.1275
 3426W        W19500  10.560   3.901  13.257 -0.0567  0.0716 -0.0550
 3427W        W19501   1.345   9.801  16.147  0.1917  0.4197 -0.1139
 3428W        W19502   0.027  10.625  16.173 -0.3007 -0.0679  0.0778
 3429W        W19503   7.671   6.819  12.349  0.1388  0.3220 -0.1657
 3430W        W19504   8.975   3.241  15.738 -0.1288  0.0055 -0.1289
 3431W        W19505   4.045   2.126  13.503  0.0822  0.2541  0.1819
 3432W        W19506   4.016  15.391  15.751 -0.2562  0.1227  0.1924
 3433W        W19507   2.025  17.488  14.502 -0.0430  0.0465  0.3018
 3434W        W19508   0.085  13.952  12.533 -0.1175 -0.1567  0.0075
 3435W        W19509   8.676   8.793   4.527 -0.0656 -0.0313 -0.1054
 3436W        W19510  12.552  12.710  12.426 -0.0113 -0.0315  0.3710
 3437W        W19511   6.206  10.594  16.607 -0.1358 -0.2503  0.3308
 3438W        W19512   4.416   5.642   3.807 -0.0884 -0.3653  0.2996
 3439W        W19513   9.830   8.386  13.040 -0.0602 -0.1347  0.0442
 3440W        W19514  15.007   0.591  15.559  0.1595 -0.1082 -0.0621
 3441W        W19515  14.370  16.452   4.797 -0.1124  0.1039 -0.2051
 3442W        W19516   9.421  13.715   2.560  0.0816  0.1263 -0.0225
 3443W        W19517  15.721  10.364  14.576 -0.1674 -0.0281 -0.1635
 3444W        W19518   3.845   3.613   2.629 -0.0326  0.1028 -0.1026
 3445W        W19519   8.143  12.290  12.496 -0.2964  0.1017 -0.0431
 3446W        W19520  13.378  12.294   5.328 -0.2081 -0.2577 -0.4083
 3447W        W19521  17.071  12.652  13.980 -0.0891  0.0370  0.1333
 3448W        W19522   5.978   5.158  13.490 -0.1299  0.0190  0.0004
 3449W        W19523   4.535  10.320   0.415  0.0883 -0.3779 -0.0772
 3450W        W19524  17.063   5.373  15.168  0.4263  0.0061 -0.0149
 3451W        W19525   7.879   2.490   3.728 -0.2790 -0.0255 -0.1018
 3452W        W19526   5.998   8.459   1.783  0.2063  0.2645  0.1974
 3453W        W19527   9.206   0.095  11.655  0.0299  0.0806 -0.3678
 3454W        W19528  17.239  12.523   4.412 -0.0664 -0.0374  0.1057
 3455W        W19529  12.469  13.100  13.743  0.0530 -0.1213 -0.0484
 3456W        W19530  12.932  16.195   5.504 -0.1744 -0.5316 -0.1579
 3457W        W19531  14.485   8.908  16.205  0.1140  0.3098 -0.0183
 3458W        W19532   3.845   9.519  11.527  0.1840 -0.3149  0.0757
 3459W        W19533  10.306  12.075   2.120 -0.0034 -0.0897 -0.0686
 3460W        W19534   0.544  15.850  12.525 -0.1752  0.0766 -0.2823
 3461W        W19535   1.935   5.654   0.153 -0.0810  0.0516  0.1482
 3462W        W19536   1.828   2.307  13.785  0.1654  0.2081 -0.0302
 3463W        W19537   9.658   8.964   3.870  0.0884  0.1326 -0.0280
 3464W        W19538   2.928  13.458   0.876 -0.0373  0.0134  0.1393
 3465W        W19539  16.109   4.316   1.188  0.0988 -0.2987  0.0939
 3466W        W19540   6.850   8.043   0.292 -0.3366 -0.1669  0.0546
 3467W        W19541   8.413   3.086  15.881 -0.1616  0.0378 -0.0307
 3468W        W19542  15.893   2.382  15.334 -0.0402  0.0621  0.2346
 3469W        W19543  16.802   7.729  13.895 -0.0338 -0.1897 -0.0422
 3470W        W19544   0.398   0.112   2.429  0.1615 -0.0896 -0.0466
 3471W        W19545   2.755   7.136  14.862 -0.1247 -0.0032 -0.1898
 3472W        W19546  11.216   9.268   1.494 -0.0685 -0.2366 -0.1235
 3473W        W19547  13.600  16.533   1.055  0.2930  0.0275  0.0361
 3474W        W19548   8.963   3.597   5.192  0.0418  0.2693  0.1965
 3475W        W19549   7.330   6.331  13.936  0.1317 -0.0609  0.0619
 3476W        W19550   7.990   4.901   3.711 -0.4094 -0.0841  0.0822
 3477W        W19551  17.295  15.659   4.037  0.0192  0.1152 -0.1144
 3478W        W19552   6.229   4.419   6.072  0.0001  0.0314 -0.2149
 3479W        W19553  14.119  11.208   4.113 -0.1276 -0.0078 -0.0456
 3480W        W19554  12.103   6.358  15.652  0.0728  0.1460 -0.1248
 3481W        W19555  12.309  17.170   6.584  0.1571 -0.0401  0.1724
 3482W        W19556   9.336   3.448  16.850  0.1003  0.0542 -0.3613
 3483W        W19557  10.236  16.062   3.094 -0.0723 -0.0681  0.0018
 3484W        W19558   4.118   2.859  15.668 -0.1336  0.2130  0.0372
 3485W        W19559  16.604  14.794  13.960 -0.0125 -0.0820 -0.0565
 3486W        W19560  13.085   1.290  11.492 -0.0089  0.0829  0.2764
 3487W        W19561  12.941   1.544   3.289  0.0500 -0.3009 -0.2137
 3488W        W19562   9.641  12.853   4.163  0.3253  0.1087 -0.0891
 3489W        W19563  16.224  17.281   3.534 -0.2069 -0.1994  0.1726
 3490W        W19564  11.634   0.055   5.741  0.0421 -0.1564 -0.0867
 3491W        W19565  16.387   5.994   4.911  0.4495  0.1809 -0.0985
 3492W        W19566  10.977  10.289  15.280 -0.1650  0.1144  0.1096
 3493W        W19567  16.178   0.094   4.699 -0.0179  0.0084 -0.0889
 3494W        W19568   1.316   0.501  12.457 -0.2486  0.0556  0.0384
 3495W        W19569   5.793  10.076  12.795  0.2374  0.2650 -0.1522
 3496W        W19570  13.876   1.504   0.217 -0.0080 -0.2856 -0.2581
 3497W        W19571  11.311  11.169  14.414 -0.0915  0.1184  0.0399
 3498W        W19572   2.998   4.044  15.591  0.3475 -0.1520 -0.0532
 3499W        W19573  10.669   4.235   2.659 -0.0678  0.0773  0.0391
 3500W        W19574  10.583   1.417   5.287  0.0119 -0.1137  0.0133
 3501W        W19575   0.981  15.837   5.662  0.0490  0.0726  0.1069
 3502W        W19576   1.996   3.625   4.915  0.2813  0.0284 -0.0657
 3503W        W19577   2.702  12.226   4.744 -0.1327 -0.2328  0.1119
 3504W        W19578  10.504   2.919   5.177 -0.2372  0.1965 -0.0269
 3505W        W19579  13.117  11.377   2.058  0.0473  0.2157  0.1864
 3506W        W19580   1.206  17.183  11.812  0.1489 -0.0889 -0.0962
 3507W        W19581   7.381   4.638   3.531 -0.2467  0.1519 -0.4124
 3508W        W19582   1.863  14.557   1.175  0.1143  0.1981  0.0946
 3509W        W19583  10.260   0.363  13.577 -0.1776  0.1983 -0.1544
 3510W        W19584   1.260   5.374   2.383  0.0489  0.0619  0.3190
 3511W        W19585   5.623   2.208   2.145 -0.1400 -0.2110  0.2890
 3512W        W19586  17.496  13.550   4.222  0.0542 -0.0304 -0.0189
 3513W        W19587   0.885  15.104  12.811  0.1293 -0.1588  0.0844
 3514W        W19588   8.524   5.351  15.707  0.2161  0.2244  0.0898
 3515W        W19589   5.197  16.705  15.997  0.0015  0.2399  0.0313
 3516W        W19590  10.806  16.389   1.723 -0.1850  0.0595 -0.1181
 3517W        W19591  12.969   9.269  12.926 -0.0417  0.0446 -0.1247
 3518W        W19592   0.237   2.740   0.085 -0.0254 -0.0373 -0.2302
 3519W        W19593  13.674  11.054   4.012  0.0022  0.2917  0.0170
 3520W        W19594  12.792   6.156  12.530 -0.2256 -0.1902  0.1149
 3521W        W19595   4.652  14.501  13.602  0.1526 -0.0911 -0.1981
 3522W        W19596   2.725  10.124   4.726 -0.0597 -0.2101  0.1976
 3523W        W19597   6.542  17.319  12.298  0.0149 -0.1481 -0.0205
 3524W        W19598   3.419   7.961  12.142 -0.1123 -0.1273 -0.0405
 3525W        W19599  10.427  13.245   1.098  0.3957 -0.0087  0.3173
 3526W        W19600  15.721   0.165  15.246 -0.1521  0.0649 -0.0839
 3527W        W19601   0.862  10.665   1.285  0.0168 -0.1908 -0.2684
 3528W        W19602  10.830   3.747  16.312 -0.0691  0.1818 -0.2287
 3529W        W19603   4.713   7.532  12.755  0.2849  0.2457 -0.2652
 3530W        W19604   8.168  17.699  13.314 -0.0573  0.0197  0.0481
 3531W        W19605  11.980  16.026  16.103 -0.0115  0.0471  0.2095
 3532W        W19606   8.291  13.578  13.756 -0.1759  0.0941 -0.1870
 3533W        W19607   9.802   3.125  14.211 -0.0015  0.0911  0.1878
 3534W        W19608  12.939  12.612   0.594  0.1623 -0.0207 -0.3292
 3535W        W19609   3.957  10.669  16.604 -0.0053 -0.5879  0.1675
 3536W        W19610  16.941   5.691  16.209  0.2439  0.1577  0.2889
 3537W        W19611   1.237   8.111  14.937 -0.0595 -0.2838 -0.0810
 3538W        W19612   5.224   3.498   2.675  0.2492 -0.1434  0.1518
 3539W        W19613   7.599   4.087   1.311 -0.1824  0.0986  0.2348
 3540W        W19614  17.251   2.589   2.111  0.2196  0.1823 -0.1848
 3541W        W19615   4.060   0.196   2.668 -0.0762  0.1813  0.1076
 3542W        W19616   3.322   9.837  15.974 -0.1920 -0.2256 -0.2015
 3543W        W19617   9.044   4.127   1.883 -0.0609 -0.0252 -0.0285
 3544W        W19618   4.808   6.763  11.973  0.0582 -0.1276 -0.3025
 3545W        W19619   7.633  14.696   3.458 -0.0831  0.0200 -0.1144
 3546W        W19620  11.090   8.258  15.302 -0.2000 -0.2356 -0.0374
 3547W        W19621   9.458   3.271  14.598 -0.1654 -0.0948  0.1906
 3548W        W19622   9.997   1.699  16.224  0.0412  0.5013  0.1984
 3549W        W19623   1.393   3.228   3.047  0.0768  0.0466 -0.1602
 3550W        W19624  10.310   0.684   4.690  0.1021  0.0683  0.2471
 3551W        W19625   2.345   1.615   4.238 -0.0550 -0.2144  0.0083
 3552W        W19626   5.863  16.812   2.711 -0.1614  0.0429 -0.1745
 3553W        W19627   6.125  14.687   2.053  0.0921  0.0167  0.1476
 3554W        W19628   8.924   1.504   0.025  0.1651 -0.0066 -0.0068
 3555W        W19629  11.225   5.384   0.212 -0.3217  0.0168 -0.3402
 3556W        W19630   6.135  10.787  15.172  0.2948  0.2093  0.0564
 3557W        W19631   6.719  13.374  14.662 -0.1312  0.0972  0.0681
 3558W        W19632  15.011  17.444  16.224 -0.2461 -0.1322 -0.0216
 3559W        W19633   7.551  16.623  14.633 -0.0378  0.0430 -0.3081
 3560W        W19634   4.684   1.649  14.978  0.0544 -0.2266 -0.0575
 3561W        W19635  17.515  17.496   2.865  0.1339 -0.1849 -0.0104
 3562W        W19636  13.500   6.762   2.282 -0.1189  0.0314  0.2169
 3563W        W19637   6.834   5.135  11.494 -0.2001 -0.1406  0.0679
 3564W        W19638   9.397  12.109  13.719  0.1417 -0.0712  0.2155
 3565W        W19639   1.050   8.075  15.820  0.0844 -0.0343  0.0086
 3566W        W19640   4.421   3.897  11.994 -0.3837  0.1488 -0.1413
 3567W        W19641  13.988  13.541  11.902  0.0325 -0.0333 -0.0288
 3568W        W19642   0.669  15.881  16.037 -0.1640 -0.0739  0.5282
 3569W        W19643  11.021   3.619   4.067 -0.2572 -0.6647 -0.1635
 3570W        W19644  10.334   6.081   2.729 -0.2918  0.0743  0.2780
 3571W        W19645  13.319  14.155   1.686  0.1004 -0.1641  0.0422
 3572W        W19646  12.762  14.572   3.739 -0.4069  0.2753 -0.2976
 3573W        W19647  17.635   9.439   0.385 -0.0438  0.2197 -0.1384
 3574W        W19648   9.146   1.071  13.419  0.1547  0.0790 -0.0919
 3575W        W19649   1.007   5.704   0.251 -0.0944  0.0646 -0.0620
 3576W        W19650   5.211  14.309   2.136  0.1358  0.0363 -0.1930
 3577W        W19651   4.264   1.175  12.961  0.1256 -0.1747  0.0081
 3578W        W19652   5.243  10.858  13.071  0.1172 -0.0669 -0.1021
 3579W        W19653   2.986  10.338  14.395 -0.0494 -0.2542  0.2514
 3580W        W19654  10.787   1.187  14.994 -0.0794  0.0598 -0.0529
 3581W        W19655  15.821  15.572   1.816 -0.0666  0.0869  0.0220
 3582W        W19656   0.006   1.096  16.562 -0.2717  0.0028 -0.1462
 3583W        W19657   3.233   1.118   1.026  0.0793 -0.0379 -0.0122
 3584W        W19658   0.938  10.690  16.091  0.3954  0.0379 -0.0558
 3585W        W19659  11.710   2.767  12.144 -0.1273  0.0011 -0.1212
 3586W        W19660   2.528  14.025   3.541  0.0676  0.0835  0.1042
 3587W        W19661   8.942  17.467   3.944 -0.0180  0.1488 -0.1967
 3588W        W19662  15.494  15.878   1.553  0.3097 -0.0151  0.0341
 3589W        W19663   7.529   5.878   1.546  0.0890 -0.1920  0.1775
 3590W        W19664   1.165   2.453  15.882  0.0587 -0.1371 -0.2574
 3591W        W19665  10.772   0.661  12.825  0.2963  0.0280 -0.0954
 3592W        W19666   2.715   5.160  16.155 -0.0833  0.1992 -0.2233
 3593W        W19667  13.645  17.059   0.860 -0.0815 -0.2288 -0.1793
 3594W        W19668   9.674   9.445   0.015 -0.0524 -0.1046 -0.2056
 3595W        W19669   4.575  15.806   5.327  0.1083 -0.1889 -0.0136
 3596W        W19670  10.191   7.461   3.375 -0.2740  0.0225 -0.1488
 3597W        W19671  14.462  17.494  16.888  0.0336  0.1291 -0.0748
 3598W        W19672  11.049   2.213  15.440  0.0854  0.2054 -0.2943
 3599W        W19673   3.582   4.345   5.332 -0.0741  0.2216  0.1089
 3600W        W19674   0.855   9.921  14.060  0.2039  0.1779 -0.1328
 3601W        W19675  17.392  13.870  14.160 -0.2284  0.2080  0.0841
 3602W        W19676   7.489  13.901   1.440  0.1242 -0.0663  0.0310
 3603W        W19677  13.582   0.188  12.350 -0.1319  0.3211 -0.2121
 3604W        W19678   7.735   3.292  14.232  0.3420  0.0462  0.2033
 3605W        W19679   0.725   1.203   5.849 -0.0102 -0.1579  0.0926
 3606W        W19680  11.147  10.762  13.919  0.0091  0.0528 -0.2158
 3607W        W19681  13.561   9.553  13.565  0.2248  0.0690  0.4813
 3608W        W19682   2.296   3.801   0.130 -0.1295 -0.2909 -0.2441
 3609W        W19683  16.892   2.525  13.828 -0.0238  0.0116  0.1154
 3610W        W19684   1.354   7.059  16.014 -0.1377  0.0328  0.0436
 3611W        W19685   5.614   9.156   2.463 -0.3121  0.1247  0.2232
 3612W        W19686  15.023  10.553  13.006 -0.0583  0.1389 -0.1668
 3613W        W19687   6.762  11.205   6.049 -0.2506 -0.0836 -0.2170
 3614W        W19688  12.910   8.556   0.389 -0.0855  0.1758 -0.0717
 3615W        W19689   1.907   9.143  13.911 -0.0287  0.1214  0.2425
 3616W        W19690  11.917  12.505  12.571 -0.0220 -0.0263 -0.0125
 3617W        W19691  13.203  11.146  11.351  0.0275 -0.2002 -0.2347
 3618W        W19692  17.740   9.600  13.068  0.2831  0.1034  0.0936
 3619W        W19693   0.815   4.143  13.358 -0.1061  0.2086  0.0815
 3620W        W19694  10.579   9.284  16.150 -0.1838  0.0258 -0.0960
 3621W        W19695  11.900   3.538  12.524 -0.3115  0.1521  0.0008
 3622W        W19696   2.201  12.203   3.621 -0.0760 -0.2791 -0.1627
 3623W        W19697   3.378  14.387   1.797 -0.0336  0.1258  0.2386
 3624W        W19698  10.113  16.502   6.070  0.2353  0.0496  0.2467
 3625W        W19699   0.250   7.885   5.921 -0.1118  0.4189 -0.1742
 3626W        W19700  14.543  14.810   1.687 -0.3038  0.1155 -0.0745
 3627W        W19701  17.642   4.169  15.665  0.0381 -0.0806 -0.0366
 3628W        W19702   9.687  15.862   3.935  0.2847  0.1059  0.0085
 3629W        W19703   7.617  10.792   2.063 -0.0745 -0.0816 -0.1654
 3630W        W19704   2.349   2.313   1.043 -0.1664 -0.1595  0.2362
 3631W        W19705   4.377  16.102  13.352  0.0641 -0.0045 -0.0847
 3632W        W19706  16.524   9.842   0.481 -0.2456 -0.1260 -0.2571
 3633W        W19707  14.655   7.979   2.595  0.0136  0.0196  0.3747
 3634W        W19708  14.165   0.800  12.815  0.1435  0.1655  0.0392
 3635W        W19709   7.223   9.444  13.642 -0.1140  0.2027  0.3724
 3636W        W19710  12.671   2.031   0.402 -0.1924 -0.0363  0.0395
 3637W        W19711  10.837   8.733   5.087  0.0862 -0.1277  0.1040
 3638W        W19712   5.735   7.934   1.467 -0.0763  0.1405 -0.0241
 3639W        W19713  11.409  10.760  12.147 -0.1443 -0.0067 -0.1021
 3640W        W19714   5.195   0.931   2.374  0.0356 -0.2366  0.3009
 3641W        W19715   2.591   3.808   2.017  0.0600 -0.1525  0.0396
 3642W        W19716  10.298   6.158   3.651  0.2839  0.1015 -0.3062
 3643W        W19717  15.076   4.862  14.274 -0.0335 -0.1100  0.2691
 3644W        W19718  14.837   9.329   4.964 -0.0476 -0.0440 -0.3210
 3645W        W19719   0.739  16.267  12.196  0.0007 -0.2530 -0.2303
 3646W        W19720   2.792   4.436   2.617 -0.0563  0.0282 -0.0204
 3647W        W19721  10.885  12.320   6.035 -0.0955  0.0885  0.3584
 3648W        W19722   2.613   3.068  12.988 -0.1818 -0.1292  0.1923
 3649W        W19723   8.933  11.900   1.344 -0.0749  0.1018  0.0658
 3650W        W19724   7.993   8.674   3.012  0.1868 -0.0090 -0.3367
 3651W        W19725  10.619  15.077   0.719 -0.1885 -0.1184 -0.1365
 3652W        W19726   3.169  10.376   6.409  0.0828 -0.0754 -0.1769
 3653W        W19727   7.104  10.974   2.419  0.0741  0.0745 -0.0330
 3654W        W19728  12.847   5.368   5.583  0.0764 -0.1099 -0.0887
 3655W        W19729   9.805   7.011   0.704  0.1502  0.2422  0.1546
 3656W        W19730   9.525   9.325  15.071 -0.1957 -0.2554 -0.0938
 3657W        W19731   8.014  10.446   4.239 -0.0012  0.3207 -0.1954
 3658W        W19732  13.949  13.122  11.690  0.2338 -0.1824  0.0079
 3659W        W19733  13.304   7.864   2.214 -0.0294  0.0727  0.2212
 3660W        W19734   9.618   2.374  11.765  0.1209  0.1115  0.0646
 3661W        W19735  13.838   9.813   4.714 -0.0386 -0.0232  0.0811
 3662W        W19736   0.123   6.650   2.170 -0.0214  0.0154 -0.0508
 3663W        W19737  13.377   8.038   0.185  0.1394 -0.0735  0.0845
 3664W        W19738  12.393  17.161   2.192  0.2158 -0.2672  0.1401
 3665W        W19739   7.697   6.957   5.245  0.2304 -0.0704 -0.0057
 3666W        W19740  16.592  11.399  15.248 -0.0208 -0.1824 -0.1359
 3667W        W19741   3.338   3.873  16.220 -0.0686  0.3545  0.0961
 3668W        W19742   7.324   9.780   0.151  0.0282 -0.1070 -0.1119
 3669W        W19743   7.683  13.827   1.873 -0.4703 -0.2342 -0.2294
 3670W        W19744  11.446  14.197   3.100 -0.1202 -0.0099 -0.3796
 3671W        W19745   4.552  14.465   3.081  0.3058 -0.0676 -0.0101
 3672W        W19746   2.679   6.291  13.257  0.1527  0.2450  0.1017
 3673W        W19747  17.131   4.442   2.734  0.2625 -0.2104 -0.2009
 3674W        W19748  13.015   4.318  13.792  0.0467 -0.2282 -0.2094
 3675W        W19749  10.510   8.389   3.029  0.3337  0.1245  0.3131
 3676W        W19750   8.758  11.149   3.852  0.1715  0.0237 -0.4030
 3677W        W19751  15.182   8.048   5.140  0.1960 -0.0547 -0.1736
 3678W        W19752   3.617  17.632  12.328 -0.0808  0.0568 -0.1779
 3679W        W19753   0.380   4.069   5.284 -0.1811 -0.0202 -0.2701
 3680W        W19754   4.029   6.252  17.067 -0.0968  0.0080 -0.1261
 3681W        W19755  11.051  16.748  15.619 -0.1810  0.2413  0.1098
 3682W        W19756   8.022  14.482  13.418  0.0166  0.0070 -0.2188
 3683W        W19757  17.366  16.056   4.990 -0.0611 -0.2077 -0.1593
 3684W        W19758   3.329   4.235  13.559  0.1204 -0.5126 -0.1327
 3685W        W19759  14.955   3.200   1.845  0.0925 -0.2825 -0.3055
 3686W        W19760  16.149  16.742   4.328 -0.0616  0.0537 -0.3371
 3687W        W19761   6.338   5.131   4.496 -0.0142  0.0102  0.1120
 3688W        W19762  17.035   6.232   3.874 -0.2584  0.0080 -0.0421
 3689W        W19763  11.040   1.828   4.263  0.1988  0.0777  0.1347
 3690W        W19764   3.609   6.990   3.492 -0.2283  0.0636 -0.1025
 3691W        W19765   2.879   5.411   2.901 -0.0764  0.2639 -0.0712
 3692W        W19766  11.718   5.977  15.436 -0.3386 -0.0420  0.2848
 3693W        W19767   2.686   8.588  12.380  0.1720  0.2549  0.0253
 3694W        W19768   0.008   6.163   2.328 -0.0778  0.0170  0.0135
 3695W        W19769   8.846   7.076   5.455  0.0831 -0.1417 -0.1823
 3696W        W19770   0.242  11.183   0.394 -0.0133 -0.0922  0.1183
 3697W        W19771  11.153   1.540   4.972  0.1398 -0.2240 -0.0802
 3698W        W19772   8.720   8.316   2.600  0.1471  0.3099 -0.0500
 3699W        W19773   4.510   8.134   4.645  0.0682  0.1060  0.0188
 3700W        W19774  16.491   5.082   2.326  0.0882  0.1616  0.3965
 3701W        W19775   3.491   2.890   4.741  0.3427  0.1313 -0.1303
 3702W        W19776   2.599  17.712  16.624  0.3562  0.0082 -0.1206
 3703W        W19777   9.845  14.848   1.691 -0.0004  0.1303  0.1619
 3704W        W19778   6.981  17.108   5.096 -0.2238 -0.0849 -0.0565
 3705W        W19779   0.213   4.572   0.594 -0.1047 -0.1958  0.1368
 3706W        W19780   7.189   4.054   2.161  0.3358  0.1986  0.2014
 3707W        W19781   7.758  17.631   2.258 -0.1002 -0.0130 -0.2010
 3708W        W19782   9.855  12.358   5.735  0.0597  0.0386  0.0601
 3709W        W19783  12.800   7.767  16.852  0.0693 -0.1907 -0.2684
 3710W        W19784  17.555   7.513   0.051  0.1885 -0.0802 -0.1553
 3711W        W19785   1.821  11.508  17.119 -0.2913 -0.2137 -0.1939
 3712W        W19786   2.453  10.668  16.814  0.0711  0.2753 -0.1905
 3713W        W19787   5.468   0.113  15.388  0.0476 -0.2113 -0.0893
 3714W        W19788   9.768   7.589  16.908  0.1080  0.1063 -0.2361
 3715W        W19789   7.970   1.179  14.850  0.1204  0.0222  0.1644
 3716W        W19790   3.104  13.537   5.797 -0.0042 -0.1058  0.2152
 3717W        W19791   6.068   9.742  13.118  0.0890 -0.1788  0.0379
 3718W        W19792   3.849  16.997   2.196 -0.1340 -0.3802 -0.0152
 3719W        W19793  17.175  10.846  14.789 -0.1893 -0.0381  0.0352
 3720W        W19794   3.830  12.234  14.865  0.0648  0.0734  0.0186
 3721W        W19795   7.846   0.902   2.185  0.2237  0.1237  0.1321
 3722W        W19796   2.406   0.813  16.247 -0.2067 -0.2455 -0.3753
 3723W        W19797   7.171  15.184  16.781  0.2889  0.1104 -0.1853
 3724W        W19798  16.772   7.318  13.558 -0.0683  0.0517  0.1834
 3725W        W19799   2.837  17.077   4.281  0.1089  0.1651 -0.1980
 3726W        W19800   5.636   4.550   1.157 -0.3274 -0.3084  0.2162
 3727W        W19801   3.719  11.500  12.037 -0.1555 -0.3237  0.0518
 3728W        W19802   9.521  12.654  12.022  0.1522  0.0838 -0.2227
 3729W        W19803  16.351  10.276  16.693 -0.2426  0.2613 -0.1812
 3730W        W19804   6.662   0.529   1.261  0.1847  0.2721  0.0782
 3731W        W19805  16.042   0.123   1.843  0.0831 -0.1157  0.3082
 3732W        W19806  17.605   5.250   2.211  0.1681  0.1592  0.2649
 3733W        W19807   5.307  11.984  16.267  0.2970 -0.0044 -0.2215
 3734W        W19808   3.180   7.821   3.739  0.1472 -0.0861  0.2081
 3735W        W19809   9.111  13.204   4.887 -0.1789 -0.3509  0.1333
 3736W        W19810   6.652   1.174  13.818 -0.2503 -0.0000  0.1280
 3737W        W19811   9.516   0.842   1.490 -0.1675  0.2492 -0.0502
 3738W        W19812   7.728   5.645  12.625 -0.0329 -0.2752 -0.2894
 3739W        W19813  15.214  10.120   1.625  0.2165 -0.2254  0.0192
 3740W        W19814   5.295  15.639  16.981 -0.0416 -0.2608  0.2300
 3741W        W19815   9.049   4.752   1.263 -0.0069 -0.1836  0.2543
 3742W        W19816  11.827  12.181   2.051  0.1425 -0.2517  0.0554
 3743W        W19817   6.073   9.044   1.724  0.2210  0.1886  0.2545
 3744W        W19818   6.662   9.903  16.954 -0.2812 -0.0016 -0.0006
 3745W        W19819  15.586   1.050   1.670  0.0898 -0.4068 -0.1700
 3746W        W19820   0.775   6.375  13.020 -0.1474 -0.1734 -0.1219
 3747W        W19821   1.716  16.665  16.578 -0.0831 -0.0999 -0.0505
 3748W        W19822   4.412   7.731   0.755 -0.0994  0.0303  0.0304
 3749W        W19823  17.204   0.721   5.821 -0.0424  0.0927 -0.1213
 3750W        W19824   0.277   9.804   5.474 -0.0602  0.0675 -0.1508
 3751W        W19825   2.244   6.364   0.872 -0.0041  0.2884 -0.3306
 3752W        W19826   7.228   2.356  13.351  0.1138  0.0584 -0.1577
 3753W        W19827  13.306   3.521   2.372 -0.0295 -0.1355 -0.3123
 3754W        W19828   4.855   5.035  15.527 -0.3000  0.0290 -0.0920
 3755W        W19829   4.479   1.592   1.293  0.0711 -0.0094 -0.0473
 3756W        W19830  11.622   1.474   4.824 -0.0749  0.1412 -0.0149
 3757W        W19831   3.595  12.982   5.307  0.0446 -0.3298 -0.2676
 3758W        W19832   5.565  13.399   2.028 -0.0626 -0.0794 -0.3284
 3759W        W19833   7.193   9.603   3.041 -0.0164 -0.1137 -0.0024
 3760W        W19834  12.257  14.855  16.358 -0.1217 -0.1080 -0.0172
 3761W        W19835   2.240  13.827  12.631  0.0933  0.3154  0.2901
 3762W        W19836   4.291   3.964  12.506  0.1555  0.0905  0.0091
 3763W        W19837  13.440   1.691   3.143  0.2171 -0.2086  0.2750
 3764W        W19838  17.405   4.547  16.892 -0.2243  0.0991 -0.2133
 3765W        W19839  10.140   8.936  13.802 -0.2650 -0.1630 -0.2012
 3766W        W19840   7.807  12.061  12.801  0.1909  0.1553  0.2618
 3767W        W19841   1.151  11.568   1.678 -0.0880 -0.1939 -0.1400
 3768W        W19842  12.213   1.150   0.145 -0.0067 -0.1192  0.2591
 3769W        W19843   2.605   9.629   2.246  0.3500  0.0179  0.1088
 3770W        W19844  14.007  17.141  12.936  0.0855 -0.1373 -0.2502
 3771W        W19845  14.911  11.347   4.040  0.0896  0.3039  0.0365
 3772W        W19846  14.080  16.424  14.566  0.0739 -0.0254 -0.0547
 3773W        W19847  15.716  14.447  15.785 -0.1235 -0.0627 -0.1075
 3774W        W19848  10.847   2.592   1.988  0.1027  0.1348 -0.1202
 3775W        W19849  16.311  10.702  14.766  0.1264 -0.0544 -0.1471
 3776W        W19850  13.769   4.562  15.680 -0.0967 -0.1669  0.0278
 3777W        W19851  14.954   6.003   1.633  0.0543  0.0572  0.0025
 3778W        W19852   1.204   3.380  14.081  0.3133 -0.2132  0.2724
 3779W        W19853   9.263  10.399  11.890  0.3860 -0.2865  0.0849
 3780W        W19854  10.049   0.923   3.710 -0.0494 -0.1901  0.2426
 3781W        W19855  16.121  16.844  11.886 -0.1366 -0.0452 -0.2205
 3782W        W19856  15.368  15.912  11.874  0.1665 -0.1637 -0.1455
 3783W        W19857   5.782   0.480  15.521 -0.0523 -0.3072  0.2451
 3784W        W19858  14.158  10.258   5.607  0.0170  0.2975  0.2219
 3785W        W19859   8.904   7.752  14.736 -0.4585 -0.0528  0.0603
 3786W        W19860   7.299   4.632  14.590 -0.0412  0.1827  0.0833
 3787W        W19861   4.874  13.152   4.080  0.1023  0.2468  0.4273
 3788W        W19862   4.451   7.077   3.048  0.0407  0.1089 -0.2278
 3789W        W19863  12.176   8.920  13.964  0.1783  0.2891 -0.1780
 3790W        W19864   2.013   5.804  13.168  0.3783 -0.2551  0.1637
 3791W        W19865   2.678   6.565   0.985 -0.2967 -0.0426 -0.1359
 3792W        W19866   4.957  14.995  15.923 -0.0967 -0.1725  0.2542
 3793W        W19867   8.516   3.292  16.333  0.1523  0.1247 -0.3741
 3794W        W19868  15.830   9.845   1.069 -0.0651 -0.0858 -0.0031
 3795W        W19869   5.243   6.335   6.081  0.0689  0.0944 -0.1602
 3796W        W19870  10.149   4.680   0.345 -0.2426  0.1134  0.0469
 3797W        W19871   2.784   7.278   0.754  0.2831 -0.0092  0.4787
 3798W        W19872   7.957   3.332   3.242  0.1094 -0.2290  0.1645
 3799W        W19873  13.129  10.137  14.413  0.2073 -0.4938  0.1933
 3800W        W19874  10.701  13.106  12.253 -0.0153  0.0134  0.2137
 3801W        W19875  16.261   9.188  11.948 -0.0927 -0.1782  0.1489
 3802W        W19876   4.643  14.806   0.027  0.0409 -0.0986  0.0165
 3803W        W19877   9.322   2.456   1.042 -0.1426 -0.2441  0.0379
 3804W        W19878  15.529  10.390  12.111 -0.1701  0.1886 -0.3969
 3805W        W19879   9.001  10.875  11.954  0.1456  0.0206 -0.3563
 3806W        W19880   1.496   3.313  12.462 -0.0206 -0.1225 -0.1864
 3807W        W19881  15.190  10.150  13.254 -0.0973 -0.0177  0.1351
 3808W        W19882   0.167  17.041  14.754  0.0710  0.1276  0.2283
 3809W        W19883  10.174   2.482  15.638  0.5048  0.1526 -0.1779
 3810W        W19884  15.464  16.497  13.060 -0.0653 -0.0458 -0.0521
 3811W        W19885   5.331   6.038   2.720 -0.1402  0.6071  0.2323
 3812W        W19886   1.827   2.012  14.204  0.1413  0.2222 -0.0166
 3813W        W19887   3.628  15.718   4.681  0.1284  0.2612  0.1156
 3814W        W19888   2.580   2.157  12.081 -0.0293 -0.2523 -0.1716
 3815W        W19889   1.368  15.106   2.254  0.0951 -0.0517 -0.1886
 3816W        W19890  13.064  14.248  11.053 -0.0643 -0.3972  0.0784
 3817W        W19891  10.927   6.997   4.327 -0.1625 -0.0784 -0.0736
 3818W        W19892   0.064   2.322  14.727  0.1415  0.2825  0.0487
 3819W        W19893   5.791   8.568  15.500 -0.1096  0.2267  0.2622
 3820W        W19894   4.069  12.995  15.293  0.0986  0.0196 -0.1725
 3821W        W19895   5.261   8.582   5.937 -0.1523  0.1165 -0.0400
 3822W        W19896  17.059  15.959   3.065 -0.2427  0.0039 -0.2958
 3823W        W19897   1.977   8.229  15.547 -0.2096 -0.0210  0.2747
 3824W        W19898  10.757   3.577   4.470  0.1101 -0.1456  0.1934
 3825W        W19899  16.131   0.720  12.435 -0.0366 -0.1024 -0.3643
 3826W        W19900   5.503  13.799  12.185 -0.2091  0.1414  0.1514
 3827W        W19901  16.524   5.307   1.477  0.2452  0.1633 -0.2096
 3828W        W19902   6.120  12.015   3.479 -0.0399  0.2058  0.2817
 3829W        W19903  17.617  10.449  16.953  0.2057  0.1002 -0.0124
 3830W        W19904  14.961   9.716  12.322 -0.2784 -0.1570 -0.0214
 3831W        W19905   4.953   3.228   5.451  0.1468 -0.0896 -0.0785
 3832W        W19906   4.468  13.480  17.101 -0.1473  0.2943  0.1250
 3833W        W19907   3.133   9.224  14.967  0.0254  0.0677 -0.2825
 3834W        W19908   2.922   9.057  13.717 -0.2585 -0.0490  0.1057
 3835W        W19909   6.865  10.500   3.508 -0.1104  0.1539 -0.2181
 3836W        W19910  13.690  15.373   6.173  0.3158 -0.0030  0.2879
 3837W        W19911  10.627  13.436  14.637  0.0258 -0.0228 -0.2397
 3838W        W19912   9.333  16.632  13.154 -0.1639 -0.0901 -0.1640
 3839W        W19913   0.113   2.915   5.930 -0.4772 -0.1788 -0.0817
 3840W        W19914   9.456   9.826  13.541 -0.1021 -0.0516  0.2264
 3841W        W19915  15.365  14.343  16.384  0.0261  0.0241 -0.0092
 3842W        W19916  16.611  15.768  16.437  0.1789 -0.0068 -0.2377
 3843W        W19917   1.707   1.717  17.008  0.1361 -0.1300  0.0790
 3844W        W19918  16.251  10.673   2.345 -0.0164 -0.1219  0.0394
 3845W        W19919  15.792   4.861   3.648 -0.0060 -0.1347 -0.1085
 3846W        W19920   9.083  16.716  12.535 -0.0084 -0.0794  0.1859
 3847W        W19921  16.398   9.733   3.293 -0.0774 -0.4548 -0.0731
 3848W        W19922  13.555  12.663  15.330 -0.1722  0.4149  0.2427
 3849W        W19923  12.526  10.380  13.624  0.1411  0.4403  0.1929
 3850W        W19924   6.015  13.523   1.784  0.1723  0.1639 -0.3383
 3851W        W19925  14.333   6.599   0.902 -0.2537  0.0409 -0.0825
 3852W        W19926   7.303  10.777   3.211 -0.2067  0.0739  0.1139
 3853W        W19927   6.737   1.216  16.333  0.2294 -0.2839  0.1665
 3854W        W19928   0.350   1.535   1.523  0.1015  0.0175  0.0043
 3855W        W19929  13.525   4.978  13.804  0.2447 -0.2762 -0.1757
 3856W        W19930   5.802  12.763   1.337  0.6409  0.0676  0.0922
 3857W        W19931  17.686  13.061  12.335  0.2691  0.0669 -0.0383
 3858W        W19932  10.536  10.553  16.065 -0.2182  0.2057  0.0125
 3859W        W19933  13.912  15.355   0.592 -0.1753 -0.1082  0.1460
 3860W        W19934   0.146   6.390  15.855 -0.2438  0.0828  0.1029
 3861W        W19935   6.325  15.795   3.057 -0.0200 -0.2069 -0.1348
 3862W        W19936   6.599   5.862  13.190 -0.0801  0.3129 -0.0775
 3863W        W19937  15.577   6.268   0.402  0.1325 -0.1852  0.1277
 3864W        W19938  10.587  13.046   1.940  0.1198  0.0982  0.0189
 3865W        W19939   6.658  11.174   2.147 -0.0294 -0.1598 -0.1501
 3866W        W19940   1.135  17.132   3.613 -0.1220  0.0223 -0.0034
 3867W        W19941   7.916  16.856   3.867 -0.0647 -0.0795 -0.1284
 3868W        W19942   3.237  12.437   5.526  0.2900 -0.0116 -0.1079
 3869W        W19943   8.032  11.441  16.969 -0.1087  0.3439 -0.0164
 3870W        W19944  17.126  10.141  13.729 -0.0252  0.1793 -0.4760
 3871W        W19945  16.337   4.700  15.110 -0.1960  0.5374 -0.1035
 3872W        W19946   7.137   9.544  16.943  0.0421 -0.3814  0.2330
 3873W        W19947   9.480   9.905  17.157 -0.0532 -0.0699  0.1831
 3874W        W19948   7.569  11.254   0.688 -0.0027 -0.0943 -0.0038
 3875W        W19949  14.982   7.411   0.953  0.0203  0.1927 -0.0306
 3876W        W19950  16.907   1.433  12.291  0.1787 -0.1155  0.1214
 3877W        W19951  10.126   3.129  12.745 -0.0168  0.0222 -0.1212
 3878W        W19952  16.417   6.628  14.011 -0.1142  0.0061  0.0119
 3879W        W19953   4.512   5.351  15.340  0.2911 -0.3341 -0.1065
 3880W        W19954   5.817  13.809   3.170  0.1220 -0.0173 -0.0190
 3881W        W19955   7.097  10.846   4.442  0.2923 -0.2895  0.0689
 3882W        W19956   9.934  15.143  16.626  0.0480  0.3767  0.1667
 3883W        W19957   8.710  10.090   2.363 -0.0791  0.1073 -0.2345
 3884W        W19958  10.632  11.619  15.035  0.2503  0.1320  0.1116
 3885W        W19959   6.838  10.402   1.455  0.0803  0.1175 -0.2847
 3886W        W19960   6.182  12.324   2.527  0.0082  0.2018  0.1252
 3887W        W19961   2.222  16.167  15.202  0.2559  0.0911 -0.2826
 3888W        W19962  16.377   5.992   2.246  0.2302 -0.1207  0.1328
 3889W        W19963   3.868  16.005  12.334 -0.2058 -0.0535 -0.1490
 3890W        W19964  13.740   9.399   3.328  0.1436  0.0149 -0.0849
 3891W        W19965  10.528  16.342   2.119 -0.2379  0.0924  0.2784
 3892W        W19966  15.819   6.065  16.602  0.0696 -0.0974  0.0337
 3893W        W19967  13.364  17.637  13.261  0.0124 -0.2117  0.2676
 3894W        W19968   4.056  12.901   5.218  0.0492 -0.1458  0.0841
 3895W        W19969   7.586  12.134  16.617  0.0882 -0.0689  0.0640
 3896W        W19970   5.291   4.758   3.424  0.3624 -0.0765 -0.1337
 3897W        W19971   3.447   5.440   4.230  0.3247 -0.1729  0.1856
 3898W        W19972   7.037   4.564   5.019 -0.2042  0.1812 -0.0890
 3899W        W19973  15.298   3.674  14.847  0.0060  0.0412 -0.0102
 3900W        W19974   9.927  11.446   5.223 -0.1184 -0.0198 -0.2358
 3901W        W19975   1.783  11.105   2.431 -0.1062 -0.0082  0.1387
 3902W        W19976   9.337   5.116   4.738 -0.0182  0.0439 -0.1960
 3903W        W19977   8.191   0.298   3.844  0.0617 -0.1141  0.3647
 3904W        W19978   1.224  16.353   4.762  0.0294  0.1147 -0.1106
 3905W        W19979   1.223  13.521  11.752 -0.1783 -0.0530  0.1254
 3906W        W19980  13.059  17.409   0.003  0.1501 -0.0542 -0.0041
 3907W        W19981   8.706  13.599   1.105  0.2028 -0.2281  0.1607
 3908W        W19982  12.340   3.840  13.409  0.2120  0.0895  0.1208
 3909W        W19983   4.207  12.411  12.331 -0.3672  0.3499  0.1480
 3910W        W19984  17.650   1.126  14.822 -0.3192 -0.0258 -0.1459
 3911W        W19985  15.549   2.314  17.082  0.0313  0.0398  0.1051
 3912W        W19986   1.540  11.492  15.197  0.2146  0.0627 -0.2176
 3913W        W19987   7.159   1.526  13.141 -0.2679 -0.2052  0.0119
 3914W        W19988  14.355   3.271   3.410  0.1512  0.2693  0.2392
 3915W        W19989   6.247   1.883   3.247 -0.0326 -0.0947  0.0289
 3916W        W19990   4.146   0.142   1.718  0.1005  0.1386 -0.4755
 3917W        W19991  15.761  16.847   2.252  0.0841 -0.1636 -0.0565
 3918W        W19992   0.940   7.563   1.002  0.0807 -0.0285  0.1774
 3919W        W19993  11.904   8.270   2.095  0.0490 -0.4476 -0.2000
 3920W        W19994  10.846   5.712  13.615 -0.3922 -0.3389 -0.4949
 3921W        W19995   4.500  15.091  14.511 -0.1892  0.0237 -0.1563
 3922W        W19996   3.505   6.859  15.863 -0.2008 -0.2302 -0.0122
 3923W        W19997   6.341   5.400  13.228 -0.4406  0.0709 -0.1681
 3924W        W19998   2.543   1.688   1.822  0.1676 -0.4610  0.1530
 3925W        W19999  14.789   0.504  16.210 -0.1536  0.2578 -0.3355
 3926W        W20000  11.038   8.969  13.571  0.1915  0.1864 -0.2634
 3927W        W20001  12.330  10.973   6.044 -0.0705  0.0597  0.1598
 3928W        W20002   1.885   1.608   3.910  0.1386 -0.2217 -0.2691
 3929W        W20003  15.523   7.867   2.993  0.1842 -0.1578  0.1231
 3930W        W20004  15.996  12.922   2.945  0.0428 -0.0442  0.0210
 3931W        W20005  17.201   6.143   5.327 -0.1163  0.0399  0.0171
 3932W        W20006   2.743   8.867   0.274  0.1379 -0.1803  0.1128
 3933W        W20007  17.570  17.072   0.800  0.3444 -0.0795 -0.1188
 3934W        W20008   6.570   5.936   0.484 -0.0862 -0.0016 -0.3515
 3935W        W20009   1.570   8.547  14.687 -0.0241 -0.0308  0.3103
 3936W        W20010  14.757   1.189   0.120 -0.1588 -0.0447 -0.0625
 3937W        W20011  13.464   7.276  14.140 -0.0653 -0.2840  0.0098
 3938W        W20012  13.937  12.561  13.410  0.3617 -0.1095  0.0815
 3939W        W20013   3.811  16.544   5.038  0.3795  0.1769  0.4477
 3940W        W20014   1.792   1.199  14.079 -0.0811  0.0279  0.3857
 3941W        W20015   4.024   5.990   5.534 -0.0505 -0.3995 -0.1510
 3942W        W20016   1.651   6.017  12.399 -0.0370 -0.0372  0.0838
 3943W        W20017  10.429   1.440   2.472  0.2863  0.1028  0.1974
 3944W        W20018  14.531   1.420  15.505  0.2607 -0.0619 -0.1002
 3945W        W20019   2.889   2.932  17.160 -0.2770 -0.1037 -0.2014
 3946W        W20020  11.241   6.966   5.614 -0.0512 -0.2407 -0.0449
 3947W        W20021  11.683   9.662  16.703  0.1337 -0.1486  0.2036
 3948W        W20022  15.199  12.858  12.162  0.1343  0.0034 -0.1317
 3949W        W20023   3.364  15.281  15.295 -0.0988 -0.0334 -0.3735
 3950W        W20024  16.154  14.037   3.538 -0.2813 -0.1231  0.2408
 3951W        W20025  17.229   3.324   0.110  0.0815 -0.1036 -0.2263
 3952W        W20026   0.334  14.094   3.873  0.0829  0.1049 -0.1482
 3953W        W20027   7.729   9.194   1.351  0.0496  0.0445  0.1021
 3954W        W20028  16.631   5.025   1.050 -0.0024 -0.3258  0.2581
 3955W        W20029   8.010   3.800  14.418 -0.2313 -0.1278  0.2907
 3956W        W20030   2.358   1.653  15.612 -0.2575  0.0463 -0.1121
 3957W        W20031   3.637  14.246  13.895  0.1850  0.2316 -0.2031
 3958W        W20032  14.347   4.384  15.357 -0.0148  0.1188 -0.1912
 3959W        W20033   7.188  17.281   6.322 -0.2644 -0.0052  0.0769
 3960W        W20034  10.157   8.298  14.796 -0.2645  0.2855 -0.0331
 3961W        W20035   0.071   2.904   3.876  0.1848  0.1276 -0.0287
 3962W        W20036   9.356   4.833   0.624  0.1938 -0.0638 -0.0162
 3963W        W20037   6.406   7.297  15.353  0.0098  0.0201  0.0432
 3964W        W20038  12.633  14.967   2.292  0.0875  0.0120  0.0415
 3965W        W20039  12.355   4.588  13.805  0.1387 -0.0006 -0.2807
 3966W        W20040  11.105   7.486   0.582  0.3060  0.0761 -0.0119
 3967W        W20041  12.709  16.231  12.423 -0.1667 -0.1104  0.0133
 3968W        W20042  13.224  16.446  16.221  0.2356 -0.2987  0.1887
 3969W        W20043   1.487   3.587   5.070  0.0422  0.1281  0.0575
 3970W        W20044   9.508   3.807  13.338 -0.4498 -0.1747  0.0125
 3971W        W20045  17.501  15.338   3.320 -0.2452  0.2075 -0.1321
 3972W        W20046   4.041  17.590   0.944  0.0772 -0.5116  0.0085
 3973W        W20047  15.551   2.521  13.643 -0.0725 -0.1444 -0.1871
 3974W        W20048   1.693   2.439   0.016  0.0583 -0.4513 -0.2712
 3975W        W20049  13.045  11.683  13.746 -0.1367 -0.1693  0.1035
 3976W        W20050  12.666  16.787   0.768  0.1682  0.0248  0.3133
 3977W        W20051   6.751   0.430   2.855 -0.1847 -0.0929  0.1070
 3978W        W20052   0.454  13.769  14.017  0.2209 -0.1233  0.2041
 3979W        W20053  13.702   5.739  15.124 -0.4333 -0.1130 -0.0605
 3980W        W20054   6.445   2.578   0.563 -0.1416  0.0712 -0.0303
 3981W        W20055  11.584  13.493   5.517 -0.1294 -0.0045 -0.2099
 3982W        W20056   4.690   6.011  11.703 -0.1118  0.0486  0.2840
 3983W        W20057   8.731  17.354  16.359  0.0478  0.0139 -0.1477
 3984W        W20058   6.825   5.903   4.082  0.2929  0.5405  0.0925
 3985W        W20059  16.929   2.369   0.030 -0.2592  0.2294 -0.1330
 3986W        W20060   7.309  10.496   1.752 -0.0517  0.0256  0.1050
 3987W        W20061  10.235  14.474  16.232 -0.0078 -0.2376 -0.2450
 3988W        W20062   3.456   2.759  14.492 -0.1292 -0.1866  0.1916
 3989W        W20063   8.800  12.893   5.792  0.1161 -0.1321  0.3301
 3990W        W20064   0.147  17.377   2.361 -0.0483 -0.0588 -0.1316
 3991W        W20065   0.051  11.619   2.176  0.0400  0.0776 -0.1396
 3992W        W20066  12.319   6.094   6.783 -0.0119 -0.3138 -0.0413
 3993W        W20067  11.324  11.625   0.267 -0.1783 -0.0763 -0.0107
 3994W        W20068  16.667  14.881  16.648  0.0533 -0.1412 -0.1365
 3995W        W20069   2.846  15.307  15.461  0.0420  0.1310 -0.2033
 3996W        W20070   2.970   2.185   6.333 -0.3362 -0.0845  0.0292
 3997W        W20071   2.544   3.489  16.037  0.0641  0.2396 -0.0324
 3998W        W20072   2.711   4.420  15.749  0.1835 -0.0407 -0.2376
 3999W        W20073  15.759  11.972  11.910 -0.1222 -0.0481 -0.0522
 4000W        W20074  12.615   8.624   2.821  0.0672 -0.3790  0.0848
 4001W        W20075   9.123   1.946  12.281 -0.1104  0.0080  0.2905
 4002W        W20076   4.406  13.592  13.373  0.0660 -0.4176  0.2826
 4003W        W20077   6.311   3.665   3.220  0.2302 -0.0821 -0.0020
 4004W        W20078   6.756  17.000  14.149 -0.3385 -0.1849 -0.3036
 4005W        W20079   6.728  13.906   6.565  0.1413  0.0093  0.0961
 4006W        W20080   7.554  13.487   4.504  0.0997  0.2542 -0.3186
 4007W        W20081  17.027  15.788   2.138  0.0087 -0.1102 -0.2876
 4008W        W20082   6.878   7.681   3.748 -0.0185  0.1342 -0.2412
 4009W        W20083   2.523  13.878   5.272  0.1724 -0.1183 -0.0615
 4010W        W20084   6.349   3.028   0.813  0.1101 -0.1305  0.0026
 4011W        W20085   5.759   9.927  16.192 -0.0909 -0.2601  0.0171
 4012W        W20086   7.775   8.189   3.150  0.0615 -0.4000  0.0837
 4013W        W20087   7.569   6.202  16.227  0.1205 -0.1869  0.3162
 4014W        W20088  13.020  14.940   1.879  0.0048 -0.1070  0.1932
 4015W        W20089  14.409   8.593   5.218  0.0904  0.2112  0.0202
 4016W        W20090   6.856   4.581  16.306  0.0209  0.2486 -0.2119
 4017W        W20091   3.666  16.480   6.335  0.2591  0.1148  0.3911
 4018W        W20092  13.653   5.047   1.110 -0.0714  0.0886  0.2384
 4019W        W20093   6.702  12.279  17.113  0.0127  0.0394  0.1417
 4020W        W20094  11.061   5.373  12.915  0.0538 -0.0140  0.4476
 4021W        W20095   9.900  11.048  14.482 -0.1192 -0.0250  0.1169
 4022W        W20096   1.738   2.038   5.887  0.2730 -0.1169  0.1972
 4023W        W20097  15.488   8.658  13.671  0.0207  0.1134 -0.1058
 4024W        W20098  13.403  14.847   2.769 -0.0813  0.1210  0.2347
 4025W        W20099  11.878  10.579  12.399 -0.0809 -0.0303  0.0791
 4026W        W20100   6.707   6.234   4.409  0.0126  0.3642 -0.0907
 4027W        W20101   7.908   3.327  14.720 -0.1933 -0.0328  0.1170
 4028W        W20102   3.355   2.459  12.798 -0.0326  0.0930  0.0454
 4029W        W20103   3.301  15.929  13.842 -0.2040  0.4838  0.2154
 4030W        W20104  17.427   1.003  14.019  0.1772  0.1345 -0.0534
 4031W        W20105  15.990  14.405  14.403 -0.0447  0.1079  0.0375
 4032W        W20106  13.481   6.936   5.125  0.1092 -0.0111 -0.1467
 4033W        W20107   6.363   8.052  15.053 -0.3500 -0.4061  0.0626
 4034W        W20108   1.894   5.819   4.431  0.2880  0.0164 -0.1189
 4035W        W20109   5.545   5.417  13.326 -0.1078  0.0144  0.1235
 4036W        W20110   4.532  17.275  14.838  0.0680  0.0425 -0.0293
 4037W        W20111  14.093  17.597  16.568 -0.3414  0.2553 -0.1869
 4038W        W20112   2.035   0.545   0.982  0.1190 -0.0774  0.0579
 4039W        W20113  13.875   1.596   3.478  0.0009  0.0116  0.0804
 4040W        W20114   3.529   2.672   2.643  0.2819 -0.3257  0.1247
 4041W        W20115   9.217   4.271  14.670 -0.1655 -0.4219 -0.2820
 4042W        W20116  14.363  11.072   1.204 -0.1422 -0.2213 -0.3121
 4043W        W20117  16.279  11.215   4.984  0.2312 -0.1156  0.0539
 4044W        W20118   9.754   4.612  11.875 -0.3526 -0.2218  0.3374
 4045W        W20119  11.537   4.586  16.850  0.2305  0.0397  0.0670
 4046W        W20120  11.883  13.726   2.651  0.0880  0.4169  0.0493
 4047W        W20121   7.843   3.748  11.732 -0.0584 -0.1833  0.2981
 4048W        W20122  16.109  17.135  15.223 -0.1439  0.1639  0.0909
 4049W        W20123  10.402  10.426  15.617 -0.1453  0.0821 -0.0576
 4050W        W20124  16.761   6.879   0.132  0.1559  0.2057  0.2049
 4051W        W20125  13.422  16.374  16.986 -0.1683  0.1043 -0.0852
 4052W        W20126   6.441  11.467   1.134 -0.2342  0.0981 -0.1342
 4053W        W20127   1.690   8.198   5.772  0.0187  0.1176  0.0034
 4054W        W20128  12.826  11.331   3.520  0.1234  0.1209 -0.0541
 4055W        W20129   3.712   5.516   4.689 -0.1666  0.0732 -0.1704
 4056W        W20130   9.554   1.004  15.583  0.0648 -0.2170 -0.2808
 4057W        W20131  12.628   5.874   3.304 -0.3885  0.0811  0.3959
 4058W        W20132   9.972  16.870   2.559  0.2561 -0.1607 -0.0013
 4059W        W20133  16.966  14.693  14.348 -0.1030 -0.0813 -0.0004
 4060W        W20134  16.561   4.585   0.112 -0.1168  0.1055  0.3576
 4061W        W20135   4.579   3.513  14.419  0.0539  0.2662  0.0435
 4062W        W20136  12.422  13.561   6.075 -0.1350 -0.2345 -0.0831
 4063W        W20137  12.018  11.080  13.791  0.1284  0.0482  0.0458
 4064W        W20138  13.543   4.619  12.596 -0.1187  0.0615 -0.1428
 4065W        W20139   5.208   8.745  16.468 -0.0738  0.3822 -0.2778
 4066W        W20140   9.286  15.911   2.197 -0.0633 -0.0411  0.1821
 4067W        W20141  14.100  10.810  15.144 -0.0742  0.0368  0.1353
 4068W        W20142   9.851   4.941  12.211 -0.6801  0.0892 -0.0561
 4069W        W20143   5.197  13.079   4.852 -0.1702 -0.1035 -0.1063
 4070W        W20144  15.735  10.733   4.408 -0.1102  0.1555  0.0508
 4071W        W20145   1.162  17.114   2.185 -0.1806 -0.0502 -0.2096
 4072W        W20146  17.558   6.335   0.098 -0.1351 -0.0646  0.2088
 4073W        W20147  14.481   1.938  14.772 -0.2940  0.1745 -0.2324
 4074W        W20148   0.076   0.164   2.924 -0.2475 -0.1581 -0.2910
 4075W        W20149   1.748  11.026  11.923  0.1078  0.0628  0.2600
 4076W        W20150  13.021   9.605   4.120 -0.4322  0.0160 -0.1088
 4077W        W20151   7.684  15.105  16.537  0.0331  0.0782 -0.0296
 4078W        W20152   3.836   3.088   3.847  0.0498 -0.1020  0.2833
 4079W        W20153  16.259  17.225   4.383  0.0641 -0.0412 -0.2501
 4080W        W20154  15.033   0.374   2.271  0.2884  0.1041  0.0708
 4081W        W20155   6.710  17.363   5.443  0.0116  0.1604 -0.1413
 4082W        W20156  16.538  14.026  14.313 -0.0563 -0.0252  0.0124
 4083W        W20157   0.835  13.184  12.014  0.3422 -0.1546 -0.3167
 4084W        W20158  16.857  11.552  16.134  0.3394 -0.1051 -0.1364
 4085W        W20159   7.617  15.778   0.570  0.3222  0.2062  0.3774
 4086W        W20160  10.590   9.432   5.507 -0.1584  0.0891  0.0957
 4087W        W20161   5.504   5.501   2.476  0.0125 -0.1331  0.0227
 4088W        W20162   1.276   0.047   4.456  0.0385  0.0188  0.0591
 4089W        W20163  11.774   6.442  15.301  0.0194 -0.0721  0.0394
 4090W        W20164   1.204  14.661   2.522 -0.1705  0.0106 -0.0231
 4091W        W20165   4.810   2.048  12.715  0.0092  0.0430  0.2880
 4092W        W20166   0.724   3.840   0.076 -0.2771 -0.1770  0.0659
 4093W        W20167   7.424   0.727   1.116  0.1551 -0.1339 -0.1770
 4094W        W20168   1.610   8.910   3.614 -0.0167  0.1864 -0.1765
 4095W        W20169   3.947   0.669   4.633 -0.0944 -0.1921  0.0589
 4096W        W20170  15.824  14.606   1.124  0.1538 -0.0938 -0.3899
 4097W        W20171   9.626  13.562  12.575  0.2345  0.4482  0.0078
 4098W        W20172  15.588   7.677  12.662 -0.2042  0.2025 -0.0176
 4099W        W20173   1.649  14.019  15.648  0.1756  0.4123  0.0927
 4100W        W20174  12.002  12.636  14.375 -0.0529  0.0703  0.2047
 4101W        W20175  13.044   4.601   5.936 -0.1160  0.1460  0.0481
 4102W        W20176   7.198   6.978  11.571 -0.0284  0.1414 -0.2008
 4103W        W20177   7.399   8.450   3.955 -0.1402 -0.2057  0.0965
 4104W        W20178  14.430   1.843  13.075 -0.1851  0.2185 -0.0962
 4105W        W20179  11.424  15.757   0.712 -0.1853  0.2459 -0.2767
 4106W        W20180   0.674  13.865   1.257 -0.1166  0.1702  0.1098
 4107W        W20181  16.436   7.283  16.857 -0.1661  0.1632 -0.0040
 4108W        W20182   4.973   3.053  15.266 -0.1157 -0.0859  0.1018
 4109W        W20183  14.082   4.763  11.751 -0.3235  0.1622 -0.3364
 4110W        W20184  12.411   3.685   0.145  0.3653  0.1060 -0.2452
 4111W        W20185  15.468  16.016  16.285  0.2601  0.0160  0.3036
 4112W        W20186  12.924   0.655   2.885 -0.0425  0.1244 -0.3474
 4113W        W20187  14.416   3.788   3.615 -0.2562  0.0917 -0.0440
 4114W        W20188  15.292  15.152   4.365 -0.0045  0.3113 -0.0541
 4115W        W20189  13.176  17.218  16.711 -0.2553  0.0713  0.3331
 4116W        W20190  11.493  11.856   3.722 -0.2005 -0.0179 -0.1350
 4117W        W20191   7.095  10.607  13.034  0.1504 -0.0786  0.1007
 4118W        W20192   3.305   8.096  12.605 -0.0434  0.1542 -0.1968
 4119W        W20193   3.846   6.581   3.802  0.1267 -0.2292 -0.2479
 4120W        W20194   1.059   3.816   1.190 -0.0009  0.0798  0.0539
 4121W        W20195  10.652  12.785   0.242 -0.1652 -0.1802 -0.0663
 4122W        W20196  13.790   0.639  12.393 -0.1448 -0.0453 -0.1073
 4123W        W20197  11.256  12.056   4.051 -0.2556 -0.2694 -0.1208
 4124W        W20198   5.722   1.123   2.747 -0.1878 -0.2787  0.3313
 4125W        W20199  15.052  15.008  15.037 -0.0489  0.1590 -0.1029
 4126W        W20200  11.520   3.942   2.308  0.0347  0.1062  0.1395
 4127W        W20201   1.736   6.109   2.179  0.0416  0.0554  0.0757
 4128W        W20202   6.297   2.531   6.547 -0.0928 -0.1254  0.3339
 4129W        W20203  14.071   0.510   3.439  0.3318  0.1326  0.0149
 4130W        W20204  17.267   8.930  15.707  0.2181 -0.0496 -0.2505
 4131W        W20205   9.299  11.102   4.690  0.0564 -0.0252 -0.3530
 4132W        W20206   6.599  17.045   3.889 -0.0538  0.1606  0.0006
 4133W        W20207   9.858  15.283  14.661 -0.1972 -0.1738 -0.1616
 4134W        W20208   1.778  14.134  13.336 -0.0047 -0.1350 -0.1700
 4135W        W20209   2.646  10.275  12.419 -0.1822  0.0522 -0.1328
 4136W        W20210   6.540  10.824   3.162 -0.1901 -0.4935  0.0477
 4137W        W20211   7.454   5.151  15.736  0.0036 -0.2505  0.3937
 4138W        W20212  12.771   2.332  14.662  0.0803 -0.1561 -0.1159
 4139W        W20213   1.953  11.109   0.172 -0.0175 -0.1156  0.0738
 4140W        W20214   3.894   1.885   5.414 -0.4421 -0.1298  0.0116
 4141W        W20215   4.806  14.968   1.425  0.0575 -0.0477  0.0653
 4142W        W20216  13.659  12.174   4.432  0.1879 -0.2603  0.1382
 4143W        W20217  14.816   0.249  13.710 -0.0712 -0.0485  0.0492
 4144W        W20218   0.089   1.942  13.789  0.0252  0.2509 -0.0263
 4145W        W20219  11.192  17.386   2.038  0.1157  0.1291 -0.0354
 4146W        W20220   0.319  10.622  14.436 -0.0044 -0.0080  0.1176
 4147W        W20221  12.846   1.104  16.114 -0.0672  0.2293  0.3051
 4148W        W20222   9.436   8.669  12.282 -0.0351  0.0246 -0.1408
 4149W        W20223  13.425   7.395  15.237 -0.3609  0.1038 -0.2637
 4150W        W20224   6.713   7.271  12.381  0.0173  0.0393 -0.2404
 4151W        W20225  11.188  15.894  14.354 -0.3216 -0.0697 -0.1641
 4152W        W20226  15.670  11.770  13.485 -0.0966 -0.0961 -0.2636
 4153W        W20227   4.951   5.649   2.617 -0.1469  0.1008  0.2628
 4154W        W20228  11.707   5.422  15.554  0.1233  0.0994  0.0340
 4155W        W20229   5.526   3.125   2.406  0.0284  0.2659  0.0580
 4156W        W20230  13.636  16.530   1.607  0.2687 -0.1898 -0.1587
 4157W        W20231   0.775  16.942   2.451  0.3645 -0.0339  0.0983
 4158W        W20232   1.123   8.633  16.526 -0.1433  0.0754 -0.1689
 4159W        W20233  14.449   0.019  14.493 -0.0088  0.1228 -0.1937
 4160W        W20234   8.466   7.289  12.684  0.5781 -0.1331  0.0609
 4161W        W20235   5.840   0.750   5.140  0.1551 -0.3173 -0.0274
 4162W        W20236  14.337  16.593  13.833  0.3081 -0.2025  0.0900
 4163W        W20237  12.032   6.276  13.470 -0.1006 -0.1990 -0.2604
 4164W        W20238   8.791   5.541   5.440 -0.0135 -0.1320  0.0560
 4165W        W20239   7.378  17.370   2.006  0.1238  0.0354 -0.0761
 4166W        W20240  10.559  11.089  12.719  0.0031 -0.0605 -0.0795
 4167W        W20241  15.275  11.695   6.004  0.2326 -0.1974 -0.0945
 4168W        W20242   4.501   4.713  12.309 -0.0934 -0.1124 -0.2103
 4169W        W20243   6.331  17.143  13.781  0.2313 -0.0480  0.2032
 4170W        W20244   0.099   0.990   0.280 -0.3313 -0.2884  0.1553
 4171W        W20245   5.702   5.239  15.893 -0.0354  0.0336  0.1072
 4172W        W20246   3.644  10.508   5.579 -0.0351  0.0598  0.1459
 4173W        W20247   2.003  15.204  16.245 -0.0996  0.2319  0.0364
 4174W        W20248  12.846  11.507  11.522  0.0180 -0.1314 -0.0577
 4175W        W20249  13.556   2.388  12.269  0.1707  0.0533 -0.5780
 4176W        W20250   0.343  11.595  14.211 -0.1952  0.1980 -0.0860
 4177W        W20251  15.912   7.312   2.165 -0.1266  0.2274  0.0202
 4178W        W20252   7.472   9.417  16.575  0.3319 -0.0142 -0.2666
 4179W        W20253  14.138   9.670  15.436  0.2384  0.0060 -0.1022
 4180W        W20254  10.036  13.360  12.865  0.2562  0.1459  0.0720
 4181W        W20255   8.929   7.296   1.561 -0.4056 -0.2618 -0.0720
 4182W        W20256  14.742  15.084  12.570 -0.1408 -0.1878  0.0117
 4183W        W20257   7.971  11.029   0.577 -0.0352  0.5487  0.1332
 4184W        W20258   3.860  14.576  16.029  0.0244  0.0777 -0.2661
 4185W        W20259  17.683  10.543  15.340 -0.0950  0.1246 -0.0210
 4186W        W20260   9.669  11.569  15.650  0.1287 -0.0948  0.0130
 4187W        W20261   5.123  14.455  14.976  0.2484  0.1706  0.1374
 4188W        W20262  16.315  14.259   0.399  0.0526 -0.1568 -0.0244
 4189W        W20263   0.025  13.591  14.420 -0.2798 -0.2523 -0.0370
 4190W        W20264   7.112   9.105  12.711  0.0425  0.0930 -0.0367
 4191W        W20265  10.381   1.787   2.105  0.0678 -0.4349 -0.0152
 4192W        W20266  14.145   3.993  12.309 -0.0822 -0.2298 -0.0009
 4193W        W20267  13.756   1.160   0.963 -0.0634 -0.0321  0.0490
 4194W        W20268   5.294   4.001  14.999 -0.0146 -0.2495  0.1999
 4195W        W20269  15.482  13.267   1.513  0.2121  0.1136  0.1559
 4196W        W20270   1.996   2.788   6.636 -0.1971  0.1974 -0.1994
 4197W        W20271   9.500  11.062   2.832 -0.0349  0.0683 -0.3376
 4198W        W20272   4.960   3.641  15.316 -0.0024  0.0254 -0.0853
 4199W        W20273   6.518   9.003  13.295  0.0678  0.2098 -0.2611
 4200W        W20274   5.244   9.316  15.633  0.1431  0.2442 -0.0044
 4201W        W20275   4.706   8.083   5.085  0.0472  0.1619  0.2804
 4202W        W20276   0.152   7.765   1.367  0.0235  0.0118 -0.1035
 4203W        W20277   0.342   7.473   0.488  0.2260 -0.2757  0.0775
 4204W        W20278  14.446   8.312   3.488  0.0452 -0.0017 -0.1977
 4205W        W20279   1.791   5.400   0.625 -0.0454  0.1428 -0.1860
 4206W        W20280   1.894   9.227   5.744  0.3165 -0.1888  0.1468
 4207W        W20281   0.324   7.113   1.817  0.3381 -0.2116 -0.2202
 4208W        W20282  15.999  12.276  15.700  0.0452  0.0713 -0.1416
 4209W        W20283   3.231  17.282   0.089  0.0273  0.1712 -0.0291
 4210W        W20284   5.664  10.442  14.893 -0.1426 -0.2735 -0.2968
 4211W        W20285  17.528   4.176   1.706  0.0549  0.1184 -0.0152
 4212W        W20286  12.340   6.421   3.441 -0.0729  0.0527  0.1689
 4213W        W20287   4.026   2.131  11.713  0.0233 -0.1180  0.0816
 4214W        W20288   6.357  12.592   5.712  0.1392 -0.0648 -0.0776
 4215W        W20289   6.440   1.059  16.709  0.0519 -0.0136 -0.4456
 4216W        W20290  14.290   5.897   2.510  0.0660  0.0263  0.0222
 4217W        W20291  10.919   7.142   1.576 -0.0297  0.2953  0.1769
 4218W        W20292   6.567   8.438  13.872 -0.1376  0.2707 -0.0173
 4219W        W20293  13.546   9.827   0.160 -0.1336  0.0640 -0.0953
 4220W        W20294   6.313   4.682   1.833  0.2633  0.2174 -0.0702
 4221W        W20295   0.262  10.760   6.562 -0.0741 -0.2537 -0.0384
 4222W        W20296   6.490  17.476  17.095  0.0097 -0.0775  0.1051
 4223W        W20297   9.867   1.811   4.362 -0.0026  0.1157 -0.0607
 4224W        W20298  12.126   0.263  13.880  0.3343  0.0139 -0.2194
 4225W        W20299  16.761   7.526   0.706  0.0590  0.0992  0.0788
 4226W        W20300   0.935   1.097  13.091  0.0880  0.0853 -0.0333
 4227W        W20301  14.948   0.338   3.623 -0.2357  0.0041 -0.1589
 4228W        W20302  11.521  17.132   5.388  0.1160 -0.1236 -0.0840
 4229W        W20303  15.628  13.963  13.191 -0.2368 -0.2444  0.1351
 4230W        W20304   9.386  12.810  13.100  0.0750  0.2044  0.0057
 4231W        W20305  10.991   0.213   5.077  0.1905 -0.0786  0.0393
 4232W        W20306  16.458  13.906  10.717  0.0165 -0.0438 -0.1608
 4233W        W20307  14.643  16.026  15.292 -0.0707 -0.2229  0.1393
 4234W        W20308  12.439   7.912  16.554 -0.0925 -0.2911 -0.0622
 4235W        W20309   6.473   8.374  15.831  0.0682 -0.0430 -0.1451
 4236W        W20310  11.289  10.042  16.565  0.1114 -0.0167 -0.2993
 4237W        W20311   7.268  10.925   1.027 -0.2863  0.1155 -0.0364
 4238W        W20312   5.316  12.397  13.564 -0.0754 -0.0127  0.0014
 4239W        W20313  13.410  16.613   0.431  0.0137  0.1358 -0.0303
 4240W        W20314   6.290  14.523  15.575 -0.1302  0.2258 -0.0651
 4241W        W20315  15.971   2.618   5.439 -0.1052 -0.2692  0.0306
 4242W        W20316   0.914   2.743   1.277  0.0030 -0.0895  0.0901
 4243W        W20317   9.889  10.263   1.127 -0.2624 -0.1462  0.4900
 4244W        W20318   9.585   9.511   2.625 -0.0996 -0.0275  0.2475
 4245W        W20319  16.288   5.402  12.015 -0.0934 -0.1923 -0.1418
 4246W        W20320  16.271   9.695  14.792 -0.4754 -0.1195 -0.1201
 4247W        W20321   4.672  12.539  16.046  0.2352 -0.3617  0.1040
 4248W        W20322   9.217  11.490   1.120  0.0982  0.0830 -0.2285
 4249W        W20323  13.265   6.030  11.833  0.0428  0.0409 -0.0693
 4250W        W20324  12.507   0.592   4.407  0.1490  0.3758  0.1000
 4251W        W20325   7.522   3.676  14.461 -0.1535 -0.1638 -0.0026
 4252W        W20326   7.620  10.019  14.430  0.0793  0.1355 -0.3726
 4253W        W20327   8.446   4.191   4.205  0.0966 -0.0231  0.3826
 4254W        W20328  15.552  10.041   0.644 -0.0932 -0.0014  0.1847
 4255W        W20329   0.665   8.196  14.416 -0.2283 -0.0276 -0.1512
 4256W        W20330   1.488  17.492  13.004 -0.0408 -0.0215 -0.0770
 4257W        W20331   2.332   8.346  11.817 -0.5279 -0.0304  0.0697
 4258W        W20332  14.304  17.559   6.437  0.1019 -0.1434 -0.0472
 4259W        W20333   9.600   6.069  12.295  0.3264 -0.4130 -0.2806
 4260W        W20334   6.402   7.828   4.766 -0.1653  0.0723 -0.1037
 4261W        W20335  12.115  12.825   0.316 -0.1652 -0.0626  0.0863
 4262W        W20336  14.767  16.189  16.524  0.0563 -0.1724 -0.0702
 4263W        W20337   7.793   3.825   5.962  0.0627  0.2302  0.0629
 4264W        W20338   7.921   1.833   2.303  0.0477 -0.0107 -0.2179
 4265W        W20339   7.978   9.259   4.384  0.0184  0.1059 -0.0568
 4266W        W20340  10.424  12.970   3.241  0.0687  0.1548  0.0328
 4267W        W20341   7.772  15.376   0.954  0.3407 -0.3171 -0.1739
 4268W        W20342  12.944  13.407  12.078 -0.4337  0.1044  0.0984
 4269W        W20343  13.508  10.654   4.319  0.2850  0.0403 -0.2647
 4270W        W20344   7.790   1.070   2.638  0.3244  0.0673 -0.1386
 4271W        W20345  12.185  16.994  17.037  0.3236  0.1888 -0.1758
 4272W        W20346  14.882  13.493  14.677  0.2186 -0.0010  0.0657
 4273W        W20347   0.341   3.489  13.766 -0.0350  0.3167  0.3793
 4274W        W20348  12.419   0.325   1.130 -0.0934  0.0520 -0.1082
 4275W        W20349  10.008   6.052  13.750  0.1177 -0.0059 -0.0533
 4276W        W20350   6.840   2.313  14.825 -0.2329  0.0098  0.5593
 4277W        W20351  13.336   0.913  17.078 -0.1030  0.0938 -0.2266
 4278W        W20352   7.192   7.749  14.905  0.1022 -0.0023  0.0118
 4279W        W20353   0.859   8.241   5.623  0.0599  0.2794 -0.0727
 4280W        W20354  10.067   7.353   3.910  0.2587 -0.1620  0.3836
 4281W        W20355   2.263   4.725  15.909 -0.1648 -0.1720  0.0598
 4282W        W20356  17.081   6.096  17.112  0.2172  0.2853  0.1484
 4283W        W20357  11.050  17.118  15.939  0.1344 -0.1234 -0.0424
 4284W        W20358  17.625  11.476  12.488  0.1329  0.2051  0.2256
 4285W        W20359  15.650  12.965  10.342 -0.2652  0.2050 -0.1832
 4286W        W20360  12.725  15.063   5.796 -0.1326  0.2221 -0.1033
 4287W        W20361   6.954   6.801  13.986  0.1401  0.1951 -0.1023
 4288W        W20362   1.795   4.698  13.049  0.0202 -0.1310  0.2452
 4289W        W20363  12.340   3.412  15.926  0.0018  0.1503  0.0562
 4290W        W20364   7.057  13.721  14.407 -0.0242  0.1539 -0.0552
 4291W        W20365   9.331  10.639  13.266  0.0582 -0.0869  0.2618
 4292W        W20366   2.174  13.166  16.013 -0.0528 -0.0863 -0.0839
 4293W        W20367  11.457   7.531  16.514  0.0492  0.1490  0.0853
 4294W        W20368   6.364   4.931   1.330 -0.3963 -0.1290  0.0363
 4295W        W20369   7.072  13.469   0.714  0.1094  0.0763 -0.1107
 4296W        W20370   0.778  17.042   0.117 -0.0439  0.1600  0.0108
 4297W        W20371   6.546   6.103   3.150  0.0082 -0.0654  0.1048
 4298W        W20372   0.016   2.241   0.920 -0.0602  0.3915  0.3451
 4299W        W20373  11.257   0.124  15.241 -0.1203 -0.0531  0.0737
 4300W        W20374   3.797   4.800   0.072 -0.2029  0.2487 -0.2125
 4301W        W20375   4.913   5.624   3.763  0.0116 -0.0938 -0.2427
 4302W        W20376   0.062   3.195  16.206  0.1188  0.2405  0.3089
 4303W        W20377  13.514   8.256  12.471  0.0660 -0.0894 -0.5118
 4304W        W20378   3.866   1.390  15.749  0.2591 -0.2754 -0.0122
 4305W        W20379  15.456   8.761   3.102 -0.0433 -0.0211  0.0214
 4306W        W20380  10.208  11.263  15.749  0.3570 -0.2476  0.0153
 4307W        W20381   8.696   3.550  14.171 -0.4430 -0.1507  0.0854
 4308W        W20382   9.945   7.452   2.100 -0.0356 -0.0000  0.0630
 4309W        W20383   2.774   4.489  12.503 -0.1185 -0.0728  0.0510
 4310W        W20384  12.635   2.402  12.071 -0.1596 -0.0745  0.2376
 4311W        W20385   0.404  16.995  16.280 -0.0063 -0.1452  0.0676
 4312W        W20386   1.103   1.021  12.546 -0.1710  0.0044 -0.3312
 4313W        W20387  14.898   0.559   0.740 -0.0059  0.0924  0.2184
 4314W        W20388  14.061   1.236  14.471  0.2084  0.0880 -0.1452
 4315W        W20389   4.321   6.783   1.831 -0.0848  0.2396  0.1537
 4316W        W20390  17.476   9.849  14.974  0.0245  0.1010  0.1736
 4317W        W20391   5.468  17.373  14.490  0.0360 -0.2780 -0.2724
 4318W        W20392   7.269   2.007  14.068 -0.0357 -0.3701 -0.2527
 4319W        W20393   2.220   4.841   3.932 -0.0579 -0.0724  0.1879
 4320W        W20394   1.059  15.826  15.126 -0.1360  0.2220 -0.1562
 4321W        W20395   3.506  11.025   4.941  0.1314 -0.2719  0.2659
 4322W        W20396   9.120  14.211   5.012  0.2952  0.1243  0.1100
 4323W        W20397   9.848   5.527  16.697 -0.2529 -0.0540 -0.1257
 4324W        W20398  10.653   2.526   6.011 -0.2336 -0.1937  0.0161
 4325W        W20399   5.995   3.859  17.025 -0.1113  0.0611 -0.1471
 4326W        W20400  17.226   4.509  16.431 -0.2014  0.2654  0.0146
 4327W        W20401   7.754   8.735   1.947  0.0590  0.0377 -0.3079
 4328W        W20402  15.588  11.219  12.106 -0.1612  0.1409  0.2186
 4329W        W20403  13.279   3.854  15.196  0.1365  0.1367 -0.2473
 4330W        W20404   7.147  12.551   4.611 -0.2851 -0.2856 -0.0139
 4331W        W20405   6.940  17.081   2.122 -0.1423 -0.1765 -0.1541
 4332W        W20406   9.237   0.335  12.529 -0.0769  0.2363  0.0326
 4333W        W20407   1.810   8.072  13.797  0.1350 -0.0099  0.2804
 4334W        W20408   3.490   8.568  12.689 -0.1816 -0.2748  0.3813
 4335W        W20409  10.103  11.892  12.501 -0.1614  0.2266  0.0428
 4336W        W20410   3.080  12.022   1.281  0.0247  0.0449  0.0493
 4337W        W20411   8.681  14.366   5.549  0.0536 -0.0111  0.2268
 4338W        W20412   4.180  16.231   3.102 -0.0958 -0.0724 -0.1213
 4339W        W20413   1.633   3.396  11.939  0.2703 -0.0580 -0.1156
 4340W        W20414  11.240  14.789  14.626 -0.1645  0.1151 -0.2878
 4341W        W20415  11.123   6.537   2.930  0.2960 -0.0841  0.2534
 4342W        W20416   0.959  13.805   5.151 -0.2601  0.0374 -0.0099
 4343W        W20417   3.793   9.127  11.173  0.0775  0.0677 -0.0439
 4344W        W20418  10.720   6.371  13.031  0.1055  0.2167 -0.1537
 4345W        W20419   2.110   1.830  12.892  0.0324  0.2299 -0.3386
 4346W        W20420  17.404   0.775   0.440 -0.0734 -0.0802  0.3843
 4347W        W20421   4.889   3.067  14.537  0.3136  0.0895  0.1384
 4348W        W20422  11.864   4.269  15.980  0.1932  0.0211  0.1240
 4349W        W20423   4.531  13.157  12.141  0.2675 -0.0732 -0.0966
 4350W        W20424   0.445   9.075   3.077 -0.0408  0.0787 -0.0786
 4351W        W20425   7.291   7.826   0.357 -0.1980 -0.1000  0.0367
 4352W        W20426   6.459  14.125   3.821  0.1048 -0.0307 -0.0270
 4353W        W20427   4.402   2.485   1.469 -0.2446  0.0083  0.2308
 4354W        W20428   9.461  14.882  13.784  0.1571  0.1189 -0.1389
 4355W        W20429  12.308  16.325   5.016  0.0556  0.2396  0.0325
 4356W        W20430   5.144   2.677  14.828 -0.0221  0.1627  0.1294
 4357W        W20431  10.136  15.668   6.479 -0.0957  0.2389  0.0300
 4358W        W20432   8.721   9.396  15.855  0.0005 -0.2116  0.1391
 4359W        W20433   0.632  17.094  12.610  0.0924  0.0260 -0.1248
 4360W        W20434  17.514  10.327   1.591  0.0496  0.1824  0.0915
 4361W        W20435   2.009  10.640  12.127 -0.0317  0.1031 -0.2739
 4362W        W20436   2.793   7.677  16.526  0.0148  0.0263  0.1203
 4363W        W20437  10.679   3.125  14.620 -0.1072  0.0403  0.0284
 4364W        W20438  15.996  13.302   1.482 -0.1624 -0.1540 -0.3740
 4365W        W20439   4.108  14.107   0.903  0.1059 -0.0449 -0.1998
 4366W        W20440  17.273   0.606  14.328 -0.0775  0.0893  0.0922
 4367W        W20441  16.859  11.051  13.915  0.2078  0.0867 -0.1361
 4368W        W20442   7.207  17.360   2.591 -0.3176 -0.2609 -0.0218
 4369W        W20443   6.355   3.273  16.342 -0.0430  0.0532 -0.0534
 4370W        W20444   4.404  15.709  13.687 -0.0551 -0.1435 -0.0976
 4371W        W20445   9.659   0.654   2.509  0.3631  0.2840  0.0662
 4372W        W20446  15.786   4.989   1.800 -0.0164  0.0718 -0.0765
 4373W        W20447  16.704   2.285   4.291  0.1182  0.0782  0.1849
 4374W        W20448   8.499   1.020  14.756 -0.0254  0.1445  0.0080
 4375W        W20449  14.418   1.156   2.148  0.3420  0.1147  0.0664
 4376W        W20450  17.003   7.520   5.797 -0.1801  0.0353 -0.1086
 4377W        W20451  13.888   5.146   3.199  0.0296  0.0562  0.0501
 4378W        W20452   4.653   7.610   5.679 -0.0303  0.0752 -0.0689
 4379W        W20453  13.666   3.304   6.275 -0.1563 -0.3321 -0.0062
 4380W        W20454  14.109   8.467  13.309  0.0824 -0.0406  0.3239
 4381W        W20455   9.700  15.333   1.958  0.2746  0.2962  0.3052
 4382W        W20456  14.783  11.179   2.851  0.2526  0.0105  0.2670
 4383W        W20457   5.631  14.023  14.030 -0.1691 -0.1912  0.0814
 4384W        W20458  13.691   7.817  13.181  0.1016 -0.0711 -0.0622
 4385W        W20459  14.140   8.120  15.442  0.0860  0.1410  0.1551
 4386W        W20460  10.931  13.734   4.016  0.1657 -0.4142  0.1157
 4387W        W20461   9.404  10.809  12.226  0.1605  0.0566  0.2397
 4388W        W20462  13.441  13.671  17.005 -0.1036 -0.1382 -0.2212
 4389W        W20463  13.495   7.296   4.695  0.2419 -0.0141 -0.3508
 4390W        W20464  14.723   7.649  14.915  0.0528  0.2227  0.0463
 4391W        W20465  11.118   8.868   1.198 -0.2877 -0.1690 -0.0128
 4392W        W20466  10.011   4.014   0.499 -0.0506 -0.0069 -0.0493
 4393W        W20467  16.212   1.413   3.445 -0.0981  0.0509 -0.2691
 4394W        W20468  12.209   4.344   5.293  0.0018 -0.1565  0.0388
 4395W        W20469   8.625  13.793  15.211  0.1271 -0.1597 -0.0075
 4396W        W20470   9.929   1.227  11.722  0.0363 -0.1526  0.0622
 4397W        W20471  13.852   9.632   0.977 -0.0709 -0.2368 -0.0293
 4398W        W20472   8.549   3.502  13.139  0.2057  0.1593  0.0493
 4399W        W20473   3.482  10.046   5.098  0.1044  0.2675 -0.3218
 4400W        W20474   3.215  16.818   4.564  0.0221 -0.0858  0.1034
 4401W        W20475  15.739   7.612  14.763 -0.0978  0.0004 -0.1164
 4402W        W20476   9.880   1.716   1.912 -0.0778  0.1128  0.1768
 4403W        W20477  16.328  15.088  16.238 -0.1100 -0.1340  0.2039
 4404W        W20478   3.666   8.208   1.136  0.0002 -0.0581 -0.0458
 4405W        W20479  15.722  16.142   0.648 -0.0183 -0.1572  0.2234
 4406W        W20480   3.994  15.565   0.307  0.1867 -0.0238 -0.2299
 4407W        W20481   6.909   7.090  13.393  0.0108 -0.0952  0.0933
 4408W        W20482  12.136   5.698  15.735  0.3832 -0.0709 -0.0266
 4409W        W20483   3.097   4.577   5.360 -0.2989  0.0442 -0.1902
 4410W        W20484  13.662   8.756  12.618 -0.3463 -0.1576  0.0471
 4411W        W20485   3.648  10.125  15.050  0.2060 -0.2332  0.1627
 4412W        W20486  14.091   7.216  12.572 -0.0576 -0.1361 -0.0156
 4413W        W20487   1.707   2.966   1.805 -0.4044 -0.0892  0.2073
 4414W        W20488   2.044  13.747   5.552 -0.0080  0.3107  0.3350
 4415W        W20489   7.189  12.528  14.264  0.1667 -0.0101 -0.2178
 4416W        W20490   6.703  16.379   4.409  0.1364 -0.0796  0.1740
 4417W        W20491   5.864   4.994   1.777 -0.1229  0.0222 -0.0933
 4418W        W20492  10.866  10.947  14.346  0.0410 -0.1198  0.0292
 4419W        W20493   7.686  12.090   3.941  0.0161  0.1090  0.1442
 4420W        W20494   3.417   9.641   2.465 -0.0967  0.2421 -0.0094
 4421W        W20495  14.796  10.061   4.291 -0.1425  0.1449  0.2998
 4422W        W20496  16.421   4.513   2.265 -0.1920 -0.1053 -0.0374
 4423W        W20497  16.003   4.986  14.849 -0.3810  0.1797  0.2015
 4424W        W20498   5.891  10.634   5.099 -0.3290  0.2166 -0.0204
 4425W        W20499  11.826   8.430   1.442  0.1068 -0.1790  0.0277
 4426W        W20500   8.496   8.007   1.595  0.1968  0.0485 -0.1851
 4427W        W20501  15.291  15.795  12.600  0.2809 -0.2772 -0.1601
 4428W        W20502   0.064   8.416   1.804 -0.0183  0.1843 -0.0629
 4429W        W20503   0.121   3.536   5.660  0.0176 -0.2378  0.0512
 4430W        W20504  14.801   0.706   5.850 -0.0138  0.1604  0.0042
 4431W        W20505   6.167   8.289   2.235  0.0844 -0.1288 -0.0224
 4432W        W20506  14.881  13.177   1.979  0.0224 -0.1437  0.1341
 4433W        W20507   4.904  12.524  16.500  0.1124  0.0189 -0.2616
 4434W        W20508   9.677   6.132  14.624 -0.0159 -0.1438 -0.1173
 4435W        W20509  13.699   3.600  16.559  0.1760 -0.2828  0.0284
 4436W        W20510  16.549   8.373   0.584 -0.0893 -0.0634  0.0768
 4437W        W20511   9.010  12.018   0.308  0.2614 -0.0533  0.1350
 4438W        W20512  10.894   7.400  15.225  0.1297 -0.1098  0.2145
 4439W        W20513  12.941  10.217  13.330  0.4319  0.2532 -0.0881
 4440W        W20514  16.550   0.935   0.567  0.0417 -0.0570 -0.2494
 4441W        W20515  13.442  16.349  12.589 -0.2402  0.2407  0.2611
 4442W        W20516  12.176   2.046   4.294 -0.2300 -0.1252 -0.0295
 4443W        W20517   1.776  11.375   3.070  0.1339  0.0568  0.0743
 4444W        W20518   3.135   4.456  15.405 -0.1099  0.1373  0.3205
 4445W        W20519  13.191  13.303  14.438 -0.0027 -0.4575  0.1734
 4446W        W20520  14.659  16.180   0.245  0.1561  0.2924 -0.2751
 4447W        W20521   3.981  12.830   6.163 -0.1083 -0.1589  0.0182
 4448W        W20522   4.273  17.089  13.029 -0.5451  0.3292  0.1021
 4449W        W20523  13.793   4.118  16.356  0.1909 -0.0767 -0.2293
 4450W        W20524   5.400  14.059   1.283  0.1108 -0.1993  0.1820
 4451W        W20525   4.582   0.292  11.504 -0.1083  0.3774 -0.4537
 4452W        W20526   7.412   2.818   5.969 -0.0239 -0.1805 -0.2577
 4453W        W20527   8.334   0.116  12.771  0.2364  0.1140 -0.0790
 4454W        W20528   7.629   8.321   5.209 -0.0850  0.0500 -0.2830
 4455W        W20529  15.261  12.729   3.654 -0.0574 -0.2067  0.3183
 4456W        W20530   8.988   8.919   1.866 -0.2071  0.4253 -0.2463
 4457W        W20531  17.513  11.183   0.525 -0.0989 -0.1116 -0.5282
 4458W        W20532  12.603   3.640  13.072 -0.2411  0.2230 -0.0881
 4459W        W20533   3.481  11.586  12.469 -0.0420  0.1369 -0.0084
 4460W        W20534  10.626   2.856  15.839 -0.1663 -0.0393 -0.1984
 4461W        W20535   4.415   5.779   2.896  0.0560 -0.1776  0.0094
 4462W        W20536  14.545   2.729   5.328  0.2560  0.1274 -0.3820
 4463W        W20537  11.254   2.176   1.591  0.4087 -0.3311  0.2955
 4464W        W20538   4.586  14.117   3.498 -0.1607 -0.4062  0.1459
 4465W        W20539   9.549   5.855   2.779  0.3930 -0.2332  0.0085
 4466W        W20540   1.330  11.315  11.942  0.0007  0.1130  0.4429
 4467W        W20541  13.894  12.433   2.422 -0.0079  0.2372 -0.0304
 4468W        W20542   5.979   5.431   1.600 -0.3033 -0.2003 -0.1664
 4469W        W20543   8.039   6.627   1.055 -0.1742  0.3575  0.0846
 4470W        W20544  11.742  16.762   2.353 -0.2512 -0.1413 -0.1432
 4471W        W20545   4.624   1.337   3.154 -0.2404 -0.2417 -0.0651
 4472W        W20546   2.920  10.984  15.407  0.2271  0.1362 -0.0771
 4473W        W20547   9.525   3.984   0.396  0.0664  0.0673  0.0216
 4474W        W20548   5.967   3.695   5.879 -0.3111 -0.1828  0.0592
 4475W        W20549  15.078   4.789   2.543 -0.1431 -0.0693  0.0333
 4476W        W20550   4.225   9.433  12.964 -0.2603 -0.0872  0.0239
 4477W        W20551   6.867  10.120  14.310  0.1427 -0.2531 -0.1509
 4478W        W20552   8.752   9.840  17.108  0.1500  0.0991 -0.2535
 4479W        W20553   0.150  10.698   3.613  0.3004  0.0512  0.2098
 4480W        W20554   9.059  10.615   3.633  0.2362 -0.1572  0.2556
 4481W        W20555   5.960  12.960  12.029 -0.2622  0.0047  0.1420
 4482W        W20556   3.249   5.942   4.143 -0.1271  0.3075  0.0722
 4483W        W20557   2.257   3.484  16.458  0.1395 -0.1492  0.1847
 4484W        W20558   5.081   0.916  12.810  0.0639 -0.2124  0.2483
 4485W        W20559  15.948   3.858  14.650  0.0929  0.3402 -0.2453
 4486W        W20560   0.127  13.947  13.074  0.0458 -0.1146  0.0798
 4487W        W20561   7.064   5.837   1.375 -0.0959 -0.1820 -0.0102
 4488W        W20562   5.490   9.032   3.609 -0.3200 -0.1763  0.1226
 4489W        W20563  12.733   8.321   3.718 -0.1628 -0.1366  0.1032
 4490W        W20564  10.482   6.216  16.830  0.1495 -0.1992 -0.3022
 4491W        W20565  15.961  17.010   5.231 -0.2686  0.1105  0.0565
 4492W        W20566   7.490   2.875   0.328 -0.1430  0.0838 -0.1885
 4493W        W20567  11.785   5.912  14.925  0.1473  0.1409  0.1042
 4494W        W20568  15.466   2.507   5.276 -0.0506 -0.0765 -0.1804
 4495W        W20569  10.721   1.737   0.996  0.1237  0.4324 -0.2285
 4496W        W20570  12.509  17.112   1.704 -0.2775 -0.2824  0.1173
 4497W        W20571   6.861  13.911  16.327  0.0366  0.1978 -0.3787
 4498W        W20572   2.700  15.786   4.615  0.1095 -0.0800 -0.1431
 4499W        W20573  17.294   2.355   3.454 -0.1869 -0.4688 -0.0374
 4500W        W20574  15.814   2.979  14.664  0.0779  0.0034  0.4447
 4501W        W20575  13.379  10.083   5.381  0.1972  0.3156 -0.5459
 4502W        W20576  13.597   6.595   1.370 -0.1757  0.1551 -0.3003
 4503W        W20577   6.622   7.389   4.674 -0.0684 -0.1474 -0.2236
 4504W        W20578   4.302   6.072  15.846  0.2071  0.0767  0.0411
 4505W        W20579   6.322   1.009   4.029  0.2152 -0.2117 -0.0753
 4506W        W20580   7.316  14.199  12.486 -0.3444 -0.0581 -0.0248
 4507W        W20581   9.533  13.476  16.756 -0.0656  0.2340 -0.0818
 4508W        W20582  11.268  10.080   3.116 -0.1671 -0.0214 -0.0034
 4509W        W20583   0.833   6.533  13.881  0.1143  0.1616 -0.1040
 4510W        W20584   0.077  14.982  12.152 -0.2698  0.0584  0.0803
 4511W        W20585  10.339   8.521  14.109  0.0681  0.0925 -0.2663
 4512W        W20586   5.418   2.118   2.708  0.0971  0.1442  0.0782
 4513W        W20587   7.330   5.480  12.972  0.2038  0.1208 -0.0371
 4514W        W20588   5.810   9.699  13.643 -0.0171 -0.1600 -0.3386
 4515W        W20589  15.496   2.799  13.185 -0.1654  0.0207  0.0461
 4516W        W20590  11.640  13.182  11.886  0.1192  0.0636 -0.0996
 4517W        W20591   3.407  16.817  12.680  0.1006  0.0650  0.1253
 4518W        W20592   4.663  11.906  15.382  0.4131  0.3286  0.1592
 4519W        W20593   3.730  13.809   0.704  0.0385  0.0145  0.0187
 4520W        W20594   8.064  13.717   3.148  0.1757 -0.1556  0.1387
 4521W        W20595  12.640   2.028  15.035 -0.1140 -0.1696 -0.4398
 4522W        W20596   0.234  10.977   4.047 -0.2093 -0.2212  0.0229
 4523W        W20597  10.159  10.812  12.800  0.1028 -0.2342 -0.0743
 4524W        W20598   1.753   8.751   5.927  0.0503 -0.4808 -0.2848
 4525W        W20599   1.285   6.155   0.818  0.1144 -0.0823  0.0614
 4526W        W20600   4.769   7.745  16.134 -0.0118  0.2550  0.0381
 4527W        W20601   2.547   9.046   1.448 -0.0829  0.5691 -0.0254
 4528W        W20602  15.209   8.016   2.647  0.1034 -0.1912  0.0555
 4529W        W20603  10.069  14.885  13.016 -0.0981  0.0856 -0.0522
 4530W        W20604  15.046  10.942   4.370  0.0007 -0.3391 -0.2260
 4531W        W20605   8.670   5.761   3.065  0.1108  0.1008 -0.2295
 4532W        W20606  12.289  15.362  17.101 -0.0490  0.1585 -0.1227
 4533W        W20607  15.527   5.731  13.329  0.1588 -0.0572  0.0718
 4534W        W20608   9.746  12.064  16.236 -0.1692 -0.1577 -0.0831
 4535W        W20609   3.773   0.235   4.840  0.1657 -0.0846 -0.2229
 4536W        W20610  10.717   3.023  13.768 -0.1856  0.2611  0.5009
 4537W        W20611   9.103   2.541   5.430  0.0747 -0.0153 -0.0271
 4538W        W20612   5.577  11.024   1.655  0.1629  0.0746  0.2727
 4539W        W20613  10.896   0.732   3.808  0.0854  0.0553  0.1671
 4540W        W20614   6.380  12.131  14.930  0.1376  0.0857  0.0324
 4541W        W20615   6.225  16.558   2.491  0.0594 -0.0105 -0.2592
 4542W        W20616  16.065   6.607  14.424 -0.0204  0.1491  0.0364
 4543W        W20617  12.456   9.590   3.947  0.0170 -0.0315  0.1779
 4544W        W20618  10.553  12.791   1.172 -0.1888 -0.2343 -0.2255
 4545W        W20619  16.128   1.800  13.897 -0.3455  0.2799  0.2830
 4546W        W20620  14.734  14.557  12.428  0.0305 -0.1010 -0.2621
 4547W        W20621  11.888  14.562   3.840  0.2338  0.0521  0.0915
 4548W        W20622  12.933  16.350   4.982 -0.1811  0.0860 -0.1932
 4549W        W20623   9.922   9.445  12.955  0.0716  0.1550  0.3004
 4550W        W20624   0.862  16.067  16.548  0.0990 -0.0177 -0.2067
 4551W        W20625   4.316   6.955  15.734 -0.0678  0.0309  0.0756
 4552W        W20626   7.933   4.606  13.439 -0.0180  0.0755  0.0118
 4553W        W20627   3.414   4.547   5.773  0.0116  0.3528 -0.1491
 4554W        W20628   8.465   2.788  15.465  0.1375 -0.2854 -0.2476
 4555W        W20629  12.330   0.067  15.774 -0.0219  0.1736  0.0871
 4556W        W20630   0.136   5.461  12.494  0.1379 -0.1259  0.3517
 4557W        W20631   5.059   7.032   4.907  0.0377 -0.0814 -0.1782
 4558W        W20632   8.873   7.287   3.609 -0.1061  0.0009 -0.1392
 4559W        W20633  17.077  14.423  16.110  0.1173 -0.0291 -0.2505
 4560W        W20634  14.913  11.748  13.137 -0.0293  0.0993 -0.0276
 4561W        W20635   2.161  16.820   2.687  0.2226 -0.0866 -0.0627
 4562W        W20636  11.133  13.873  12.221  0.0617 -0.1880 -0.1492
 4563W        W20637   6.212   6.818   3.584 -0.0206 -0.2554 -0.0183
 4564W        W20638   6.267   1.263  13.495 -0.0802  0.0320 -0.1525
 4565W        W20639  10.997  14.586  16.008  0.0081  0.1158 -0.2605
 4566W        W20640   8.988   2.962   0.836  0.2220 -0.1654  0.0562
 4567W        W20641  17.187  15.340  16.641 -0.1506 -0.0542 -0.0122
 4568W        W20642  13.959   6.269  16.042 -0.0149  0.2339  0.1490
 4569W        W20643   2.311   7.079   5.188  0.0807 -0.0296 -0.0492
 4570W        W20644  10.474   3.684   4.112 -0.0414 -0.1362 -0.1754
 4571W        W20645  12.339  13.835  14.660  0.1039  0.2395 -0.0433
 4572W        W20646   7.605   0.148   1.243 -0.0792 -0.0466 -0.1851
 4573W        W20647   6.074   3.211   5.012 -0.3260  0.1168 -0.1608
 4574W        W20648   3.730   9.925  14.070 -0.2259  0.0562  0.0283
 4575W        W20649  13.520   6.716   3.102 -0.1677 -0.1085  0.2641
 4576W        W20650  12.673  14.159   1.240  0.0462  0.2420 -0.1247
 4577W        W20651   7.087  16.862   0.104  0.0457  0.6641  0.0473
 4578W        W20652   7.288   6.881  15.432  0.2210  0.1716 -0.0001
 4579W        W20653   3.524   0.395   3.669 -0.1644 -0.0217 -0.1692
 4580W        W20654  14.548  12.674   4.416 -0.4110 -0.1907 -0.3100
 4581W        W20655   8.006  11.003  17.156  0.1064 -0.2863  0.0742
 4582W        W20656  14.621   8.751   3.694  0.3672  0.3981  0.1502
 4583W        W20657  13.111  12.814   5.564  0.2296  0.2028 -0.0406
 4584W        W20658  12.224   2.296   6.442  0.1160  0.2919 -0.2140
 4585W        W20659  15.055  11.246  12.434 -0.2331 -0.1314  0.2352
 4586W        W20660   6.369   2.599  13.982 -0.1594  0.0557 -0.0293
 4587W        W20661   0.750   2.608  15.120 -0.0297  0.0571  0.0644
 4588W        W20662   2.663  14.329  13.449  0.2160  0.4049  0.3145
 4589W        W20663   5.806  10.368  15.394 -0.2899  0.3008  0.1291
 4590W        W20664   4.915   2.423  12.365  0.2353  0.1186 -0.2499
 4591W        W20665   4.157   6.979   3.570 -0.0712 -0.0171 -0.0323
 4592W        W20666  17.471   0.927  17.044  0.1046 -0.2881 -0.0280
 4593W        W20667  13.971   3.987   3.457 -0.0080 -0.0665 -0.0714
 4594W        W20668   2.714  12.122  14.187 -0.0694  0.1048 -0.1740
 4595W        W20669   1.319   3.452  13.443 -0.1235 -0.0780 -0.0558
 4596W        W20670  16.747   7.750   3.619 -0.2180 -0.2108  0.0504
 4597W        W20671  11.893  16.723   2.889 -0.1027 -0.0869 -0.1807
 4598W        W20672   6.758   6.245   6.196 -0.0862  0.2005 -0.1578
 4599W        W20673   2.550  13.309   3.108  0.1990  0.3235 -0.1397
 4600W        W20674  10.176  12.099   4.236  0.2279 -0.0804 -0.0966
 4601W        W20675   4.768   9.234   1.529 -0.1396 -0.2034  0.0297
 4602W        W20676   0.174   5.689  13.407  0.3339 -0.2578 -0.1042
 4603W        W20677   3.357   5.653   0.140 -0.1462  0.0599 -0.0551
 4604W        W20678  12.313  13.947   5.351  0.0109  0.5257  0.3218
 4605W        W20679  16.018   8.954  12.381  0.1607  0.2749  0.1281
 4606W        W20680   7.833  10.753  13.718 -0.0897  0.0539 -0.0728
 4607W        W20681  13.447  12.211  13.534  0.0455  0.0154 -0.0005
 4608W        W20682  11.271  14.016   3.746 -0.0572  0.2492  0.2076
 4609W        W20683   4.398   8.424   2.232  0.0514 -0.1011 -0.0823
 4610W        W20684  16.632  14.026   1.330 -0.1055  0.1082 -0.0718
 4611W        W20685  14.097  15.192   2.648  0.3564  0.2365  0.0200
 4612W        W20686   5.435   0.313   2.704 -0.2451 -0.1416  0.2166
 4613W        W20687   6.256   4.274  17.071  0.1223 -0.3968 -0.1803
 4614W        W20688   6.065   3.778   2.214 -0.0760  0.2674 -0.3184
 4615W        W20689  14.894   2.036   2.167 -0.0555 -0.0051 -0.0760
 4616W        W20690  13.095   7.337  15.639 -0.2392  0.1791  0.1065
 4617W        W20691  10.458   8.159  11.821  0.0768 -0.3192  0.2640
 4618W        W20692   8.570  11.606   1.725  0.0304  0.0401 -0.4100
 4619W        W20693   4.250  11.405  16.154  0.0331  0.0153 -0.3453
 4620W        W20694   9.782   7.212   6.604  0.1927  0.0178  0.0484
 4621W        W20695  12.363   4.030   5.664 -0.0472 -0.0353 -0.2466
 4622W        W20696  15.506   9.194  13.698  0.0785 -0.1789 -0.1823
 4623W        W20697   3.669   6.406   0.645 -0.1117  0.0251 -0.2320
 4624W        W20698   1.065   9.490   2.217  0.3971  0.0462 -0.2053
 4625W        W20699  11.531   9.137   1.877  0.2901 -0.1765 -0.2824
 4626W        W20700   7.489   8.023   2.367 -0.3317  0.3137  0.2220
 4627W        W20701  13.164   4.022   5.115  0.3062  0.2206 -0.1655
 4628W        W20702  13.916   8.962  16.107 -0.0601 -0.2598  0.2728
 4629W        W20703   3.551   0.624   0.942 -0.0489 -0.0357  0.0270
 4630W        W20704   9.387  12.990   0.397 -0.1901 -0.1565 -0.0692
 4631W        W20705  13.438   4.386   2.011  0.2850  0.4265  0.0042
 4632W        W20706   9.133  11.071  13.190 -0.1457  0.1919 -0.0641
 4633W        W20707   2.606   5.972  14.726 -0.0002 -0.1629 -0.4628
 4634W        W20708  13.346   5.358  15.204  0.0861 -0.1731  0.0648
 4635W        W20709  12.012   3.408  14.370 -0.1609  0.0819  0.2239
 4636W        W20710  16.508  16.048  13.307 -0.1025 -0.2799  0.1831
 4637W        W20711  15.267  16.391  11.860  0.0882 -0.2018 -0.1656
 4638W        W20712  11.084   2.592   2.457 -0.5024  0.1935  0.2156
 4639W        W20713  15.042   5.520   1.083  0.0693  0.2094 -0.1009
 4640W        W20714   2.608   2.212  12.890  0.3662 -0.0572  0.0476
 4641W        W20715  14.730  12.802   5.663 -0.4043  0.0704 -0.0546
 4642W        W20716   1.689   5.503  15.992 -0.1801  0.1180  0.3293
 4643W        W20717   7.168   5.031  12.856  0.1238  0.1484  0.0476
 4644W        W20718  12.939   5.986   4.633 -0.3897 -0.0740  0.0841
 4645W        W20719   6.982   8.309   4.413 -0.2680  0.0911 -0.2959
 4646W        W20720   6.125   3.318   2.423 -0.1937 -0.0634  0.0110
 4647W        W20721   7.794  16.023   2.185 -0.1016  0.3155  0.1748
 4648W        W20722   0.461   2.610   1.574 -0.2206 -0.1657 -0.0051
 4649W        W20723  13.788   0.735  15.450 -0.3546 -0.1620  0.0163
 4650W        W20724  11.226   1.481   0.763  0.1148 -0.1668  0.2443
 4651W        W20725  17.033   8.216  15.526  0.2796  0.2300  0.1589
 4652W        W20726   1.030  13.804  10.886  0.1392  0.5100 -0.2239
 4653W        W20727  11.803  15.928   2.596  0.0382  0.1636 -0.0265
 4654W        W20728  12.787  13.189  14.093 -0.1145 -0.1422 -0.0656
 4655W        W20729  17.519  11.532   0.995 -0.0220  0.1937 -0.0168
 4656W        W20730  16.244   4.007   3.705 -0.0668 -0.1155  0.1012
 4657W        W20731  12.214  15.867   3.443 -0.2448 -0.2333 -0.1065
 4658W        W20732   6.908   1.829   5.462  0.1083  0.0197 -0.1990
 4659W        W20733   5.638   4.702  12.140  0.1702  0.1336 -0.0918
 4660W        W20734  13.682  13.218   3.240  0.1577 -0.2882  0.1840
 4661W        W20735  10.727   9.126   1.434  0.1514  0.1718  0.1826
 4662W        W20736  14.003  14.033  11.941 -0.1025  0.2928  0.2837
 4663W        W20737   0.914   9.687   1.789 -0.1127  0.0102  0.0536
 4664W        W20738   1.745  16.420   6.123 -0.0744  0.3819  0.0961
 4665W        W20739  14.763   3.861  13.906  0.2430 -0.4985 -0.1945
 4666W        W20740   7.899   6.121   5.043 -0.3329 -0.1323  0.2609
 4667W        W20741   3.951   1.662  15.241 -0.0361  0.2049  0.2358
 4668W        W20742   4.114   3.230  12.723 -0.3274 -0.1531  0.1825
 4669W        W20743  10.257  11.383  16.274  0.1604 -0.0396  0.1772
 4670W        W20744   9.752  14.068   1.741  0.2575 -0.1870 -0.1273
 4671W        W20745   1.196   2.366  14.925  0.0235 -0.2122  0.2674
 4672W        W20746  14.524  12.155  14.974  0.0022 -0.0539  0.1150
 4673W        W20747   4.616  16.334   5.194  0.0779 -0.3369  0.1734
 4674W        W20748  15.336   9.997  15.646  0.0562 -0.0452 -0.3331
 4675W        W20749  11.888  10.375   3.889  0.2252 -0.0738 -0.1153
 4676W        W20750   1.542  14.911  16.905  0.0146 -0.1143  0.0109
 4677W        W20751  14.840  11.034   1.372  0.0872 -0.0300 -0.0595
 4678W        W20752   6.829   8.627   4.777 -0.1036  0.2520 -0.0956
 4679W        W20753   0.781  10.461  16.610  0.1402 -0.0782 -0.2367
 4680W        W20754  11.828  16.581   1.835 -0.0479 -0.0899  0.4294
 4681W        W20755   5.511  11.248  13.298  0.0789  0.0525  0.1953
 4682W        W20756  14.410   8.770  16.704 -0.1040 -0.0747 -0.0989
 4683W        W20757  13.582  10.303  11.570  0.2534  0.0344  0.1041
 4684W        W20758   6.827  16.518   0.870  0.5540 -0.0641 -0.3407
 4685W        W20759  13.815   7.014  10.756 -0.0123 -0.2420 -0.2539
 4686W        W20760  12.234   3.705   3.906  0.2504  0.3099 -0.0688
 4687W        W20761   3.186  15.465  15.939  0.1201  0.0932 -0.1241
 4688W        W20762  15.881  13.625  16.950 -0.0491 -0.0324 -0.4296
 4689W        W20763  12.648   6.868   5.557  0.2535 -0.1942  0.0591
 4690W        W20764  11.741  16.728  14.501 -0.2495 -0.3214  0.0299
 4691W        W20765   0.745  13.503  12.432 -0.2204 -0.3214  0.0922
 4692W        W20766   8.031  14.472  12.202  0.0709 -0.0431  0.0511
 4693W        W20767   7.258  11.108  13.157  0.0291  0.1168 -0.2185
 4694W        W20768  11.171  10.834   1.208 -0.1358  0.1102  0.1912
 4695W        W20769   6.773   0.309   3.511 -0.1322 -0.1252  0.5731
 4696W        W20770   6.212   4.043  12.532  0.1065  0.0150 -0.1342
 4697W        W20771   7.879  17.429  16.438  0.1027  0.0067 -0.0538
 4698W        W20772   2.403  10.687   3.139  0.0794 -0.0406  0.3145
 4699W        W20773  12.049   2.613   5.607  0.2124 -0.1275 -0.0572
 4700W        W20774  16.517  16.679   3.221 -0.2559 -0.0199 -0.1685
 4701W        W20775   6.177  17.621   4.576 -0.1946 -0.0850  0.0885
 4702W        W20776  10.641  15.888   1.301 -0.2308 -0.0358 -0.0415
 4703W        W20777  13.631  13.641   3.950  0.0513  0.0391 -0.1298
 4704W        W20778   9.458  12.111   0.720  0.0374 -0.1059  0.1583
 4705W        W20779  12.294   8.815  11.834  0.2074  0.2891  0.0196
 4706W        W20780  12.753  14.231   2.491 -0.4321  0.1706  0.0417
 4707W        W20781   9.787  12.502  13.121  0.0714 -0.0824  0.0613
 4708W        W20782   9.993  17.295  15.666 -0.1156  0.1815 -0.0051
 4709W        W20783  12.249   6.510   2.039 -0.2675  0.0927  0.1569
 4710W        W20784   2.557  15.326  13.152  0.0279  0.4359  0.0897
 4711W        W20785   3.760   5.098   4.470 -0.1884  0.0990  0.0583
 4712W        W20786  10.480   6.234   4.956 -0.2055  0.0458  0.0387
 4713W        W20787  17.260  17.183   3.229  0.1800 -0.0090  0.0191
 4714W        W20788   8.608  14.076   4.239  0.1496  0.0528  0.0211
 4715W        W20789   7.120   7.888  15.381 -0.2236 -0.0241 -0.4201
 4716W        W20790  14.515  15.234   0.482 -0.1315 -0.1752 -0.2246
 4717W        W20791   7.393   8.978   1.633 -0.0187  0.0071 -0.3287
 4718W        W20792   9.630  13.715  15.025  0.1338 -0.0086 -0.0778
 4719W        W20793  15.304   0.618   1.024  0.1524  0.1526  0.0138
 4720W        W20794   5.746  17.175   3.070 -0.0404  0.0083  0.0803
 4721W        W20795   0.321  11.279   5.081 -0.1593 -0.0338  0.1374
 4722W        W20796  10.201   0.002   2.310 -0.2165 -0.1874 -0.0011
 4723W        W20797   4.283   5.865  16.915  0.2044 -0.1380 -0.0531
 4724W        W20798  17.490   0.773   5.061  0.0830 -0.2595 -0.0320
 4725W        W20799  17.262   4.082   0.506  0.0861  0.1550 -0.1145
 4726W        W20800  17.336   7.097  13.941  0.0536 -0.3883 -0.0741
 4727W        W20801   8.371  13.193   5.619 -0.0551 -0.2032  0.0618
 4728W        W20802   5.771   4.387   5.330  0.1760  0.1774  0.1363
 4729W        W20803   4.135  16.999   4.419 -0.2972  0.0944  0.2593
 4730W        W20804  14.798  17.197   2.198  0.2161  0.0051  0.2084
 4731W        W20805  11.030   6.997   2.986  0.2144 -0.0410 -0.1754
 4732W        W20806  15.445   3.099   0.470  0.0929 -0.0262  0.0514
 4733W        W20807  14.974  10.501  16.164  0.2168  0.0486 -0.3207
 4734W        W20808  12.767   0.113  16.965 -0.2020 -0.3867 -0.2275
 4735W        W20809  16.766  14.784  16.132 -0.3638  0.2890 -0.0378
 4736W        W20810   9.640   9.080  15.505  0.4525 -0.0700 -0.1731
 4737W        W20811   5.277   0.863  13.859 -0.1246  0.0915 -0.1827
 4738W        W20812   0.841  10.138  17.001 -0.2897  0.0354 -0.0378
 4739W        W20813  11.073   3.158  16.207  0.0300  0.0869 -0.0562
 4740W        W20814   2.078  17.278   4.686  0.0151  0.0469 -0.1674
 4741W        W20815   1.705   0.788   0.794  0.1325 -0.0193  0.3736
 4742W        W20816   8.173   8.339  13.279 -0.1576  0.0405  0.0996
 4743W        W20817   0.316  11.455   1.737 -0.3527  0.2275 -0.0124
 4744W        W20818  17.291   2.953  15.277  0.2083  0.0758  0.1318
 4745W        W20819  13.372   9.690  16.821 -0.0574 -0.1528 -0.0606
 4746W        W20820   4.219   2.417  15.305 -0.0940  0.1921 -0.0816
 4747W        W20821   7.179  16.406   4.648  0.0593 -0.0582  0.1448
 4748W        W20822  13.553   1.498  11.752  0.0037  0.0113  0.3523
 4749W        W20823   5.452   2.140  12.033  0.0399 -0.3385  0.0392
 4750W        W20824   8.188  16.224   6.409  0.1569 -0.2795  0.2665
 4751W        W20825   2.118  16.279   1.642  0.0877  0.1490  0.0480
 4752W        W20826   1.012   6.265   2.461  0.3423  0.1087 -0.0785
 4753W        W20827   1.965  13.823   1.623  0.0012  0.0204 -0.2855
 4754W        W20828   5.893  16.238   0.246  0.0457  0.0314  0.0393
 4755W        W20829  17.359  12.007  15.592 -0.1781 -0.1134 -0.0373
 4756W        W20830   8.559  15.666   3.450  0.0086 -0.1679  0.3080
 4757W        W20831   9.254   5.825   0.289 -0.0002 -0.1565  0.1227
 4758W        W20832   8.704  16.524   2.993  0.4048  0.0952 -0.0338
 4759W        W20833   8.200   2.133   5.162  0.1537 -0.2308 -0.0193
 4760W        W20834  10.969   8.280   5.946  0.1511 -0.2473  0.2512
 4761W        W20835   4.059  14.412  14.812  0.1332 -0.1251  0.2563
 4762W        W20836  11.008   4.249  16.252 -0.2446  0.2539  0.1217
 4763W        W20837  17.332   9.374  16.058 -0.0298 -0.2052 -0.1734
 4764W        W20838   6.838  10.119   0.263 -0.3022 -0.1880  0.2566
 4765W        W20839   9.055   9.710   2.577  0.3250 -0.1531  0.2982
 4766W        W20840   5.858  16.961  13.887  0.2020  0.1622  0.1883
 4767W        W20841  13.630   6.364   1.997  0.1804  0.0061  0.3294
 4768W        W20842   4.717  13.714  14.385 -0.0791  0.2195 -0.0575
 4769W        W20843   6.950   7.627   0.056  0.0241  0.2301  0.0008
 4770W        W20844   0.972   4.661  13.123 -0.0680  0.2107 -0.2287
 4771W        W20845   0.539   6.202  14.617 -0.1304  0.0452 -0.1004
 4772W        W20846   2.879   2.752   3.118  0.1454  0.1946 -0.0203
 4773W        W20847  11.542  17.444   0.048 -0.0306 -0.0683 -0.2400
 4774W        W20848  12.642   4.739  11.820  0.0090  0.0285 -0.1595
 4775W        W20849   3.445  12.194  13.699  0.2423  0.1381 -0.1694
 4776W        W20850  14.715   9.993   1.632 -0.0037 -0.0294  0.2833
 4777W        W20851  15.850  15.752  12.460 -0.0728  0.0112 -0.0576
 4778W        W20852   4.662   4.357   2.883  0.0837 -0.1245  0.1764
 4779W        W20853   8.209   1.907  13.022  0.0771 -0.2090 -0.3504
 4780W        W20854  12.468   7.801   1.891 -0.1149 -0.1405  0.1446
 4781W        W20855  13.960  17.672   5.576  0.0806  0.1200  0.0621
 4782W        W20856   2.597  13.432  11.962  0.3002 -0.0238  0.1533
 4783W        W20857  12.711   8.559   2.321  0.4804  0.1954 -0.1613
 4784W        W20858   7.001  11.374  12.107  0.1262  0.1467 -0.3241
 4785W        W20859   9.881  12.114   3.449 -0.3324  0.1253 -0.1651
 4786W        W20860  11.215  10.093  16.091 -0.1145  0.3438 -0.1679
 4787W        W20861   1.115   7.961  13.111  0.0032  0.0786  0.1289
 4788W        W20862   1.377  14.614  14.536 -0.1197 -0.1729 -0.2479
 4789W        W20863   3.044   7.975  17.130  0.4596  0.0107 -0.5269
 4790W        W20864   5.770  15.516  14.909  0.0007  0.0365 -0.0945
 4791W        W20865  11.995  16.334   3.499 -0.1028  0.1258 -0.1969
 4792W        W20866   6.202   6.132  14.248 -0.0105 -0.1518 -0.0530
 4793W        W20867   0.796   9.292  11.601  0.0668  0.2007 -0.0932
 4794W        W20868  17.152  13.444  13.816 -0.2440  0.0160 -0.0940
 4795W        W20869   9.260   7.251   2.493  0.0503  0.3135  0.0342
 4796W        W20870  13.529  10.480   0.754  0.1566 -0.2710  0.1795
 4797W        W20871   6.812  15.293  13.980  0.0878  0.3671 -0.4706
 4798W        W20872   7.628  12.584   4.496 -0.0746  0.0246  0.2666
 4799W        W20873   5.972   7.279  11.552  0.1037  0.1401 -0.2368
 4800W        W20874   7.460   1.839   5.274 -0.0437  0.3638 -0.4333
 4801W        W20875   5.599  14.370  11.193  0.0839  0.0974 -0.0794
 4802W        W20876   5.801  16.390   1.333  0.0528  0.0533 -0.0168
 4803W        W20877  14.812  11.062   0.869  0.5839  0.3630 -0.0457
 4804W        W20878   9.439   9.093   4.768 -0.1451 -0.0969 -0.3493
 4805W        W20879   6.217   8.267   2.770  0.0374  0.0159 -0.3185
 4806W        W20880   5.703  16.013  13.535  0.0106  0.0155 -0.1582
 4807W        W20881  13.914  17.106   4.086  0.1040 -0.0467  0.2671
 4808W        W20882  11.845  11.391   2.583  0.1104  0.0592 -0.0300
 4809W        W20883  15.414  10.225  16.528  0.0407  0.0687  0.0900
 4810W        W20884  10.660   0.827  15.398  0.1329 -0.0259  0.1111
 4811W        W20885   2.050  11.152  14.939  0.2008  0.1843 -0.1272
 4812W        W20886  14.780  11.790  11.885 -0.0690  0.2393  0.0881
 4813W        W20887  15.937  17.362  13.332 -0.0644  0.1904  0.0997
 4814W        W20888  14.501   9.946  14.336  0.0547  0.1912 -0.0471
 4815W        W20889  11.082  12.451   0.736  0.2207 -0.0966  0.0878
 4816W        W20890   6.492   3.440  11.970  0.2997  0.0540 -0.1712
 4817W        W20891  12.823   3.535  15.710  0.1909 -0.0989 -0.1569
 4818W        W20892  14.768  16.690  14.096 -0.0268 -0.1731 -0.4063
 4819W        W20893  16.483   7.849  16.721 -0.0224 -0.1698 -0.1160
 4820W        W20894   1.788   3.671   2.396 -0.1533 -0.0327 -0.1751
 4821W        W20895   2.166   6.433   1.407 -0.0056 -0.1677 -0.1278
 4822W        W20896  13.322   1.834  13.013 -0.4282 -0.1642 -0.3956
 4823W        W20897   0.805  13.150  15.125  0.2061  0.0002 -0.1405
 4824W        W20898   4.307   0.017   4.032 -0.4269 -0.1005  0.0656
 4825W        W20899   2.527   8.892   3.018 -0.3487  0.1268  0.1360
 4826W        W20900  12.308   8.163  13.497  0.1175  0.0913  0.0990
 4827W        W20901   4.624   0.551  14.136 -0.1642 -0.1239  0.2186
 4828W        W20902   0.666  12.502  12.689  0.2446  0.2182  0.0087
 4829W        W20903   7.571  10.733  16.332  0.0537  0.1088 -0.0352
 4830W        W20904   6.369   7.781   1.369 -0.1321 -0.4277 -0.1283
 4831W        W20905   8.480  14.881   4.752  0.3235  0.0014  0.0677
 4832W        W20906   4.496  17.594   2.591  0.2810  0.1399 -0.2837
 4833W        W20907  14.451  15.364   1.689 -0.2247  0.0803  0.1544
 4834W        W20908  16.693   5.631  15.404 -0.3361 -0.2161  0.0024
 4835W        W20909  15.719   7.003   1.827  0.2562  0.3629  0.0537
 4836W        W20910  11.314  15.745   4.263  0.0761 -0.2257 -0.1115
 4837W        W20911  11.146   6.375  13.338 -0.0764 -0.0292  0.0179
 4838W        W20912   3.423   3.304  16.140 -0.2144  0.0473  0.3129
 4839W        W20913   2.482   5.193   4.099 -0.0209  0.3077  0.1092
 4840W        W20914   5.636   1.777   4.887 -0.1569 -0.2547 -0.0419
 4841W        W20915  12.582   9.132   2.438  0.4657 -0.0767 -0.2646
 4842W        W20916   8.542   9.721  16.185  0.1140 -0.1769  0.0624
 4843W        W20917   1.990  12.178  12.816 -0.2462  0.0228  0.0946
 4844W        W20918  12.197  11.033   1.805 -0.0756 -0.2156  0.0633
 4845W        W20919  12.867   1.973   1.378 -0.1647 -0.3500 -0.3003
 4846W        W20920   2.664   5.892  12.037 -0.0956 -0.1300  0.0101
 4847W        W20921  13.924  16.124   4.849  0.0832  0.0467 -0.1699
 4848W        W20922   0.724   3.069  14.331 -0.2067  0.2649 -0.1944
 4849W        W20923   6.467   4.330   1.519 -0.0348  0.0336  0.2983
 4850W        W20924  16.646   0.311   0.561  0.1551 -0.2967  0.0539
 4851W        W20925  13.507   2.264  14.991  0.1268 -0.0052 -0.1665
 4852W        W20926  14.706   9.743  15.667  0.0987 -0.0705 -0.1551
 4853W        W20927  15.137  16.441   4.254  0.3738 -0.0398 -0.0382
 4854W        W20928   2.529  16.276  16.760  0.1382  0.0141  0.1758
 4855W        W20929   1.211  13.108  13.968 -0.2488 -0.0512 -0.0765
 4856W        W20930   2.296   5.093   5.600 -0.0170  0.1509 -0.0282
 4857W        W20931  10.690   0.118   3.141  0.1028 -0.0263  0.1115
 4858W        W20932  14.331   9.556  15.894  0.0682  0.0598 -0.1118
 4859W        W20933   8.341  15.936  13.429  0.0969 -0.0674  0.2482
 4860W        W20934   0.007  13.988  13.776 -0.1611 -0.5799  0.1518
 4861W        W20935  13.114  17.124  12.587  0.3842 -0.0416 -0.2161
 4862W        W20936   3.100   1.093   4.501  0.0245  0.2115 -0.0780
 4863W        W20937  11.430  14.476   4.611  0.1520 -0.0376 -0.1655
 4864W        W20938   0.002   8.738  14.423  0.1212 -0.0053  0.1279
 4865W        W20939  10.529  16.808  13.214  0.1072 -0.1915 -0.3314
 4866W        W20940   6.843   4.081   4.876  0.1619 -0.0258  0.0028
 4867W        W20941  11.840   6.326   3.438  0.0940 -0.1791 -0.3132
 4868W        W20942   1.360  14.079  13.604 -0.4753  0.0273 -0.3227
 4869W        W20943   0.533  12.746  13.447  0.2627  0.2543 -0.1736
 4870W        W20944  12.985  12.493   5.057  0.0770 -0.0039 -0.2564
 4871W        W20945  10.277  17.582   4.460  0.1749 -0.1475 -0.3536
 4872W        W20946   7.929   7.497  12.042 -0.2542 -0.3073  0.1746
 4873W        W20947   1.107  11.498  14.889 -0.3823  0.2496 -0.0155
 4874W        W20948   5.208  14.934   5.245 -0.0561  0.0413  0.1790
 4875W        W20949   2.910  16.042  14.813 -0.1224  0.0749  0.1708
 4876W        W20950  14.746   8.176  12.137 -0.0523 -0.1309 -0.1231
 4877W        W20951  17.339   9.605   4.818 -0.5514  0.1180 -0.1085
 4878W        W20952   4.876   6.590   3.578 -0.0282  0.1134 -0.4607
 4879W        W20953   0.010  14.337   1.639  0.0325  0.0498  0.1599
 4880W        W20954   1.549   1.959   4.789 -0.1023 -0.0449 -0.0695
 4881W        W20955  13.854  14.924  16.542 -0.2155 -0.1121  0.0431
 4882W        W20956   8.213   5.065  15.380 -0.0494  0.0900  0.3441
 4883W        W20957  10.134   4.815  14.679  0.2787 -0.1979  0.0170
 4884W        W20958   7.193  12.695   0.791 -0.1375  0.1139  0.4436
 4885W        W20959  13.348   7.401   3.910 -0.0203  0.1600  0.0179
 4886W        W20960  13.843   9.457   0.421  0.0064 -0.1027 -0.0953
 4887W        W20961   1.829  11.888   2.832 -0.0209 -0.1990 -0.1233
 4888W        W20962   1.241   2.361  14.445  0.3302 -0.0847 -0.1293
 4889W        W20963  12.942   9.193   4.982 -0.0551  0.2126 -0.0541
 4890W        W20964   3.786   9.309  12.824 -0.2249 -0.0304 -0.1650
 4891W        W20965  13.759  14.352  14.408  0.1940  0.0751  0.0263
 4892W        W20966   4.082  15.470   4.530 -0.2590  0.0397  0.0135
 4893W        W20967  16.152  15.661  12.851  0.3667  0.0752  0.2905
 4894W        W20968  16.625  16.114  16.880 -0.1933  0.1417  0.4436
 4895W        W20969   0.147  12.676   2.230  0.0257 -0.2588 -0.0533
 4896W        W20970  13.847   8.328   0.075 -0.1113 -0.0389 -0.1592
 4897W        W20971  15.500   4.068  13.286  0.0519 -0.3906  0.0843
 4898W        W20972  10.610   6.933  12.403 -0.1130 -0.1231 -0.2712
 4899W        W20973   8.816   5.658   4.912  0.1640  0.0388 -0.2046
 4900W        W20974   0.979  17.082  15.434 -0.2653  0.1887  0.1158
 4901W        W20975   5.662   9.559  12.776  0.0346  0.2161 -0.0085
 4902W        W20976  13.857   1.158  15.739  0.0451  0.0277 -0.0954
 4903W        W20977  17.356   1.149   4.152  0.0521  0.0703 -0.0034
 4904W        W20978   4.919   9.438   2.919  0.1607  0.1322 -0.0574
 4905W        W20979  17.427   4.385   4.552  0.1435 -0.4040  0.1428
 4906W        W20980  12.557   7.411   0.436 -0.0681 -0.1485 -0.0881
 4907W        W20981   5.560  11.869   1.036  0.3396 -0.0629  0.1210
 4908W        W20982  14.296   4.941   5.486 -0.1657  0.0429 -0.0018
 4909W        W20983   0.092   8.234  16.970 -0.0719 -0.1274  0.1329
 4910W        W20984   8.992  12.633   1.870 -0.2411  0.0305 -0.1298
 4911W        W20985   8.495  12.598  12.157 -0.1553  0.2161 -0.5167
 4912W        W20986   7.415   2.337   0.213 -0.3062  0.2908 -0.2065
 4913W        W20987   0.572   4.145  15.491 -0.1805 -0.2409 -0.0096
 4914W        W20988   6.235  11.836   4.071 -0.1496 -0.0607 -0.2888
 4915W        W20989   7.760   3.783   3.117 -0.2705  0.1779 -0.3930
 4916W        W20990  15.097   3.621   0.885 -0.0100  0.0533  0.4334
 4917W        W20991  13.590   9.318   1.373  0.1688 -0.0033 -0.2241
 4918W        W20992  14.318  15.293   4.032 -0.1144  0.4624  0.0274
 4919W        W20993  16.673  11.824   1.519 -0.2354 -0.0469 -0.1205
 4920W        W20994  13.639  11.196  13.561 -0.2949  0.0885  0.3719
 4921W        W20995  15.417  12.272  13.478 -0.0600  0.1014  0.0027
 4922W        W20996  16.933   2.226   2.088  0.0829  0.0806  0.1029
 4923W        W20997   3.939   1.968   4.850 -0.0946 -0.0276  0.1777
 4924W        W20998  12.684  16.106  14.956  0.1430  0.0204 -0.0223
 4925W        W20999   9.862  10.344   4.431 -0.0790  0.2533  0.1506
 4926W        W21000  13.504  15.042  15.153  0.0057 -0.1053  0.1190
 4927W        W21001  14.188   7.394  16.520 -0.1626 -0.0312 -0.1009
 4928W        W21002  17.312   2.451  12.256  0.0168  0.1214  0.0644
 4929W        W21003  14.990   5.656  14.633  0.1885  0.0237  0.1448
 4930W        W21004   9.340   1.850  11.859  0.0113  0.0570 -0.1170
 4931W        W21005   2.707   3.131   0.562  0.0248  0.1742  0.1103
 4932W        W21006   3.691  11.664  16.259 -0.0660 -0.3097  0.0532
 4933W        W21007  12.108   8.503  11.504 -0.1180 -0.1285  0.2372
 4934W        W21008  15.543   5.743   5.476 -0.1966 -0.0653 -0.0498
 4935W        W21009   2.324   7.610   4.331  0.1233 -0.1660 -0.1529
 4936W        W21010   0.449  11.449   4.037  0.1398  0.0987  0.2455
 4937W        W21011   7.845  11.401   2.186  0.0447 -0.1246  0.0943
 4938W        W21012   6.258   5.591   4.727  0.0733 -0.1419  0.0268
 4939W        W21013   6.683   6.607   2.171 -0.0076  0.1206 -0.2394
 4940W        W21014  13.636  15.335   4.195 -0.0121  0.2352 -0.3413
 4941W        W21015   5.374   2.682  13.729 -0.1382  0.2270  0.0070
 4942W        W21016  14.003   8.610   3.471  0.1520 -0.2905  0.0407
 4943W        W21017   4.656   9.298  15.670  0.0876  0.1963 -0.1793
 4944W        W21018   6.769   0.695  14.164 -0.1349 -0.1085  0.2886
 4945W        W21019   8.844   8.209   2.125 -0.1396 -0.0181  0.2056
 4946W        W21020   2.416   4.786   3.490  0.1269  0.0336  0.1992
 4947W        W21021   3.762   2.579   0.107 -0.2760  0.1041  0.0778
 4948W        W21022  15.878  15.809  16.005 -0.0431  0.0554 -0.0629
 4949W        W21023  12.418  12.481  15.128  0.2461 -0.0892 -0.1219
 4950W        W21024   3.290  14.012   3.009 -0.0864 -0.0298 -0.1172
 4951W        W21025  12.206  14.627  12.778  0.1360  0.1833 -0.0973
 4952W        W21026   6.124  13.292  16.229 -0.0272 -0.3064  0.1332
 4953W        W21027  15.727   8.572  13.140 -0.2080 -0.1073  0.3479
 4954W        W21028  12.729   9.003   3.356 -0.1356 -0.3195  0.0613
 4955W        W21029   1.031   5.723   2.695 -0.0335  0.0111 -0.1173
 4956W        W21030   0.513  13.930  12.210  0.0406 -0.3022 -0.0475
 4957W        W21031   5.036  11.990  13.682  0.1098 -0.2141 -0.3104
 4958W        W21032  10.384   7.270   1.788  0.0834  0.1485 -0.0376
 4959W        W21033   6.440   7.732   0.322  0.2062  0.0904  0.1911
 4960W        W21034   2.364   6.978   5.937  0.0538 -0.0731 -0.0290
 4961W        W21035  13.796   3.152  15.827  0.2535 -0.0919  0.1312
 4962W        W21036   7.103  15.097   4.645  0.0439  0.0500 -0.0267
 4963W        W21037   4.119  10.174   4.318  0.1958  0.0144 -0.0632
 4964W        W21038   5.550   4.990  13.615  0.0221 -0.1275 -0.1191
 4965W        W21039  14.829  17.339   1.386 -0.0073  0.1974  0.1557
 4966W        W21040  12.806   1.549   4.361 -0.0773 -0.2569 -0.0512
 4967W        W21041   1.486   1.644   0.300  0.0027 -0.0926  0.0096
 4968W        W21042   1.037   5.875  13.448  0.1545  0.0467  0.0815
 4969W        W21043  10.439   7.496   2.445  0.0522  0.2597 -0.3056
 4970W        W21044   1.587   9.515  16.695  0.0806 -0.0710 -0.0014
 4971W        W21045   0.329   1.123  13.070 -0.0003  0.2318  0.0127
 4972W        W21046   0.977   4.940   2.281  0.3305 -0.0588  0.3253
 4973W        W21047   5.525  12.423  13.101 -0.2402  0.0190  0.0267
 4974W        W21048   3.646  16.571  13.166  0.1131  0.4800  0.2305
 4975W        W21049  13.507  11.526   3.828  0.3292  0.0578  0.2225
 4976W        W21050   2.771  16.872  13.056  0.0588 -0.2492  0.0987
 4977W        W21051   3.524   9.130  12.427  0.0681  0.2319 -0.1510
 4978W        W21052   0.552  13.275   3.538 -0.0645 -0.0480 -0.3360
 4979W        W21053   9.001   8.225  13.839  0.1138  0.1579 -0.0121
 4980W        W21054   4.177   1.977  16.178 -0.1353  0.0229 -0.0165
 4981W        W21055   6.352   4.053   2.542  0.3217  0.1272  0.0264
 4982W        W21056   4.492   2.535  12.008  0.2071 -0.1987  0.0460
 4983W        W21057  17.445   2.703  16.008  0.3205  0.1869 -0.2242
 4984W        W21058  16.653  11.320   4.667  0.0182 -0.0667 -0.2362
 4985W        W21059  10.701   4.882   3.891  0.1681 -0.1419 -0.2008
 4986W        W21060   2.093   4.990   1.028 -0.0936  0.0061 -0.0044
 4987W        W21061  13.376   8.591   0.125 -0.0222 -0.0855 -0.2696
 4988W        W21062   4.625   1.818  17.018  0.1122  0.1562  0.0368
 4989W        W21063  15.281   5.877  11.775 -0.1896  0.0767 -0.0023
 4990W        W21064  13.300   4.666   2.498  0.0314  0.0813 -0.1019
 4991W        W21065   0.063  17.442   4.911 -0.0013 -0.1104  0.3205
 4992W        W21066   8.544   3.686   4.521 -0.3453 -0.4061 -0.3845
 4993W        W21067   7.942  11.005  16.625 -0.1270  0.0655 -0.4153
 4994W        W21068   3.729  17.503   5.775  0.0262 -0.0318  0.1287
 4995W        W21069   3.214  17.678  12.022  0.0292  0.2645  0.0600
 4996W        W21070  10.317  16.704  11.906 -0.1064 -0.2636 -0.1162
 4997W        W21071   6.857   4.056   2.567 -0.3150 -0.2303 -0.1908
 4998W        W21072  14.063   8.798  12.332 -0.0500  0.0353 -0.1631
 4999W        W21073   8.996   0.733   1.366 -0.1425 -0.1112  0.1545
 5000W        W21074   3.779   9.177   5.229  0.0805  0.0905 -0.0035
 5001W        W21075   7.798   8.788   5.141  0.0628  0.0623  0.0994
 5002W        W21076   5.542   3.021  12.915 -0.1166  0.1903 -0.0119
 5003W        W21077   9.469   7.157  16.987  0.0171 -0.3521 -0.1193
 5004W        W21078  14.747  13.089  13.016 -0.0504  0.1716 -0.1294
 5005W        W21079  11.857  13.196   4.296 -0.0677 -0.0670  0.0995
 5006W        W21080   1.955  14.092   5.970  0.1537 -0.0623 -0.1468
 5007W        W21081   4.590   0.915   3.484  0.1035 -0.1597 -0.0141
 5008W        W21082  14.725   8.090  16.356  0.0629 -0.2107 -0.1583
 5009W        W21083  12.113   7.913  16.942  0.1251  0.1772 -0.0740
 5010W        W21084   2.181  15.994   0.307  0.0587  0.1326  0.2624
 5011W        W21085  16.979   4.605   0.650 -0.0977 -0.1286 -0.0141
 5012W        W21086  17.084  15.644  16.241  0.0398  0.3003 -0.1410
 5013W        W21087   2.083   0.414  14.426 -0.1391 -0.1116 -0.2846
 5014W        W21088   7.845   9.790   0.219  0.3076 -0.1270  0.0582
 5015W        W21089   0.765   6.930  15.492 -0.0739  0.0413 -0.0369
 5016W        W21090   5.150   3.367   6.660  0.0646  0.2206 -0.1194
 5017W        W21091  10.375  16.982   5.407 -0.2959  0.0560  0.2995
 5018W        W21092   0.960   0.151  16.066 -0.2463 -0.0568  0.1571
 5019W        W21093   3.180  15.551   4.423 -0.4397  0.3048  0.0437
 5020W        W21094   0.510  15.294  12.276  0.2283 -0.1827  0.0259
 5021W        W21095   8.305   8.866   1.047  0.0492 -0.1772 -0.0384
 5022W        W21096   5.747  12.733   0.582  0.2730  0.0067  0.2764
 5023W        W21097   1.913  10.469  13.542  0.2135  0.0241  0.0508
 5024W        W21098   4.861  13.848   5.085 -0.2359 -0.1087 -0.0772
 5025W        W21099   8.336   6.843  12.540  0.3816  0.2160 -0.1331
 5026W        W21100   8.299   9.556  11.945 -0.1591 -0.0456  0.2192
 5027W        W21101   9.315   1.366  11.753  0.0454 -0.2063  0.0939
 5028W        W21102   1.276   7.421  12.043  0.1245  0.0474  0.0940
 5029W        W21103   4.390  16.124  11.992 -0.0760 -0.1415 -0.0080
 5030W        W21104   8.012   0.687  14.876  0.2052 -0.1053 -0.1336
 5031W        W21105   9.003   7.266  16.683 -0.2802 -0.1988 -0.0988
 5032W        W21106   5.741  16.192   4.255  0.0652  0.0431  0.1501
 5033W        W21107   1.483  10.896   5.923 -0.1211 -0.1182  0.1168
 5034W        W21108  17.382  10.029  16.853  0.1208  0.1302 -0.0312
 5035W        W21109   7.178   2.423  15.868  0.0871 -0.0791  0.2858
 5036W        W21110  10.729  11.339   5.219 -0.2417 -0.3878 -0.0861
 5037W        W21111   4.077  11.237  15.250  0.2857 -0.2986  0.1596
 5038W        W21112   7.484  12.999   4.357 -0.1547 -0.1391 -0.1952
 5039W        W21113  13.813   7.416   2.798  0.0883 -0.1894 -0.0451
 5040W        W21114   1.713  14.460  16.723  0.0424 -0.0303 -0.0174
 5041W        W21115   2.560   4.757   1.074 -0.0268 -0.0369 -0.0364
 5042W        W21116   7.824   9.232   5.234  0.1022 -0.3031  0.1024
 5043W        W21117  10.077  15.409  14.232 -0.1351  0.0509  0.0618
 5044W        W21118  13.432  15.426   1.998 -0.0346 -0.0880 -0.0545
 5045W        W21119   7.800  17.556   5.036 -0.0358  0.0511  0.1428
 5046W        W21120  13.033   1.168   0.238  0.0087 -0.0654 -0.2232
 5047W        W21121  13.175   9.271  14.844  0.1724 -0.0162 -0.0233
 5048W        W21122  10.490  17.270  12.030  0.1177  0.3071  0.3998
 5049W        W21123   1.945   3.399  16.037  0.0367  0.1321 -0.0041
 5050W        W21124   3.341  17.389   4.106 -0.0024  0.0453 -0.1690
 5051W        W21125  12.236   9.763  16.303 -0.0382 -0.0369 -0.3240
 5052W        W21126   5.555  14.999   1.120  0.2098  0.1877  0.2521
 5053W        W21127  11.395  15.888   2.883 -0.1944  0.0475  0.0564
 5054W        W21128   1.884   5.042  13.970 -0.0175  0.1076 -0.1198
 5055W        W21129   5.536  12.235   1.389  0.3483  0.0780  0.1793
 5056W        W21130   8.374   1.079   5.303 -0.2192 -0.1978  0.0607
 5057W        W21131  10.763  15.735  16.256 -0.1724 -0.2471  0.0842
 5058W        W21132  11.216  17.654  16.198 -0.0114  0.0693 -0.0728
 5059W        W21133  11.804   8.737  12.657 -0.3746  0.3377 -0.1306
 5060W        W21134   3.957   9.302   3.287  0.0639  0.0968 -0.0341
 5061W        W21135  10.637   6.240   0.597  0.1370  0.0674  0.2527
 5062W        W21136   0.392   5.153   5.802 -0.0056 -0.3224  0.1670
 5063W        W21137   9.724  11.008   1.959  0.2860 -0.1196  0.1440
 5064W        W21138   3.781  17.578   1.496  0.0760 -0.0178  0.2176
 5065W        W21139   5.076  12.711   2.942  0.1630  0.3438 -0.0493
 5066W        W21140  15.736   7.722   2.478 -0.1959 -0.1903  0.1989
 5067W        W21141  10.681   5.096   3.420  0.0469 -0.4149  0.0046
 5068W        W21142  10.914  16.629  16.045  0.2537  0.1611 -0.1159
 5069W        W21143  14.544   2.995   2.887  0.2894 -0.1334 -0.2386
 5070W        W21144  13.071  15.774  16.332  0.1214 -0.3038  0.0778
 5071W        W21145   7.326  17.227  16.657 -0.0649  0.0721 -0.0221
 5072W        W21146   4.990  13.718   1.275 -0.0607  0.2714 -0.0973
 5073W        W21147   8.682   5.523   1.302  0.1082 -0.2384 -0.3090
 5074W        W21148   5.396   4.223  11.884  0.0167 -0.0716  0.0693
 5075W        W21149   0.460  14.386   1.467 -0.1308  0.0844  0.3116
 5076W        W21150  15.759   0.523  15.642 -0.1610  0.3100 -0.0423
 5077W        W21151  16.929   2.832  12.900 -0.0334  0.0165 -0.1469
 5078W        W21152  13.463  17.577   2.504 -0.0806  0.4362 -0.1165
 5079W        W21153  15.046   9.748  15.275  0.1784  0.0176  0.3409
 5080W        W21154   0.255  10.955   1.814  0.1154  0.2599 -0.1250
 5081W        W21155   6.961  10.267  13.412  0.0953  0.0131 -0.0850
 5082W        W21156  17.542   3.756  15.319 -0.0508  0.0371  0.0255
 5083W        W21157  15.293  10.051  14.647 -0.2087 -0.2293  0.1899
 5084W        W21158  15.274  17.172   3.268  0.0156  0.1530  0.1792
 5085W        W21159   6.641  10.235   6.604  0.3496 -0.2485  0.1784
 5086W        W21160  13.143   4.773  13.535 -0.2280 -0.0566  0.0189
 5087W        W21161   4.345  16.619   2.791  0.0863 -0.0432  0.0301
 5088W        W21162  10.397  14.169   3.254  0.0405  0.1509  0.0730
 5089W        W21163  14.688  14.077   3.611 -0.0882 -0.0181  0.3332
 5090W        W21164  17.396   9.751  14.473  0.0823  0.0096 -0.0610
 5091W        W21165  17.502  13.817   3.783  0.1659 -0.2301  0.2226
 5092W        W21166  10.810   1.567   2.785 -0.3474  0.0818 -0.1225
 5093W        W21167   2.987  12.232   0.663  0.2330 -0.0116 -0.1667
 5094W        W21168   5.597  16.782   5.325 -0.0456  0.4644  0.2409
 5095W        W21169  15.068   6.427   1.890 -0.0875  0.1602 -0.0930
 5096W        W21170   6.136   9.713   4.629 -0.2462 -0.0571 -0.0973
 5097W        W21171  12.623   1.404   4.993  0.2647  0.1521 -0.0049
 5098W        W21172   8.737  12.112   3.065 -0.1190  0.1445 -0.2836
 5099W        W21173   1.668  10.872   3.690 -0.0457  0.0469  0.1711
 5100W        W21174   2.325   8.733  15.251 -0.2485 -0.3474 -0.0087
 5101W        W21175  12.329   5.734  16.917  0.0787  0.0444 -0.2235
 5102W        W21176  16.626  13.827   5.509  0.1595  0.2178 -0.4446
 5103W        W21177  14.579   0.759  16.969  0.0613 -0.1427 -0.2285
 5104W        W21178   0.852  11.974  15.673  0.0681 -0.1216 -0.2603
 5105W        W21179  14.192   1.865   2.360  0.1092 -0.0686 -0.1254
 5106W        W21180   1.076  15.510   1.992  0.0482  0.1861 -0.2098
 5107W        W21181   4.233   4.371  15.963 -0.1316  0.2679  0.2354
 5108W        W21182  16.481   9.821  16.811 -0.0068 -0.2506 -0.1248
 5109W        W21183  14.038   3.926   1.226 -0.0911 -0.0943  0.1649
 5110W        W21184   1.607  17.516  13.556 -0.1215 -0.2198 -0.1413
 5111W        W21185  14.548  10.473  12.873  0.1459  0.1204 -0.1435
 5112W        W21186  12.338   9.759  11.715  0.0762  0.1492 -0.0263
 5113W        W21187   4.030   5.476  12.599 -0.0609  0.0040  0.0924
 5114W        W21188   0.457  13.202   1.591 -0.1493 -0.1136  0.0895
 5115W        W21189   7.626   9.588   2.646  0.1467  0.0510  0.3635
 5116W        W21190   1.290  13.775  14.711 -0.1677  0.2350  0.0682
 5117W        W21191   8.650   7.482   0.410 -0.0836 -0.0579  0.0275
 5118W        W21192   6.574   3.913  12.145  0.0851  0.0973  0.2684
 5119W        W21193   9.582   0.444  16.649 -0.0102 -0.2380  0.0971
 5120W        W21194  10.865   6.180   6.526 -0.1053 -0.0542 -0.2392
 5121W        W21195   3.375   3.211   2.520  0.1568  0.2583  0.0045
 5122W        W21196  15.869   1.578   6.293  0.2569 -0.0088 -0.2123
 5123W        W21197   9.465  15.616  12.119  0.1260 -0.1391 -0.3940
 5124W        W21198   1.087   3.565   1.770  0.1274  0.1622 -0.0571
 5125W        W21199   1.120   2.587   2.446  0.2753  0.2332  0.2835
 5126W        W21200  16.666  11.649   0.903  0.4965  0.0208 -0.2289
 5127W        W21201  15.202   4.559  15.792  0.1720  0.0422  0.1424
 5128W        W21202   5.594   3.576   2.305  0.1153 -0.1254 -0.3710
 5129W        W21203   3.496   9.694  14.725 -0.1522  0.2796 -0.0119
 5130W        W21204  13.554   5.631  13.172 -0.0447  0.1892  0.0071
 5131W        W21205   2.931  15.291   4.799 -0.0647 -0.3025  0.1273
 5132W        W21206   7.449   2.923  16.672 -0.1503 -0.0856 -0.2423
 5133W        W21207   0.463   0.756   3.673  0.1038  0.0230 -0.0812
 5134W        W21208   1.299   0.425  14.067 -0.1172 -0.0059 -0.1354
 5135W        W21209   4.866   6.687  10.527 -0.0480 -0.1188 -0.2899
 5136W        W21210  13.061  16.468   6.432  0.2293  0.3790  0.1765
 5137W        W21211   3.573  11.802   1.448  0.0281 -0.0666 -0.1409
 5138W        W21212   6.055  10.100  15.811  0.0772 -0.0487  0.1293
 5139W        W21213  16.343   2.852  15.609 -0.4460  0.0563 -0.1360
 5140W        W21214   7.294  15.225   0.698 -0.1131  0.0321 -0.2865
 5141W        W21215  15.075   7.692  13.962  0.0400  0.0940  0.3825
 5142W        W21216   1.838  16.584  13.578 -0.0260 -0.0989  0.1256
 5143W        W21217   7.535   1.745   3.018 -0.1152  0.0070  0.0217
 5144W        W21218   6.300   4.130   0.732  0.1703  0.2314 -0.0474
 5145W        W21219  15.356   7.934  11.889  0.1205  0.0670 -0.0697
 5146W        W21220   3.700  17.706  16.134 -0.1246  0.0718 -0.0533
 5147W        W21221  16.498   2.342   1.877  0.2508  0.1428 -0.1926
 5148W        W21222   9.813  12.500  15.540 -0.0385  0.0046  0.0121
 5149W        W21223   1.383  14.517  15.497  0.0607 -0.1347 -0.1483
 5150W        W21224  17.245   2.248   5.735  0.0288 -0.0113  0.1123
 5151W        W21225  17.707   2.117   2.143 -0.0600 -0.1675  0.0185
 5152W        W21226  16.541   5.750  14.197  0.0233 -0.1862 -0.0142
 5153W        W21227  13.931   4.758  15.284 -0.2736  0.0543 -0.0530
 5154W        W21228   5.253   4.069  14.459  0.2474  0.3243 -0.3012
 5155W        W21229   8.192  10.161   3.880  0.3836 -0.1610  0.1126
 5156W        W21230  10.665   7.023  16.647 -0.0644  0.2426 -0.2146
 5157W        W21231  15.280   3.962  17.128  0.2789 -0.4656  0.0656
 5158W        W21232  10.221   5.470   6.187 -0.2496  0.2179  0.0487
 5159W        W21233  16.294   5.983  13.301 -0.0455  0.1009 -0.3138
 5160W        W21234   8.083  11.490  16.003  0.2209  0.1779 -0.0695
 5161W        W21235   2.975  13.283   3.493  0.3044 -0.0026  0.2163
 5162W        W21236   2.246   8.248  15.041 -0.0977 -0.1381 -0.1202
 5163W        W21237   7.738   4.878  15.371 -0.1085 -0.0578 -0.1597
 5164W        W21238   2.443  11.816   5.939  0.2195 -0.0908 -0.0805
 5165W        W21239  16.278  13.821  12.709  0.0988 -0.4387  0.0473
 5166W        W21240   6.088   6.303   0.608  0.2177 -0.4505 -0.1180
 5167W        W21241  15.720   8.136  12.840 -0.3026  0.2746 -0.1033
 5168W        W21242   0.523  15.935   0.719  0.2217  0.1336 -0.1047
 5169W        W21243   3.813   8.235  12.525  0.0003 -0.0358  0.0897
 5170W        W21244   6.423  10.437   1.145 -0.3234  0.0572 -0.1869
 5171W        W21245   2.332  12.003  13.126 -0.0306 -0.1353 -0.2478
 5172W        W21246  15.731   8.479  16.596  0.0461 -0.0548  0.2278
 5173W        W21247   9.753  12.808   0.597 -0.0295  0.0646  0.0490
 5174W        W21248   2.835  17.139   5.708  0.2206  0.1184  0.0550
 5175W        W21249  11.568   1.093  14.436 -0.2247  0.0934  0.1996
 5176W        W21250   4.604  12.640  16.913  0.0712 -0.0657 -0.4028
 5177W        W21251   6.471  12.858   1.603 -0.0571 -0.0052  0.2995
 5178W        W21252   0.838   3.291  15.759  0.0069  0.2664 -0.2946
 5179W        W21253   5.314  13.505  15.908  0.1415  0.0734  0.4148
 5180W        W21254   2.343  15.053   0.359  0.1303 -0.0729  0.2676
 5181W        W21255   2.396   7.851  15.330 -0.2178  0.0184 -0.0881
 5182W        W21256   1.209   9.123  11.915  0.0462 -0.3124 -0.2758
 5183W        W21257  14.651  12.241   0.964  0.2455  0.1579 -0.0056
 5184W        W21258   9.821  13.712   5.685  0.0325 -0.0023  0.1010
 5185W        W21259   8.549  13.260  15.863 -0.1721  0.0603  0.3218
 5186W        W21260  10.317  17.670   0.217 -0.1986 -0.2331 -0.1789
 5187W        W21261  14.146   1.330   3.926  0.1841  0.1189 -0.1930
 5188W        W21262  10.504   8.004   5.815  0.2167  0.2507 -0.1896
 5189W        W21263   7.263  15.666   5.946  0.0372 -0.0051  0.0705
 5190W        W21264  15.586   4.826  14.466 -0.0731 -0.0706  0.0049
 5191W        W21265   6.873   6.029  17.092  0.1659  0.1766 -0.0516
 5192W        W21266   3.107  14.883   5.601 -0.0067  0.0099  0.1177
 5193W        W21267   1.928  13.547  16.245 -0.0385 -0.1660 -0.0115
 5194W        W21268  14.313   2.933  15.095 -0.0547  0.1630 -0.1661
 5195W        W21269  16.326   1.272   2.530  0.0703  0.0940 -0.0832
 5196W        W21270  14.376  12.097  14.185  0.1346  0.0900 -0.2603
 5197W        W21271  15.302   0.342  14.033 -0.1508  0.2043 -0.1208
 5198W        W21272   2.230   7.774  13.817 -0.3248 -0.1171 -0.3094
 5199W        W21273   8.859  14.861  13.018  0.0791 -0.2906 -0.1817
 5200W        W21274   4.844  13.375   0.908  0.1342  0.0183 -0.0837
 5201W        W21275   1.818   1.301   0.682  0.1500 -0.2783 -0.1077
 5202W        W21276  15.003  10.140   4.748 -0.0801  0.0184 -0.0823
 5203W        W21277   6.454  14.619   4.743  0.1450 -0.2740  0.0993
 5204W        W21278  15.080  16.525   6.939  0.3190  0.1209  0.0274
 5205W        W21279   3.122  10.114  14.790  0.1347 -0.2040 -0.2065
 5206W        W21280  14.213   6.726   3.782  0.0911  0.0873 -0.1141
 5207W        W21281  13.631  17.049  14.173  0.0794  0.0946 -0.0040
 5208W        W21282   4.581   9.517  16.197  0.0735  0.0399 -0.2219
 5209W        W21283   0.034   0.455   6.086  0.1191 -0.1069  0.0063
 5210W        W21284  15.812   4.324   0.648  0.0806  0.0438  0.3291
 5211W        W21285   6.953  16.100   3.001  0.0255 -0.2639  0.1245
 5212W        W21286   9.770   3.001  13.384  0.0524 -0.0966  0.1091
 5213W        W21287   0.672  17.602   5.540  0.2953  0.0942 -0.0333
 5214W        W21288   1.563   5.566   6.039 -0.2904 -0.3406  0.0385
 5215W        W21289   1.001   6.644  17.108  0.2663 -0.0466 -0.1347
 5216W        W21290  13.629   5.306   5.922 -0.0174  0.1695  0.0523
 5217W        W21291  14.982   9.221  15.493  0.1053 -0.3759 -0.0228
 5218W        W21292  15.793   7.786   1.963 -0.0317  0.2024  0.2915
 5219W        W21293  10.332   8.837   5.105 -0.1000 -0.0391  0.4590
 5220W        W21294   3.881  12.592  13.556  0.0702 -0.4308  0.0768
 5221W        W21295  15.369   6.276   4.173 -0.3405  0.3136 -0.2121
 5222W        W21296   1.473  16.401   1.088  0.1909 -0.0641  0.5665
 5223W        W21297   3.730  10.571  13.547 -0.1224  0.0190  0.3578
 5224W        W21298  16.678  15.146  13.623 -0.1381  0.0753 -0.1013
 5225W        W21299   4.753   2.998   5.815 -0.1976  0.0591 -0.2847
 5226W        W21300   3.113  13.913  16.719  0.0948 -0.2238 -0.0564
 5227W        W21301  13.667   1.928   0.039 -0.2136 -0.4701 -0.1763
 5228W        W21302  14.308   3.923  13.022  0.1215  0.0923  0.2673
 5229W        W21303  14.003   0.326   4.027 -0.3428 -0.0656 -0.0887
 5230W        W21304   9.464   2.636  12.378 -0.1912  0.0779  0.2816
 5231W        W21305  12.213  13.243   4.705 -0.3200 -0.0700 -0.0671
 5232W        W21306   4.583   6.949   3.813 -0.0700  0.1021 -0.0168
 5233W        W21307   2.369   0.643  15.289  0.1758  0.0473 -0.1194
 5234W        W21308   1.087  15.329  14.960  0.3046 -0.3029  0.1257
 5235W        W21309  12.475  11.618   5.003  0.2821 -0.3809 -0.0644
 5236W        W21310   3.024  16.595  14.874 -0.1561 -0.1772 -0.1333
 5237W        W21311   9.969  14.170   5.710  0.1040  0.2954 -0.0131
 5238W        W21312   5.949  11.080  13.694 -0.1098 -0.2514 -0.2334
 5239W        W21313  13.240   8.152  13.312 -0.2935 -0.0002  0.1028
 5240W        W21314  11.156  16.259   5.304 -0.0482  0.0336 -0.1138
 5241W        W21315  11.922   0.898   5.283  0.0085  0.0059  0.0277
 5242W        W21316  15.059  17.568  13.609  0.3539 -0.0367 -0.0637
 5243W        W21317   9.163  12.729   1.398  0.0073 -0.1864  0.2369
 5244W        W21318  12.160  12.203  12.277 -0.0959  0.0718  0.2531
 5245W        W21319  10.946   1.068   2.506 -0.1141  0.1485 -0.1011
 5246W        W21320   0.567  14.874   1.482 -0.2281  0.0546 -0.1571
 5247W        W21321   7.123   3.908  13.625  0.0733  0.1498 -0.0023
 5248W        W21322  11.191   3.097  14.784 -0.0466  0.0523  0.2097
 5249W        W21323  11.612   5.409  12.053  0.1261  0.2223  0.1214
 5250W        W21324  16.290   1.986   6.151 -0.3005  0.0624 -0.0742
 5251W        W21325   0.607  15.019  15.538  0.1326  0.0510 -0.0748
 5252W        W21326  17.081   2.867  15.732 -0.0482  0.1259  0.0172
 5253W        W21327   3.202  14.744   3.439  0.1511  0.1224 -0.0977
 5254W        W21328  12.212  16.838   3.423 -0.1026 -0.0273  0.1070
 5255W        W21329   3.907  13.306  16.575 -0.0665 -0.0019 -0.0781
 5256W        W21330   5.150  14.712  14.516 -0.0481 -0.1009 -0.0125
 5257W        W21331   4.984   2.246  16.716  0.2825  0.2090  0.2799
 5258W        W21332   4.682  10.862  15.158 -0.0133  0.0657 -0.2826
 5259W        W21333   6.023  11.562  16.370 -0.1507  0.1266  0.3724
 5260W        W21334  14.636  14.495   2.619 -0.1460 -0.2183  0.0671
 5261W        W21335   2.568  16.659  14.013 -0.1929 -0.0824  0.1464
 5262W        W21336  14.791  13.520   3.785  0.0287 -0.0051  0.0419
 5263W        W21337   9.185   0.299   2.718 -0.1722 -0.3846  0.0577
 5264W        W21338   3.594   5.616  15.752 -0.0333 -0.0979 -0.1233
 5265W        W21339  14.199  15.229  12.441  0.0528  0.1020  0.1135
 5266W        W21340  10.702   7.483  16.810 -0.1877  0.0336 -0.0750
 5267W        W21341   2.992   9.081  14.195  0.0052  0.0648  0.0639
 5268W        W21342  15.015   2.388  14.488  0.0574  0.2602  0.0055
 5269W        W21343   4.219  17.342  13.436  0.0303 -0.2481 -0.0468
 5270W        W21344   0.770  11.302  12.665 -0.2096 -0.1446  0.0711
 5271W        W21345  15.350   8.857   0.895 -0.3544  0.2488  0.0422
 5272W        W21346  11.716   8.432  13.090 -0.0849  0.2612  0.1237
 5273W        W21347  17.543   3.053   4.240  0.0758 -0.1542 -0.1343
 5274W        W21348   5.978   3.349   1.939 -0.4675  0.2302  0.0341
 5275W        W21349  12.366  12.640  12.989  0.3799 -0.0157 -0.0859
 5276W        W21350  14.101  12.481  12.963  0.3788  0.0078 -0.0423
 5277W        W21351   7.889   4.678   3.217 -0.2603 -0.1743 -0.0290
 5278W        W21352   8.563  15.234   2.048  0.3038  0.1412  0.0222
 5279W        W21353  16.747  16.916  13.932 -0.1240 -0.0193 -0.0301
 5280W        W21354   7.078  12.006  16.662  0.0008 -0.2570  0.1758
 5281W        W21355   3.116  11.353   0.017  0.2569 -0.2064  0.2579
 5282W        W21356   7.939   0.471  13.692  0.1766  0.1821 -0.2558
 5283W        W21357  11.697   9.716   4.599 -0.1141 -0.1270  0.1271
 5284W        W21358   1.301   3.047   1.016  0.2442 -0.4429  0.0385
 5285W        W21359   2.344   0.736  17.082 -0.2997 -0.1900  0.2482
 5286W        W21360  15.575   3.619   6.852 -0.0422  0.0808  0.0831
 5287W        W21361   4.193  14.227   2.162 -0.1772  0.0473 -0.0563
 5288W        W21362   3.092   4.402   0.297  0.0116 -0.0786  0.1827
 5289W        W21363   2.494   3.613   5.051  0.1841  0.1687  0.2221
 5290W        W21364  14.550  10.070  12.111  0.3505  0.0457  0.2034
 5291W        W21365   8.474   6.991  15.033  0.1403 -0.2097 -0.0740
 5292W        W21366  10.522   2.976  16.825 -0.1426  0.2704  0.0775
 5293W        W21367  16.322  16.027   0.291 -0.1157  0.3792  0.3631
 5294W        W21368   1.054   8.524   4.146 -0.0921  0.0693  0.0512
 5295W        W21369   6.751  15.127  16.362  0.0504  0.0264 -0.1289
 5296W        W21370  14.055  16.728   1.767 -0.0421  0.0249 -0.0208
 5297W        W21371   1.053   3.523   2.244 -0.1359  0.2962 -0.0546
 5298W        W21372  11.806   2.275  12.278 -0.3985  0.0844 -0.1290
 5299W        W21373   4.577   3.329  10.793 -0.0638  0.1528  0.0011
 5300W        W21374   9.321  12.324   2.066 -0.3223  0.5207 -0.1692
 5301W        W21375   5.650   2.575   0.182 -0.1884  0.1555 -0.0313
 5302W        W21376   8.171  11.417   1.502  0.0999 -0.1954 -0.1652
 5303W        W21377  14.446   9.806   2.782  0.0946  0.0606  0.2405
 5304W        W21378  15.883  14.598   3.353  0.1815  0.0952  0.3297
 5305W        W21379   3.091  13.511   1.792  0.0553 -0.0089 -0.0424
 5306W        W21380  14.567  10.795  16.332  0.1621  0.1490  0.1575
 5307W        W21381  13.149  16.029  15.269 -0.2330 -0.3750  0.0156
 5308W        W21382   2.485   8.688  13.337  0.2110  0.0697 -0.0291
 5309W        W21383   9.996   8.286  15.247  0.2648 -0.2138 -0.0021
 5310W        W21384   5.458   3.345  13.998 -0.0364  0.1599  0.0395
 5311W        W21385   3.906   8.934  13.655 -0.2864 -0.1528 -0.0322
 5312W        W21386  17.490  12.752  15.377 -0.0472 -0.2626  0.0028
 5313W        W21387  11.042  12.911  13.675  0.0682 -0.0108 -0.2886
 5314W        W21388  11.627  16.413   5.092 -0.5059  0.5094 -0.2727
 5315W        W21389  11.815   7.964   1.125  0.2399  0.0033 -0.3830
 5316W        W21390   6.213  17.398   2.953 -0.0625 -0.0194 -0.1301
 5317W        W21391   7.215  12.506   5.459 -0.2108 -0.1909  0.3487
 5318W        W21392   2.777   9.514  10.728  0.3054 -0.2161  0.1083
 5319W        W21393   5.165   7.863  12.853 -0.2428  0.2161  0.1959
 5320W        W21394   9.857  17.017   0.204  0.0167  0.3053 -0.1209
 5321W        W21395  14.191   1.404  12.823 -0.1355  0.0077  0.1316
 5322W        W21396   4.851   6.756  16.271  0.1040  0.0291 -0.0828
 5323W        W21397  11.189  10.272   2.263 -0.0647  0.1543 -0.0594
 5324W        W21398  10.478   0.957   1.065  0.1436 -0.0555 -0.1454
 5325W        W21399   0.879   4.770   3.826  0.0313 -0.2669  0.1178
 5326W        W21400  13.755  10.738  13.357  0.0870 -0.0193 -0.0762
 5327W        W21401   9.141   5.560   1.495  0.1367 -0.2721 -0.1801
 5328W        W21402  15.449  15.647   1.061  0.0864  0.1770 -0.0732
 5329W        W21403   5.737   0.279   5.333  0.1234  0.1483  0.0476
 5330W        W21404  14.081  11.535   2.440 -0.1974 -0.0248 -0.0213
 5331W        W21405   0.905   1.929  13.353 -0.1385 -0.1196 -0.0754
 5332W        W21406  17.078   0.541  12.723  0.0928 -0.0705  0.0705
 5333W        W21407  15.046  12.065   1.262  0.0296  0.1926 -0.2693
 5334W        W21408   3.178   4.183   2.700  0.1154 -0.2317  0.2310
 5335W        W21409  11.202   7.554   1.654 -0.2188 -0.0821  0.1255
 5336W        W21410   1.303   1.978  13.069 -0.0782 -0.0395  0.4026
 5337W        W21411  11.738  12.859  15.793 -0.3663  0.0336 -0.2690
 5338W        W21412   6.513  11.030  14.893  0.0735  0.0977  0.1689
 5339W        W21413   4.101   0.510   6.260 -0.2266 -0.1150 -0.0258
 5340W        W21414   5.561   1.424  13.504 -0.1691  0.1465  0.3163
 5341W        W21415  16.014   2.741  13.441 -0.0716  0.4577  0.1561
 5342W        W21416   9.820  15.855   4.801 -0.3626  0.3190  0.0903
 5343W        W21417   7.204   5.572   3.698 -0.3831 -0.0055 -0.1986
 5344W        W21418   6.919   8.659  16.101 -0.0911  0.1367  0.2538
 5345W        W21419   6.207   8.834  12.078 -0.0951  0.1854 -0.0590
 5346W        W21420  12.966  16.826  14.494  0.1320 -0.2024 -0.1814
 5347W        W21421   8.335   2.407  11.728  0.3888  0.2915  0.0139
 5348W        W21422   1.242   6.309  13.283 -0.0317  0.0791  0.0840
 5349W        W21423  15.520  10.615   1.450 -0.0545  0.0110  0.3354
 5350W        W21424   8.522  16.462   4.863 -0.0795  0.1703  0.1270
 5351W        W21425  10.459  16.733   6.293 -0.0250  0.2294 -0.1924
 5352W        W21426  16.998   3.143  12.411 -0.1352 -0.0406 -0.1491
 5353W        W21427  15.611   0.343  16.157 -0.2355  0.1289  0.0136
 5354W        W21428   1.398   4.760   5.791  0.1412  0.0307  0.0857
 5355W        W21429   0.640   1.421  13.257  0.2104 -0.0501 -0.3696
 5356W        W21430   4.380  14.599   3.576 -0.1770 -0.4389  0.0784
 5357W        W21431  14.497  10.155   0.345  0.1009 -0.0065 -0.0236
 5358W        W21432   4.083   4.470   3.836  0.1233  0.1611 -0.0908
 5359W        W21433   9.373   6.211   2.351  0.3754 -0.1014 -0.3385
 5360W        W21434  17.490  12.580   3.049  0.0683 -0.0578 -0.1897
 5361W        W21435   2.949   6.973   3.562 -0.2986  0.0443 -0.0893
 5362W        W21436   7.735  13.692  15.076  0.1877  0.1961  0.0095
 5363W        W21437  10.501  15.167   4.228 -0.2614  0.1855  0.2192
 5364W        W21438  15.346  16.861   2.818 -0.1617 -0.3727  0.2010
 5365W        W21439  15.950   9.360  12.813  0.0414  0.0640  0.1649
 5366W        W21440   4.041   7.030  14.816 -0.0829 -0.0910  0.1457
 5367W        W21441  12.037   7.512   1.035 -0.0290  0.0649 -0.1620
 5368W        W21442   8.390   9.090  15.678 -0.0584  0.0835  0.1327
 5369W        W21443  12.093   7.627   4.168  0.2943  0.0092  0.1800
 5370W        W21444  11.644   1.207  13.922  0.0962  0.3927 -0.0208
 5371W        W21445  12.445   9.479  11.282  0.2264  0.1414 -0.1598
 5372W        W21446   8.151  12.704  14.540  0.1603 -0.1067  0.1034
 5373W        W21447  13.028   4.715   4.953 -0.1666  0.0443 -0.1645
 5374W        W21448  10.341  13.694   1.053  0.2347 -0.1722 -0.1029
 5375W        W21449   0.688   5.712   1.185  0.1298  0.3423  0.1466
 5376W        W21450   9.856  14.860   1.132  0.2113  0.1598 -0.1497
 5377W        W21451   1.123   6.698   5.082  0.2286 -0.0508 -0.1181
 5378W        W21452  12.427  11.499   0.969  0.0486 -0.0608 -0.1688
 5379W        W21453  10.145  11.724  15.088 -0.1097 -0.1837 -0.1510
 5380W        W21454   7.131  11.973  15.205  0.2765  0.0450  0.1727
 5381W        W21455  10.146   7.747   0.014  0.1227 -0.1727  0.1100
 5382W        W21456  11.959   6.220   0.418  0.0109 -0.0010 -0.2950
 5383W        W21457  10.976   5.851  12.653 -0.0399 -0.1386 -0.0944
 5384W        W21458   7.502   4.380  15.659 -0.0937 -0.0888 -0.1643
 5385W        W21459  14.916   6.425  14.698 -0.0617  0.0609 -0.3684
 5386W        W21460  12.652  12.440   5.468 -0.0293 -0.0799  0.2152
 5387W        W21461   9.024  16.392  12.169  0.1495 -0.0018 -0.2965
 5388W        W21462   0.824  16.011  14.233 -0.0298 -0.2403 -0.3238
 5389W        W21463   0.926  11.568   1.074 -0.1126  0.1131  0.0839
 5390W        W21464   8.394   1.915   3.140  0.0826 -0.1715  0.2129
 5391W        W21465   7.874  12.171   0.636  0.0897  0.1840 -0.0796
 5392W        W21466   6.176  10.175  15.144 -0.4415  0.3525 -0.0546
 5393W        W21467   4.489   6.504   2.247 -0.1305 -0.1471 -0.0443
 5394W        W21468  16.814   4.305   5.229  0.0370  0.2543 -0.3504
 5395W        W21469   7.995  16.674  15.329  0.1082 -0.3509 -0.1860
 5396W        W21470  11.435   3.477  12.687  0.0174  0.2162 -0.1229
 5397W        W21471   3.562   2.331  12.311 -0.1199 -0.2162  0.2612
 5398W        W21472   5.579  10.537   1.618 -0.2010 -0.0051  0.3835
 5399W        W21473  16.044   1.905   4.523 -0.0767  0.3768  0.3315
 5400W        W21474  11.222  17.526   2.857 -0.1697  0.2217  0.0008
 5401W        W21475   1.653   6.416   0.222  0.2553  0.2755  0.0204
 5402W        W21476   2.291   6.172   4.612  0.3775 -0.1731  0.0945
 5403W        W21477   9.011  12.337  13.868 -0.1044 -0.2639 -0.0563
 5404W        W21478  10.023   7.842   2.395  0.2552 -0.4065  0.0577
 5405W        W21479  11.392   6.420   4.628  0.0677 -0.1111 -0.0533
 5406W        W21480   5.588  16.829   1.272 -0.0439 -0.0704 -0.0327
 5407W        W21481  17.159  11.684  12.416  0.0105  0.2952 -0.0180
 5408W        W21482  14.462   4.858  13.364 -0.2102 -0.1402  0.0121
 5409W        W21483   3.634  16.670  13.685  0.0861 -0.0828 -0.0901
 5410W        W21484  16.325   2.385   3.220  0.1321  0.0267 -0.1765
 5411W        W21485   0.684  11.743  13.457  0.0226  0.1259 -0.1161
 5412W        W21486   8.525  12.341  15.579  0.0498  0.3512 -0.0504
 5413W        W21487   2.550   3.792   4.505  0.2116  0.0224 -0.2816
 5414W        W21488  13.908  14.247  15.244  0.0149 -0.2074 -0.0051
 5415W        W21489  15.312  13.599  12.919  0.3200 -0.0088  0.0345
 5416W        W21490   9.733   7.164  13.052 -0.1254 -0.0262 -0.2685
 5417W        W21491  16.140  16.358   3.516 -0.2402 -0.2917 -0.0066
 5418W        W21492   0.678   7.495   5.862  0.2414  0.2864  0.0990
 5419W        W21493  13.669  10.469   5.477  0.0901 -0.1819 -0.1540
 5420W        W21494  13.514   8.684   3.667 -0.2408  0.3774 -0.1176
 5421W        W21495   3.887  17.224  12.503 -0.1537 -0.1279 -0.0801
 5422W        W21496  13.705  14.274   4.197  0.0349  0.0053 -0.0740
 5423W        W21497   4.055  15.367  14.580  0.2783 -0.1751  0.2001
 5424W        W21498  17.162   8.637   0.049  0.3147 -0.1856  0.3575
 5425W        W21499  14.093  11.727  14.714 -0.0867 -0.1901  0.1016
 5426W        W21500   0.638  17.290   2.117  0.0374  0.3147  0.0945
 5427W        W21501  13.151   9.676   2.390 -0.0475 -0.1691 -0.0567
 5428W        W21502   7.518  14.911  17.019 -0.1228 -0.0676 -0.1715
 5429W        W21503   1.304   5.411   1.539  0.2736 -0.1958  0.1517
 5430W        W21504   7.642  12.581  16.356  0.3640  0.2527 -0.0872
 5431W        W21505   2.612   4.575   5.004  0.3066 -0.3050 -0.0542
 5432W        W21506   1.717   9.968  16.508 -0.2831  0.2022 -0.0695
 5433W        W21507   3.413  12.825   1.365 -0.3548  0.2590 -0.2486
 5434W        W21508  14.252  12.615   2.717  0.0118 -0.0339 -0.2955
 5435W        W21509  16.102   8.739   6.304 -0.0251 -0.0414 -0.1751
 5436W        W21510  13.775  10.598   4.820 -0.0143 -0.0151 -0.1637
 5437W        W21511  16.254  13.054   5.609 -0.0228  0.1728  0.2938
 5438W        W21512   3.316   9.130  14.541  0.0301  0.0113  0.0557
 5439W        W21513   0.650  17.484  16.510 -0.0040  0.0728  0.0163
 5440W        W21514   2.369   8.435   4.071 -0.0164 -0.2440 -0.1354
 5441W        W21515  13.823  16.314   0.132  0.1026 -0.2747  0.0777
 5442W        W21516  11.008   2.200   0.191 -0.0703  0.2432  0.1756
 5443W        W21517   3.330   8.064  16.159 -0.1872  0.1395  0.0324
 5444W        W21518   5.115   0.593  14.315  0.1100  0.5377 -0.0089
 5445W        W21519   7.836  16.504   3.446  0.0369  0.0173  0.1474
 5446W        W21520  16.330   5.688   0.772 -0.2653  0.1844 -0.0531
 5447W        W21521   2.481   0.065  14.493 -0.2306 -0.0970  0.0333
 5448W        W21522   3.546   1.706   1.567  0.3107 -0.0899  0.1439
 5449W        W21523  17.369  12.203   3.411 -0.1017  0.2466 -0.1338
 5450W        W21524   3.709   0.266  14.029  0.2637  0.0083 -0.1246
 5451W        W21525   1.243  15.348  13.094 -0.0247 -0.2218 -0.0084
 5452W        W21526  15.783  11.051   5.035 -0.0779  0.1936  0.1515
 5453W        W21527  11.645   0.631  13.074 -0.2745  0.0169  0.0153
 5454W        W21528  10.976   9.337   3.423 -0.1445  0.0824 -0.2040
 5455W        W21529  15.262  15.311   3.765 -0.0991 -0.2683  0.0753
 5456W        W21530   5.330   8.025   2.450 -0.0554 -0.0456 -0.2706
 5457W        W21531   7.663  13.514   0.521  0.0557 -0.1660 -0.2546
 5458W        W21532   4.578  16.355  14.728 -0.0798  0.0381 -0.0578
 5459W        W21533   0.812  14.160  13.293  0.0417 -0.1108 -0.2445
 5460W        W21534   3.558  13.596   2.688 -0.0432  0.0491 -0.0214
 5461W        W21535  10.589   9.983   0.467 -0.2134 -0.0594  0.0593
 5462W        W21536   0.062  16.014   2.704  0.0575  0.0468 -0.1441
 5463W        W21537   4.835   4.414   6.121 -0.2507  0.2722 -0.2746
 5464W        W21538   9.192  17.009   6.119 -0.0637  0.0084 -0.0513
 5465W        W21539  12.327   2.081   4.925  0.0032 -0.1395  0.0857
 5466W        W21540  17.597   6.225  14.047 -0.1294 -0.1367 -0.0201
 5467W        W21541   5.942  14.745   4.614  0.1051 -0.1597  0.1587
 5468W        W21542   0.116   1.240  14.272 -0.0772  0.2677  0.0457
 5469W        W21543   5.139  11.292   3.143 -0.0216  0.0852  0.0759
 5470W        W21544  17.587   9.470   3.397  0.3762 -0.0228 -0.0251
 5471W        W21545   2.013   5.498  16.749  0.4123  0.1594 -0.1836
 5472W        W21546  12.186  16.354  12.193 -0.1119  0.0344 -0.2491
 5473W        W21547  13.138  15.282  15.539  0.4171  0.1361 -0.1250
 5474W        W21548   8.101  12.464   0.974 -0.2002  0.0052  0.3932
 5475W        W21549  12.373   1.614   4.529  0.1534 -0.4696  0.3447
 5476W        W21550   2.339  12.686   4.859 -0.1793 -0.0476  0.3599
 5477W        W21551   9.310   2.303  13.152 -0.0908  0.1795  0.1626
 5478W        W21552  16.044   5.624  12.581 -0.1686  0.2235 -0.1879
 5479W        W21553   4.565   3.544  12.792 -0.1200 -0.0458 -0.0328
 5480W        W21554  15.782  14.037  15.491  0.0050 -0.2996 -0.2357
 5481W        W21555  12.386  10.680  16.553 -0.0658  0.0139  0.0414
 5482W        W21556  16.253  13.548  16.029 -0.3189 -0.1284 -0.1559
 5483W        W21557  14.828  10.198   1.139  0.0769  0.2022  0.0460
 5484W        W21558   6.580   6.771   0.794 -0.0095  0.0760  0.0610
 5485W        W21559   0.622   0.884  13.453 -0.2506 -0.1028 -0.1415
 5486W        W21560  10.735   8.355  12.750 -0.0737 -0.2572 -0.0238
 5487W        W21561  16.069  12.551   5.686 -0.1327 -0.2021  0.3217
 5488W        W21562   0.097  10.706  13.988  0.0089 -0.2637 -0.1628
 5489W        W21563   8.375   0.245   2.340 -0.2019 -0.0280  0.0630
 5490W        W21564  14.554   7.359  15.331  0.0235  0.1132 -0.2725
 5491W        W21565   1.382  14.641  12.405 -0.2870  0.0256 -0.2010
 5492W        W21566  17.639   9.167  12.199 -0.3343  0.0168  0.0244
 5493W        W21567  14.251   4.731   6.737 -0.0003  0.1554  0.2913
 5494W        W21568  10.440  17.596   1.435 -0.0520 -0.0934 -0.0506
 5495W        W21569   3.368   2.857  13.664  0.0973 -0.2013  0.0523
 5496W        W21570  13.072  14.694  11.797  0.0100 -0.2572  0.1293
 5497W        W21571  12.944   2.868   6.212 -0.3882 -0.0370  0.0649
 5498W        W21572   3.231  10.438   1.027  0.1546  0.1364 -0.0052
 5499W        W21573  11.005   9.298  16.468 -0.0684  0.1894 -0.1600
 5500W        W21574   3.204   0.317   3.250  0.1609  0.0164 -0.1299
 5501W        W21575   7.700  16.614   2.929 -0.0059 -0.4058 -0.3853
 5502W        W21576   7.458   3.112  14.767 -0.1461  0.0106  0.2270
 5503W        W21577   9.569  11.820  13.009  0.3302  0.1547  0.3959
 5504W        W21578   8.363   9.259   0.656  0.1015  0.0915  0.0419
 5505W        W21579  11.066  13.479  10.952  0.1167  0.4058  0.0674
 5506W        W21580   5.656  14.467   1.098  0.0006 -0.1206 -0.0293
 5507W        W21581   3.996  15.152  17.068 -0.2373  0.0983 -0.2189
 5508W        W21582  12.502   2.780   0.339 -0.2872 -0.1270 -0.0144
 5509W        W21583  12.187  11.376   2.193 -0.1258  0.2512  0.0232
 5510W        W21584   2.748   6.804   5.218 -0.1807  0.1917 -0.0050
 5511W        W21585   4.547   2.883   0.732 -0.1308 -0.2305  0.2302
 5512W        W21586  12.106   1.313   4.962 -0.3009 -0.1080  0.2926
 5513W        W21587   9.865  13.730   0.795 -0.3802 -0.2397 -0.0060
 5514W        W21588   3.782  14.136  13.431 -0.1331  0.3606 -0.3024
 5515W        W21589   8.140  16.822  15.771 -0.0541 -0.1422 -0.3537
 5516W        W21590  12.475   3.099  14.315 -0.0498 -0.0243 -0.0576
 5517W        W21591  10.667   9.439  11.374 -0.1850  0.1692 -0.0588
 5518W        W21592  15.259  11.806  15.740  0.0274  0.2402  0.2756
 5519W        W21593  15.951   1.087   6.163 -0.2004  0.1254  0.0611
 5520W        W21594   6.365  11.986   1.189  0.0425  0.1036 -0.1413
 5521W        W21595   6.200  13.641  13.272 -0.2741 -0.0396  0.0743
 5522W        W21596   0.620   8.797   2.614 -0.2826  0.2343 -0.1479
 5523W        W21597  10.324  13.657  16.644  0.2181 -0.1100 -0.0509
 5524W        W21598   4.072   3.618   1.680  0.2141  0.2078 -0.1722
 5525W        W21599   8.641  15.233   6.389  0.0094  0.2900 -0.1363
 5526W        W21600   2.427  15.781  16.531 -0.2060 -0.1368 -0.1976
 5527W        W21601  13.403  15.709   4.021 -0.0780 -0.0180 -0.0591
 5528W        W21602  14.558  17.048  16.277 -0.0421 -0.1920 -0.0423
 5529W        W21603   7.520   9.164   2.990 -0.4018 -0.0387  0.0504
 5530W        W21604   5.997   6.461   0.151 -0.1519  0.0872  0.1387
 5531W        W21605   1.261  10.568   3.587  0.3131  0.1283 -0.1141
 5532W        W21606   3.980   8.683   1.021  0.0198  0.1715 -0.2166
 5533W        W21607   2.609   7.894   5.427 -0.0550  0.1348 -0.0120
 5534W        W21608  16.675   0.520  12.392 -0.0601  0.2124  0.2011
 5535W        W21609   0.933  12.939   0.323 -0.0727  0.0641 -0.0260
 5536W        W21610  14.138   5.727  14.817 -0.4264 -0.0660 -0.1220
 5537W        W21611   2.427  14.462  15.321 -0.0213 -0.1602 -0.1280
 5538W        W21612  13.891  10.230   3.221 -0.0095  0.4184 -0.0722
 5539W        W21613  14.172  10.466  14.118 -0.0491  0.1668 -0.3055
 5540W        W21614   3.201  16.627   0.890  0.0978 -0.0181 -0.1263
 5541W        W21615  15.633   5.459   2.046  0.3217 -0.3852 -0.0078
 5542W        W21616   9.208   3.823   1.209 -0.0297 -0.0373 -0.1761
 5543W        W21617   4.656   0.841  15.470 -0.0080 -0.0090  0.2590
 5544W        W21618   6.398   4.120   3.061 -0.1646  0.0750  0.1926
 5545W        W21619   6.267   7.593  14.758 -0.2471 -0.3073 -0.0306
 5546W        W21620  13.994   9.387   1.753  0.1161  0.3080 -0.0446
 5547W        W21621  15.490   4.286  16.138 -0.1286  0.1494 -0.2965
 5548W        W21622   4.961   1.494   6.140  0.3634 -0.0679 -0.0861
 5549W        W21623   5.883   5.114   1.240  0.3140  0.0890  0.2553
 5550W        W21624   5.815   9.966   4.326  0.0152 -0.0173 -0.0243
 5551W        W21625  12.163  15.438  14.705  0.1903 -0.3528  0.1913
 5552W        W21626  14.755   2.681   2.519  0.3458  0.2434 -0.0364
 5553W        W21627   1.883  11.715   1.872 -0.1586 -0.3363  0.2451
 5554W        W21628  14.690   6.444  16.290 -0.0640 -0.2690  0.1977
 5555W        W21629   1.732  14.274  14.542 -0.0343  0.0764  0.1470
 5556W        W21630  14.599   1.682   5.733  0.0403  0.0553 -0.0891
 5557W        W21631   0.745  13.095   5.635 -0.2304 -0.1449  0.0777
 5558W        W21632   0.062   0.340  14.751 -0.0036 -0.1875 -0.1759
 5559W        W21633   6.456   5.649  12.411 -0.1164  0.0767  0.2082
 5560W        W21634  15.301  14.054   1.463 -0.1231 -0.0985  0.0623
 5561W        W21635   7.416  12.285   0.506  0.0115 -0.0930 -0.0276
 5562W        W21636   4.388  13.415  16.397  0.1103 -0.0351  0.0328
 5563W        W21637   9.960   9.909  13.872  0.0046  0.1385  0.0057
 5564W        W21638  10.212  11.467   3.054 -0.2147 -0.0562  0.2474
 5565W        W21639  10.796   0.456  13.660 -0.2574  0.2573 -0.0988
 5566W        W21640   8.028   1.107   3.464 -0.1830  0.0797 -0.2150
 5567W        W21641   7.698   6.723  16.757 -0.0653 -0.1855 -0.3345
 5568W        W21642   0.033  14.869   4.033 -0.1568 -0.2341  0.1642
 5569W        W21643   9.886  15.948  15.317 -0.0381 -0.1171  0.0456
 5570W        W21644  14.997   3.219  14.523  0.0882  0.0403 -0.1416
 5571W        W21645   9.193  11.475  14.781 -0.1119 -0.0459 -0.0105
 5572W        W21646  17.546  17.487   1.948  0.1313 -0.1991  0.2069
 5573W        W21647  16.776  15.482   1.779  0.3140  0.0938 -0.0233
 5574W        W21648   4.742  11.203   0.530 -0.0959 -0.1156  0.1342
 5575W        W21649   1.291  12.495   0.877  0.1681  0.0954 -0.0882
 5576W        W21650   4.309   9.936  14.963  0.1760  0.1374 -0.1655
 5577W        W21651   5.506   8.633   0.358  0.1585  0.0003  0.1392
 5578W        W21652   3.756   4.220  12.073  0.0291 -0.0477 -0.3684
 5579W        W21653  17.158  15.419  12.874  0.3004  0.2090 -0.1910
 5580W        W21654  16.444   3.498  12.921 -0.2863  0.0185  0.1572
 5581W        W21655  14.347   1.588   3.530 -0.1232 -0.1233  0.1709
 5582W        W21656  16.981  16.476   3.220  0.3444  0.3132  0.0242
 5583W        W21657   8.035  11.309   5.506 -0.0276  0.0619  0.2065
 5584W        W21658   0.833  10.313   0.458 -0.0894  0.0747 -0.1179
 5585W        W21659   0.185   7.519   2.123  0.0128 -0.1359 -0.0768
 5586W        W21660   1.883  15.493  15.819  0.3709  0.1031 -0.1063
 5587W        W21661  14.780   9.964  11.262 -0.0318  0.1871  0.1186
 5588W        W21662  10.149   3.889   6.453  0.0773  0.0694  0.2188
 5589W        W21663   4.749   5.392   1.436  0.1609  0.0739  0.0483
 5590W        W21664   9.289  14.283   1.967  0.0666 -0.1499  0.1985
 5591W        W21665   2.570   3.944   2.715  0.1492 -0.0395  0.0830
 5592W        W21666  16.975  16.393  13.241  0.0002  0.3730 -0.0384
 5593W        W21667   7.830   8.922  13.129  0.0168 -0.0906  0.1549
 5594W        W21668  13.962   4.034   2.539 -0.1473  0.1074  0.0242
 5595W        W21669  15.822   2.993   5.753  0.1151 -0.0583 -0.1899
 5596W        W21670   6.124   3.341   1.063 -0.0033 -0.0018  0.0127
 5597W        W21671  13.486   9.860  14.039  0.1631  0.3054  0.0781
 5598W        W21672   0.461  14.583   4.176  0.1486  0.0761 -0.1449
 5599W        W21673  11.388  14.184  13.253 -0.0477 -0.0838  0.5319
 5600W        W21674  14.329  13.942   3.263  0.0368 -0.0523 -0.0277
 5601W        W21675  13.163   6.639   4.793  0.2094 -0.0964  0.2230
 5602W        W21676   0.092   6.518  12.211 -0.2340  0.1678  0.5036
 5603W        W21677  11.004   2.436   2.967 -0.6810 -0.1380  0.2815
 5604W        W21678   8.680   3.902  12.811 -0.0150 -0.0073  0.3848
 5605W        W21679  11.491   2.280   0.905  0.2531  0.6646  0.0157
 5606W        W21680  12.915  16.493   2.389  0.0850  0.1383 -0.1577
 5607W        W21681   2.739  17.517  17.082 -0.1350  0.0356  0.3091
 5608W        W21682  11.633  12.053  13.626 -0.2411 -0.0206 -0.2007
 5609W        W21683  14.009   8.212  11.477  0.0396 -0.0967 -0.2032
 5610W        W21684   4.956   0.808  15.057 -0.3011  0.1066 -0.0669
 5611W        W21685  13.119  15.945  13.593 -0.3402  0.0104  0.0540
 5612W        W21686   5.481   7.747   5.737 -0.2617 -0.1394 -0.4122
 5613W        W21687  14.052  11.633   0.913  0.1040 -0.2208 -0.4218
 5614W        W21688   0.958   3.298   1.349  0.0102  0.1883 -0.0282
 5615W        W21689   1.155   6.842  16.627 -0.0923  0.1297 -0.3919
 5616W        W21690  15.213  14.380   5.345  0.0186  0.0701 -0.1787
 5617W        W21691   6.137   6.948  15.564  0.1966  0.2082  0.1304
 5618W        W21692   4.115   6.864   0.817 -0.2819 -0.0761 -0.1466
 5619W        W21693  16.363   1.415  12.447 -0.3004 -0.5057  0.0115
 5620W        W21694  17.238   7.154   1.926  0.3790  0.0041 -0.1713
 5621W        W21695   0.052  10.349   0.671  0.2983  0.1360 -0.1474
 5622W        W21696  12.646   6.822   3.365  0.0058  0.0354  0.0960
 5623W        W21697  16.283   3.577   4.486 -0.0155  0.0360 -0.1174
 5624W        W21698  14.978  15.098   1.700 -0.1156 -0.2209 -0.1087
 5625W        W21699  17.517  14.434   3.721  0.0528 -0.1867  0.0986
 5626W        W21700  15.909  10.894  16.369 -0.1370  0.6798 -0.0886
 5627W        W21701   0.981  12.383   2.620  0.0652  0.0067 -0.1850
 5628W        W21702   4.935   2.742   0.051  0.2965 -0.3197 -0.4097
 5629W        W21703   7.310  11.739  12.211 -0.1361  0.1760 -0.2686
 5630W        W21704  11.041  14.966   0.406  0.1225  0.0453  0.0555
 5631W        W21705   0.775   5.277   2.653  0.1850  0.0807 -0.1637
 5632W        W21706   2.988   2.734  12.947 -0.0684  0.0545  0.0431
 5633W        W21707   2.855   3.990   0.510 -0.1921  0.0385  0.0667
 5634W        W21708  16.890   4.675  16.910 -0.4789  0.2548  0.0448
 5635W        W21709   8.987   5.949   3.924 -0.0593  0.1089  0.0113
 5636W        W21710  10.148  11.155   3.445 -0.0290  0.1413  0.0308
 5637W        W21711   9.002   8.106   3.333  0.0836  0.0407  0.0956
 5638W        W21712   7.726   7.005   3.571  0.2149  0.0026  0.1087
 5639W        W21713   4.531  17.599   0.920  0.0829  0.1238 -0.1858
 5640W        W21714   7.520   5.463   1.961 -0.1685 -0.0082  0.2888
 5641W        W21715  17.229  14.820  16.430 -0.1764 -0.1258  0.2743
 5642W        W21716   2.273  14.293  12.131 -0.0338  0.0002  0.2530
 5643W        W21717  17.602   3.005   4.711 -0.1012 -0.0542 -0.1320
 5644W        W21718   8.926   6.743  16.692 -0.0233 -0.0593  0.1089
 5645W        W21719   6.656   0.454  12.813 -0.2848  0.5799  0.0253
 5646W        W21720  10.816   9.257  14.414 -0.1536 -0.0158  0.2350
 5647W        W21721   0.706  10.169   5.973 -0.3955 -0.1537  0.2648
 5648W        W21722   7.582  10.240   4.990  0.2968 -0.2256 -0.0142
 5649W        W21723  15.541   3.443   5.536 -0.3961 -0.2089 -0.0644
 5650W        W21724  13.643  10.708   3.277 -0.0296 -0.0447 -0.0766
 5651W        W21725   9.293  16.299  16.223  0.0461 -0.1774  0.0214
 5652W        W21726   0.297  17.298   0.828 -0.1781  0.1604 -0.2707
 5653W        W21727   0.471  10.319  12.420 -0.3758 -0.0315  0.2114
 5654W        W21728  16.572  17.577   0.902 -0.2039 -0.0040 -0.0726
 5655W        W21729   0.598  13.734  13.216 -0.2452 -0.0035 -0.1187
 5656W        W21730   0.380  12.974  11.901  0.0659 -0.0599  0.0285
 5657W        W21731  17.277  10.879   5.100  0.1645  0.3339  0.0713
 5658W        W21732   7.732  12.271  14.631 -0.3544 -0.2330  0.2071
 5659W        W21733   5.332  15.379  15.187 -0.0204 -0.0100 -0.2402
 5660W        W21734  13.468   4.133  13.962 -0.3189  0.3426  0.0817
 5661W        W21735  15.559  16.226  14.812 -0.0444  0.4753  0.0200
 5662W        W21736  17.234  16.265  14.092 -0.0392  0.0546 -0.0926
 5663W        W21737  13.128   2.680   5.074 -0.1737  0.1321 -0.1140
 5664W        W21738  10.827  11.429   2.389  0.1485  0.1700 -0.0372
 5665W        W21739   6.801  16.518  16.977 -0.2733  0.2487  0.0528
 5666W        W21740   1.537   7.531  15.212  0.2227  0.0507 -0.0480
 5667W        W21741  17.460   5.776  16.234  0.0439 -0.0914  0.1178
 5668W        W21742   6.304   0.353   5.981 -0.0992 -0.2459 -0.1761
 5669W        W21743  10.841  15.517  14.281  0.0631 -0.0638  0.0018
 5670W        W21744   6.714   5.424   3.592 -0.3205 -0.0556  0.1811
 5671W        W21745  10.230  10.189   3.677 -0.2064 -0.1507  0.2564
 5672W        W21746  13.051   4.813   3.381 -0.2221 -0.0296 -0.0529
 5673W        W21747  14.386   6.425   2.832  0.0484 -0.2858  0.1862
 5674W        W21748  12.642  13.279  15.496  0.1776 -0.0077 -0.1505
 5675W        W21749   8.465   8.761  14.473  0.3176 -0.0904 -0.2538
 5676W        W21750   4.430   3.679  15.306 -0.0525 -0.1999  0.0256
 5677W        W21751   7.430  15.139   3.210  0.3008  0.0886 -0.1563
 5678W        W21752   2.463   6.135   3.581  0.1459 -0.0349  0.0845
 5679W        W21753   5.326   6.351   3.147 -0.2799  0.1562  0.0055
 5680W        W21754  14.515   1.409  14.580 -0.0844 -0.2616  0.0029
 5681W        W21755  13.694   1.161  16.672 -0.0802 -0.0055 -0.1894
 5682W        W21756  16.030   8.466  16.224 -0.4094  0.0224  0.4410
 5683W        W21757   2.869   4.116   4.949 -0.1306 -0.2876  0.1123
 5684W        W21758  11.739   5.497   0.239 -0.2384  0.2298  0.3339
 5685W        W21759  11.395   0.057   1.587 -0.3733 -0.0327 -0.3041
 5686W        W21760   5.678  14.908   5.545 -0.0964  0.2062 -0.0232
 5687W        W21761   7.453   9.380   4.373  0.1806  0.2392  0.0159
 5688W        W21762   2.778   5.024   3.692  0.0698  0.0291 -0.2007
 5689W        W21763  11.824   9.466  13.148  0.0687 -0.2770 -0.4271
 5690W        W21764  16.856   6.504  13.879 -0.1614  0.1687 -0.0529
 5691W        W21765   5.578   5.062  16.304  0.3295  0.0788 -0.0224
 5692W        W21766  12.423   7.749   3.763 -0.2016 -0.2660 -0.4511
 5693W        W21767  17.031   7.404  17.034  0.0077 -0.1052 -0.1108
 5694W        W21768   4.852   7.631  14.468  0.0561  0.2036  0.1691
 5695W        W21769   4.111  11.264   4.095 -0.2511  0.0472 -0.1398
 5696W        W21770  15.988   4.650   5.025  0.0431 -0.1659 -0.1713
 5697W        W21771   0.847  17.383   4.495 -0.0781  0.2778 -0.0773
 5698W        W21772   5.344   4.229   5.639  0.0135  0.2081  0.0915
 5699W        W21773   3.771  12.426  12.044 -0.0816  0.0332  0.1942
 5700W        W21774   5.891   1.325  11.658  0.0452 -0.0953 -0.2830
 5701W        W21775  12.266   9.685  12.268  0.3434  0.2860  0.2568
 5702W        W21776   0.751  14.973  15.104 -0.0828 -0.2070 -0.0191
 5703W        W21777   1.349   9.778  15.633  0.1082 -0.3733  0.1691
 5704W        W21778  15.649   4.492   2.276 -0.0547  0.0207  0.0310
 5705W        W21779   2.097   5.930   1.321 -0.1166  0.0598  0.1155
 5706W        W21780   7.292   8.318   3.478 -0.0992  0.0071 -0.1390
 5707W        W21781  12.409   7.011  12.850  0.0405  0.1865 -0.1493
 5708W        W21782   1.588   9.237   1.681 -0.0770  0.2410  0.1385
 5709W        W21783   9.726   0.786   0.907  0.3043 -0.2225 -0.0351
 5710W        W21784   5.874   1.654   5.837  0.1293  0.0388 -0.0044
 5711W        W21785  16.718  10.004  15.208 -0.0146 -0.3169 -0.1281
 5712W        W21786  10.243  14.321   4.868  0.1447  0.2761  0.1316
 5713W        W21787   3.015   7.121  12.460  0.2408 -0.1534 -0.2438
 5714W        W21788   9.596   2.225   0.736  0.2982 -0.0673 -0.4386
 5715W        W21789   1.336   8.701  14.178 -0.1031  0.1185  0.2020
 5716W        W21790  10.007  17.510  12.372  0.1803 -0.0817 -0.0264
 5717W        W21791   1.449  14.849  12.911 -0.1758  0.0814  0.1441
 5718W        W21792  12.415   5.370  16.117 -0.4011  0.1475  0.0679
 5719W        W21793  14.541   8.584  14.041  0.2837 -0.1499 -0.3683
 5720W        W21794  13.398   5.197   0.693  0.0447  0.0954  0.0563
 5721W        W21795   7.780  14.068  11.685 -0.1156  0.1009 -0.0520
 5722W        W21796   9.639   9.088  12.538  0.0009 -0.0854 -0.0058
 5723W        W21797   7.549   0.699   5.296  0.0891 -0.1265  0.1161
 5724W        W21798   0.860   9.926   2.533 -0.0997  0.1696 -0.2140
 5725W        W21799   5.306   7.725   2.894  0.1936 -0.0946  0.0037
 5726W        W21800   1.195  16.612  16.548 -0.3948 -0.1536 -0.1263
 5727W        W21801   7.513   4.386  15.060 -0.3794 -0.0832 -0.1358
 5728W        W21802   9.967   5.687   0.991 -0.0107 -0.2140 -0.3537
 5729W        W21803   8.343   8.113  14.975 -0.3129  0.1109 -0.2196
 5730W        W21804  11.242   9.837  13.810  0.1233 -0.2288  0.2124
 5731W        W21805   2.502  10.604   2.568  0.1171  0.0838  0.1150
 5732W        W21806  12.799   1.944  12.942  0.2827  0.0098 -0.0883
 5733W        W21807  12.607   1.142   3.578 -0.2162 -0.0375  0.1540
 5734W        W21808  14.086   2.617  15.652  0.0687 -0.0481  0.0750
 5735W        W21809   7.057  16.392   1.335  0.0459  0.3619 -0.0770
 5736W        W21810  16.538  15.859  14.285  0.2034 -0.0184 -0.0324
 5737W        W21811  15.563   1.490  12.827 -0.1892  0.2693 -0.3240
 5738W        W21812   8.236   7.502   0.794 -0.1318 -0.0566 -0.2322
 5739W        W21813   9.998   5.109  15.920 -0.2065 -0.1047 -0.0305
 5740W        W21814   4.939   2.803  15.710  0.0063  0.3235  0.0061
 5741W        W21815  11.462   5.288   5.461 -0.0456  0.5022  0.4682
 5742W        W21816  11.400   1.866   3.517  0.1370 -0.1721  0.3361
 5743W        W21817   1.253  17.415   4.799  0.0972 -0.1112 -0.0472
 5744W        W21818  17.288   1.875   2.048  0.0208  0.4223 -0.2375
 5745W        W21819  13.178   5.713  14.845 -0.0129 -0.1439 -0.0593
 5746W        W21820   5.053   0.966   1.879 -0.1430 -0.0711 -0.0071
 5747W        W21821  14.107   7.013  14.934  0.1794  0.0939  0.2329
 5748W        W21822   0.708   6.967   4.934 -0.0665  0.0994 -0.2012
 5749W        W21823   6.414   6.242  16.995 -0.0017  0.1326 -0.0751
 5750W        W21824  13.847  10.296   4.025  0.1324  0.0086 -0.2017
 5751W        W21825   9.856   2.739  12.949  0.0478 -0.2119  0.2594
 5752W        W21826  13.416   1.528  16.498  0.1204 -0.1836 -0.1225
 5753W        W21827   6.503   8.097  12.437 -0.0537  0.1048  0.0284
 5754W        W21828  15.699  11.634  12.809  0.1109  0.4138 -0.1423
 5755W        W21829   3.780   3.674  15.797 -0.0492  0.1017 -0.4054
 5756W        W21830  13.323  15.765  16.761 -0.3131  0.1080 -0.5128
 5757W        W21831  11.998   1.906   2.974 -0.0204 -0.2579 -0.1209
 5758W        W21832  17.123   7.524  14.812 -0.0048 -0.3028 -0.3830
 5759W        W21833   9.188   7.069  13.222 -0.1510  0.1398  0.2098
 5760W        W21834   2.889   1.289  14.977  0.1409  0.2357 -0.2354
 5761W        W21835  11.190   0.492   0.916 -0.0800 -0.0961 -0.1228
 5762W        W21836   7.525   6.674   0.925  0.1043  0.0937 -0.1306
 5763W        W21837   1.851  17.066   3.017 -0.0319  0.2768 -0.0909
 5764W        W21838  10.851  17.197   4.554  0.2034  0.1720  0.1156
 5765W        W21839  13.979  11.299  14.503  0.0748  0.0116 -0.1740
 5766W        W21840  13.000   1.189   2.489 -0.0549  0.1988  0.0059
 5767W        W21841   7.820  17.691   4.510  0.2311 -0.0299 -0.0960
 5768W        W21842  14.688   9.246  15.890  0.0858 -0.1126  0.1692
 5769W        W21843   6.696   0.505   5.514 -0.2900  0.2790  0.0294
 5770W        W21844   1.752   4.809   4.127 -0.1477  0.0999  0.0678
 5771W        W21845   3.438  17.264   2.162  0.2167 -0.0087 -0.2610
 5772W        W21846  13.296  12.209  16.864 -0.0072  0.1556  0.3599
 5773W        W21847   7.635  12.835  15.363  0.0817 -0.0259 -0.1111
 5774W        W21848  14.587  12.307   1.440 -0.0014 -0.1394  0.0471
 5775W        W21849   5.847   5.812   0.580 -0.2343 -0.3716  0.0519
 5776W        W21850   0.737   5.235  15.557 -0.2216  0.3149 -0.1842
 5777W        W21851   3.411  11.600   3.830  0.0598  0.1579  0.1838
 5778W        W21852  12.987   8.534   4.383 -0.1810 -0.1273 -0.1192
 5779W        W21853   3.246   6.643  11.829 -0.1258  0.3084  0.0664
 5780W        W21854  13.414   0.410  13.434  0.1311 -0.0475 -0.0977
 5781W        W21855  13.147  10.627   0.965  0.1895  0.1748 -0.0602
 5782W        W21856   3.530   1.794  15.545 -0.1623 -0.0880 -0.0105
 5783W        W21857   0.126   7.571  15.061  0.2842  0.0878 -0.2400
 5784W        W21858  15.231   1.054   4.183 -0.2347 -0.0517 -0.1670
 5785W        W21859  16.388   6.820   5.272  0.0329  0.0498  0.3261
 5786W        W21860  13.123  17.143   1.738 -0.0178 -0.0891 -0.1356
 5787W        W21861   5.200  17.697  12.829 -0.2224 -0.1030 -0.0477
 5788W        W21862   3.732   3.331   1.038 -0.1575  0.0840  0.0515
 5789W        W21863   5.271   8.210  12.126  0.0052 -0.0683  0.3832
 5790W        W21864   7.251   6.792   1.375  0.1289 -0.1890 -0.1572
 5791W        W21865  13.304   9.554  12.231 -0.1039 -0.0121  0.2740
 5792W        W21866   6.311  15.371  13.962  0.0272  0.0321  0.2780
 5793W        W21867   6.729   7.547   5.145  0.1552  0.2262  0.3296
 5794W        W21868   6.372  12.536  15.258 -0.0968  0.0056  0.0477
 5795W        W21869   1.130  14.001   4.703  0.2605  0.2632  0.1525
 5796W        W21870   8.759   7.588   2.427 -0.0650 -0.0466 -0.0808
 5797W        W21871   9.972  15.852  14.516  0.3350 -0.0107 -0.0943
 5798W        W21872  10.838   4.238  15.785  0.0191  0.0665 -0.0419
 5799W        W21873   9.862   5.878   4.111  0.0595 -0.2013  0.1093
 5800W        W21874   5.132   2.141   1.433 -0.0580 -0.1150  0.2100
 5801W        W21875   7.949   9.579  16.915  0.1595 -0.0800  0.0603
 5802W        W21876  13.584  12.518  14.301  0.0309 -0.0107  0.1844
 5803W        W21877   9.230  15.953  12.412 -0.1131  0.0184  0.0081
 5804W        W21878  15.996   9.816   2.343  0.1213  0.3013 -0.0640
 5805W        W21879  15.853  13.956   0.351 -0.0623  0.2891  0.3773
 5806W        W21880   0.564  11.976   3.734 -0.2969  0.0146  0.0841
 5807W        W21881   1.041   6.983   1.304 -0.2962 -0.0954  0.3014
 5808W        W21882   6.826  11.824  14.821 -0.1751 -0.1395 -0.1099
 5809W        W21883  11.168   1.042  15.293 -0.1939 -0.3249 -0.0423
 5810W        W21884  14.673  17.526   5.401  0.0704  0.0623  0.0523
 5811W        W21885  15.483  10.688  16.298 -0.0091  0.0936 -0.2176
 5812W        W21886   6.604  13.499   5.511 -0.0384  0.0618 -0.0379
 5813W        W21887   0.621  17.404   2.610 -0.1874  0.0316 -0.0680
 5814W        W21888  16.277   7.480   0.633 -0.0072  0.0530 -0.1402
 5815W        W21889  13.411  13.883  14.152  0.2727  0.1449  0.3511
 5816W        W21890  11.503  16.925  15.550  0.4469 -0.2845 -0.3303
 5817W        W21891  11.305  12.288  15.992 -0.3403 -0.2012 -0.0848
 5818W        W21892   0.300   1.593   2.508 -0.0797 -0.1091 -0.3122
 5819W        W21893   9.117   4.593  12.287  0.0063  0.1773  0.1650
 5820W        W21894   1.657  14.997  12.266  0.2796 -0.4441 -0.0854
 5821W        W21895   7.030   2.931  15.659 -0.1615 -0.1014  0.0230
 5822W        W21896   3.932   5.633   2.076  0.0128  0.1941  0.2047
 5823W        W21897  15.822   3.701  15.500 -0.2914  0.3510 -0.0510
 5824W        W21898   8.597  11.072  15.360 -0.3267  0.0348  0.1191
 5825W        W21899   2.237   8.986   6.070 -0.0143 -0.0663  0.1562
 5826W        W21900   2.572   0.603  14.503  0.1658 -0.1236 -0.0091
 5827W        W21901  11.098  11.809  16.040 -0.1952  0.1352 -0.1015
 5828W        W21902   2.781  14.912   3.047  0.0645 -0.0042 -0.0732
 5829W        W21903   7.774   5.597  15.822  0.1338  0.0539  0.1184
 5830W        W21904   9.344  10.198   3.730 -0.0529  0.0710  0.1829
 5831W        W21905   8.517  14.138  13.629 -0.0483  0.1372 -0.0302
 5832W        W21906  17.063  17.634  11.999 -0.0343  0.0185  0.0116
 5833W        W21907  13.467  13.673  15.891  0.1965  0.2963  0.2695
 5834W        W21908  13.151  13.822  13.149 -0.3225 -0.0377  0.3048
 5835W        W21909   3.097   8.254   4.673  0.1811 -0.1559 -0.3360
 5836W        W21910  13.071   4.465  12.699  0.1139  0.1423  0.0653
 5837W        W21911  15.081   3.280  13.284 -0.0296 -0.0212 -0.0581
 5838W        W21912  17.584   7.492  14.136 -0.0593  0.1389 -0.0161
 5839W        W21913  16.826   6.148  12.358 -0.4165 -0.0948 -0.0527
 5840W        W21914  11.905  14.143  14.563  0.1046  0.1030  0.1714
 5841W        W21915   0.923   7.329   2.504 -0.0322 -0.1732  0.0543
 5842W        W21916  14.021   1.946   3.828 -0.4026  0.0060 -0.0429
 5843W        W21917  14.694  16.109   6.079  0.0536 -0.0699  0.1002
 5844W        W21918  17.598  10.924  13.614  0.2776  0.1966 -0.0308
 5845W        W21919   2.949   3.195  15.919  0.1483  0.1075 -0.0973
 5846W        W21920   4.142  12.328   4.894 -0.0307  0.0136  0.0090
 5847W        W21921   9.554   0.752   3.491  0.3151  0.2991  0.1070
 5848W        W21922   6.240   3.407  15.904 -0.1826  0.0034 -0.1677
 5849W        W21923   2.010   7.241   4.052 -0.0335 -0.1204  0.1503
 5850W        W21924  17.462  12.882   5.992 -0.0457 -0.1318 -0.1492
 5851W        W21925   9.010  17.313   2.792  0.0740 -0.1549  0.0933
 5852W        W21926  13.654  16.655   5.638 -0.0617  0.1151  0.1332
 5853W        W21927   3.292  17.187  15.360 -0.2104  0.1693  0.4515
 5854W        W21928   4.658  15.497  12.197  0.2012  0.1148  0.3812
 5855W        W21929   9.016   4.912  15.758 -0.2225 -0.1916  0.0763
 5856W        W21930   6.024   8.127   5.602 -0.1422 -0.0333 -0.1524
 5857W        W21931  13.865   3.280  11.954  0.2305 -0.1344 -0.2019
 5858W        W21932   3.680  14.324   3.890  0.0482 -0.1564  0.0443
 5859W        W21933  10.501  16.826   2.247  0.3503  0.0729  0.1310
 5860W        W21934   7.168  10.091  14.759 -0.2391  0.0441 -0.1112
 5861W        W21935   1.999  11.690  12.860  0.1714 -0.2911  0.1008
 5862W        W21936   4.500   1.210  14.556  0.1713  0.0545 -0.2112
 5863W        W21937   6.423   1.702  12.576  0.1254 -0.0807 -0.0237
 5864W        W21938   6.307   4.847  13.201  0.2032 -0.2368 -0.2118
 5865W        W21939   9.138  11.261  13.816  0.0155 -0.0257  0.2080
 5866W        W21940   9.161   4.558   1.674 -0.0289  0.2208  0.0429
 5867W        W21941  12.685  12.993  12.033  0.2800 -0.1473  0.1431
 5868W        W21942  14.349   4.472   2.884 -0.4241 -0.1112  0.4132
 5869W        W21943   8.715   9.771   4.588  0.1959 -0.1266  0.0102
 5870W        W21944   6.974   7.947  12.562  0.0296 -0.1840 -0.2358
 5871W        W21945   1.867   7.506  12.911 -0.1401 -0.0068  0.1097
 5872W        W21946   6.793   2.531  13.763  0.1211 -0.2415  0.6209
 5873W        W21947   6.711  11.702   0.152  0.2318  0.2815  0.2158
 5874W        W21948  16.234  14.260   2.482 -0.0120 -0.0996  0.2285
 5875W        W21949  16.021   2.927  15.999  0.0693  0.1434  0.0780
 5876W        W21950  16.247   7.494  14.633  0.6378 -0.1565 -0.0092
 5877W        W21951   8.877  11.066   2.393  0.2407 -0.2200 -0.1119
 5878W        W21952  16.196   6.156  14.023 -0.0613  0.0885 -0.1234
 5879W        W21953   6.669  17.191  14.695 -0.0226 -0.1610 -0.1011
 5880W        W21954  10.451   6.261  15.001 -0.1358 -0.0269  0.0047
 5881W        W21955  16.858  13.186   3.815 -0.1438 -0.1177 -0.0569
 5882W        W21956   8.454   1.440  12.812  0.2066 -0.1754 -0.2223
 5883W        W21957   0.328   8.219   6.313  0.0227  0.1931  0.2348
 5884W        W21958  17.655   9.971   1.089 -0.2709  0.0042  0.1609
 5885W        W21959  17.267   2.071   3.001 -0.1392 -0.1852 -0.3792
 5886W        W21960   5.256   6.619  14.099 -0.0219 -0.2266  0.0362
 5887W        W21961  14.716  14.139   3.010 -0.0766  0.1208 -0.2309
 5888W        W21962  12.863  14.427   3.198 -0.0227  0.0145 -0.3138
 5889W        W21963  10.013   0.875   4.220 -0.1799  0.1519 -0.1876
 5890W        W21964  12.245  16.951   5.748  0.2630  0.0316 -0.0340
 5891W        W21965   3.579   1.580  14.198 -0.1757 -0.4534  0.1500
 5892W        W21966   1.044  17.535   0.142  0.0274  0.1850 -0.4197
 5893W        W21967  16.330   0.024   1.378 -0.2507  0.0632 -0.0505
 5894W        W21968  11.693  15.164   4.764 -0.0624  0.2386  0.1607
 5895W        W21969  10.368   5.214   5.181 -0.2179 -0.1149 -0.2002
 5896W        W21970  13.314   5.709   5.977 -0.2113 -0.2460  0.0727
 5897W        W21971   1.586   1.327  16.669  0.2073 -0.0990 -0.3686
 5898W        W21972  13.731   6.673  16.161 -0.2185 -0.1669 -0.0279
 5899W        W21973   4.621  10.138   3.033 -0.2818  0.1158  0.3061
 5900W        W21974  13.781   1.156  15.061  0.0818 -0.0441  0.1136
 5901W        W21975  10.543   8.704  14.834 -0.1849 -0.2400  0.1415
 5902W        W21976   6.518  17.685   1.615 -0.1031 -0.0399  0.2095
 5903W        W21977  17.446  13.874  15.169 -0.0873  0.1948  0.2850
 5904W        W21978   6.964  16.722   1.732 -0.2517 -0.1949 -0.0779
 5905W        W21979   5.487   2.542   1.661  0.0860 -0.2523  0.1518
 5906W        W21980   3.426   7.887   2.408 -0.4114  0.1048 -0.2285
 5907W        W21981  14.213   4.018   5.466  0.0242 -0.0487 -0.3953
 5908W        W21982  14.821   3.916   4.838  0.4504  0.0741  0.4133
 5909W        W21983   3.805   8.598   3.985  0.1350  0.1625 -0.1288
 5910W        W21984   9.265  17.275   1.989 -0.1919 -0.3293 -0.0329
 5911W        W21985   4.335  11.550   2.851  0.2860 -0.1862 -0.0774
 5912W        W21986  17.644  12.936   0.500 -0.2451 -0.1101 -0.1289
 5913W        W21987  16.099   8.407   3.601  0.2764 -0.1353  0.0043
 5914W        W21988  12.461  12.203  16.298 -0.0604 -0.3378 -0.2012
 5915W        W21989   8.402   5.297   2.264  0.4024 -0.3452 -0.3794
 5916W        W21990   9.360   7.018   0.858 -0.0341 -0.3247 -0.2320
 5917W        W21991   5.016   0.652   3.625 -0.0500 -0.0767  0.3296
 5918W        W21992   2.295  17.131   5.687 -0.0424 -0.1617 -0.0092
 5919W        W21993   8.902   4.422  16.832 -0.0482 -0.1501  0.1495
 5920W        W21994  10.120  12.518  12.730  0.1377 -0.1760 -0.0418
 5921W        W21995  13.684   7.459  16.751 -0.0002  0.0654 -0.0722
 5922W        W21996   6.550  10.540  15.189 -0.2625 -0.2522 -0.0704
 5923W        W21997   4.120  14.339  13.780 -0.2530 -0.2799  0.0046
 5924W        W21998   4.874   0.074   2.853  0.3400 -0.0471 -0.1001
 5925W        W21999   7.800   0.575   3.741  0.1031  0.2797 -0.0382
 5926W        W22000   6.179   2.142  13.168 -0.2408  0.0737  0.0713
 5927W        W22001  12.054  14.145  15.056 -0.2376  0.0995  0.0123
 5928W        W22002   3.487   7.718  17.071 -0.0849  0.0267 -0.2829
 5929W        W22003   2.289   0.907  14.170  0.3148 -0.0059 -0.0793
 5930W        W22004  16.966   8.230   0.252  0.0807 -0.1183  0.1343
 5931W        W22005   2.887  14.344  16.513 -0.4023 -0.3401  0.1839
 5932W        W22006   7.738   9.844  12.649  0.1464 -0.1248 -0.0771
 5933W        W22007  16.218   5.307  13.308  0.3067 -0.0584 -0.1941
 5934W        W22008   0.618  17.413   5.019  0.1976  0.0082  0.0274
 5935W        W22009   9.443  17.575   1.478  0.3404 -0.1158 -0.1931
 5936W        W22010   3.783  14.119   3.078  0.1902 -0.0246  0.1049
 5937W        W22011   5.565   4.846   4.986 -0.2918 -0.2054  0.1773
 5938W        W22012   2.735  15.118  11.903 -0.0556 -0.0646 -0.1699
 5939W        W22013   5.878  15.709   1.624  0.0652  0.0745  0.0170
 5940W        W22014   0.808  12.338   4.071 -0.2682  0.0203 -0.2118
 5941W        W22015  17.358   3.356  15.602 -0.0439 -0.0610 -0.1649
 5942W        W22016  11.611   7.658  16.052 -0.1029 -0.0083  0.0102
 5943W        W22017   1.763  10.469  13.018 -0.0447  0.2632 -0.3767
 5944W        W22018  15.171  14.349   0.143  0.1695  0.0677  0.1418
 5945W        W22019   6.452  16.214  12.451 -0.1962 -0.1349 -0.1102
 5946W        W22020   3.784  14.154   1.398 -0.2098  0.1189  0.0289
 5947W        W22021   4.905   9.770   3.315  0.2157 -0.0529 -0.1474
 5948W        W22022  10.290  15.050   2.696 -0.0846 -0.0731 -0.3932
 5949W        W22023  10.520   8.354  14.493  0.1863 -0.0270 -0.0184
 5950W        W22024  10.952  12.654  16.141  0.2964 -0.1107 -0.0973
 5951W        W22025   8.988   2.827   6.301  0.1546 -0.0843 -0.4866
 5952W        W22026  14.427   1.482   1.394 -0.0012  0.0220  0.0904
 5953W        W22027   7.634   6.791   1.790  0.2473 -0.1256 -0.1910
 5954W        W22028   9.303   1.738   1.739 -0.2028 -0.1056  0.0412
 5955W        W22029   3.728   2.586  16.658 -0.1121 -0.0618  0.0682
 5956W        W22030   3.921  10.210  16.365 -0.0973  0.1040  0.1220
 5957W        W22031  16.992  17.350   3.756  0.0852  0.0247  0.0469
 5958W        W22032   2.416   9.223  15.729 -0.4274  0.3835 -0.0960
 5959W        W22033   2.413   5.669   0.458 -0.1909  0.0194  0.1894
 5960W        W22034  10.829   9.752  16.337  0.1603 -0.1293 -0.3339
 5961W        W22035   0.287  11.814   4.540 -0.0511 -0.1496 -0.0853
 5962W        W22036   4.442  12.765  14.640 -0.1113  0.0247  0.2309
 5963W        W22037   8.700  13.132   5.191 -0.0160 -0.1845 -0.1892
 5964W        W22038  13.059  11.608  15.908  0.4911 -0.1699 -0.0426
 5965W        W22039   5.899   7.497   1.564 -0.2279  0.0385  0.1898
 5966W        W22040  14.527  13.269  17.076  0.1348  0.0402 -0.2183
 5967W        W22041   6.481   1.762   1.247  0.0023 -0.3590 -0.1902
 5968W        W22042   3.868   3.240   5.996 -0.2426 -0.0561 -0.1340
 5969W        W22043  11.714   3.344   0.415 -0.1454  0.1469  0.1342
 5970W        W22044   4.488  15.412   4.997 -0.1155  0.0677  0.1844
 5971W        W22045   5.764   6.791  14.812 -0.1160 -0.0099  0.3542
 5972W        W22046   2.910   8.886   1.774 -0.2551 -0.0049 -0.1596
 5973W        W22047   8.698  17.472  12.856 -0.0340  0.0356  0.4269
 5974W        W22048  15.360   1.923   5.211  0.0507  0.2444 -0.1665
 5975W        W22049   4.399   9.844   3.376  0.2353  0.1454  0.2637
 5976W        W22050  11.992   6.703  12.684  0.0980  0.0369  0.0492
 5977W        W22051  16.644   4.878  12.361  0.1147 -0.0901 -0.0316
 5978W        W22052  14.961   6.953   1.223  0.1518  0.0046  0.0732
 5979W        W22053  16.592  10.037   4.337  0.0967 -0.1452 -0.2465
 5980W        W22054  10.381   1.859   1.528 -0.0288 -0.2089  0.1189
 5981W        W22055  16.186   1.108   3.800 -0.2634 -0.0737  0.3869
 5982W        W22056   8.148  12.199  14.328  0.1441  0.0863 -0.0827
 5983W        W22057   8.669   6.099  14.597 -0.0975  0.1377  0.2283
 5984W        W22058   9.939   8.364   5.086 -0.2180  0.1960  0.0187
 5985W        W22059   7.238  17.665   1.540  0.0902  0.1386 -0.1161
 5986W        W22060  11.298  11.650  14.300 -0.0245  0.1021  0.0492
 5987W        W22061   4.537  13.187   3.470 -0.2625  0.2677 -0.0588
 5988W        W22062   6.411   0.195   2.042 -0.0032 -0.0396 -0.0340
 5989W        W22063   0.320   6.565   2.820  0.1458  0.2456  0.0311
 5990W        W22064   8.482  15.720  13.013  0.0358  0.2476 -0.3529
 5991W        W22065  15.578  13.320   5.539  0.0965 -0.0894  0.0887
 5992W        W22066   3.792   4.129  16.045 -0.0088  0.1630 -0.1212
 5993W        W22067  12.589   0.415  16.653 -0.1204  0.1186 -0.0451
 5994W        W22068   5.591   4.718  14.045  0.4355  0.1139  0.0768
 5995W        W22069   8.824  14.846   3.746 -0.0811  0.1225 -0.0419
 5996W        W22070   9.703   5.972   0.564  0.3033 -0.1026 -0.0017
 5997W        W22071  10.677   7.009   4.779  0.3122  0.1554  0.0595
 5998W        W22072   5.224   2.363   4.236  0.2521 -0.1295  0.0516
 5999W        W22073   7.735   1.602   1.038 -0.5663 -0.2815  0.2313
 6000W        W22074  15.330  14.205   4.244 -0.2065 -0.1010  0.0240
 6001W        W22075  10.465   0.484  11.761 -0.0664 -0.2302  0.1597
 6002W        W22076  17.426   1.052  16.134 -0.0309  0.1033 -0.2120
 6003W        W22077  10.852   3.718  11.968 -0.0012  0.0409  0.2060
 6004W        W22078  10.697   1.631  17.050  0.0342  0.0334  0.0813
 6005W        W22079   8.242   5.529  12.775 -0.1112  0.0625 -0.0896
 6006W        W22080   0.425   8.710   6.367  0.1949 -0.1309 -0.2219
 6007W        W22081  13.484   9.920  15.957  0.0235  0.0544  0.2112
 6008W        W22082   3.945  16.548   2.464 -0.1463  0.0622 -0.5154
 6009W        W22083   3.081   1.661   1.693 -0.0010 -0.3263 -0.2616
 6010W        W22084   6.040  15.016   0.370  0.1922  0.1241  0.1636
 6011W        W22085   7.615  11.183   3.145 -0.0172 -0.1824 -0.0521
 6012W        W22086  16.968  17.303  15.321 -0.1176 -0.0724  0.0737
 6013W        W22087   4.831  13.767   6.652 -0.0261 -0.1535 -0.1337
 6014W        W22088  17.162   3.686  12.557  0.1933 -0.1970 -0.0462
 6015W        W22089  16.490   6.826  13.540  0.2731  0.1403 -0.1526
 6016W        W22090   2.244   5.894  14.357 -0.0697  0.1962 -0.2600
 6017W        W22091   7.508  11.063   3.614  0.0094  0.0717 -0.1783
 6018W        W22092   4.909   1.114   3.749 -0.1803 -0.1180  0.1623
 6019W        W22093  13.473   4.757   1.524  0.1416  0.1703 -0.2822
 6020W        W22094   8.145   4.727   6.389  0.3474  0.0517  0.3398
 6021W        W22095   8.238   3.540  13.942  0.1090  0.0872 -0.3009
 6022W        W22096   6.106   8.016  14.632  0.1718 -0.2223  0.2871
 6023W        W22097  16.023   3.163  13.101  0.3172 -0.2498  0.1526
 6024W        W22098   1.280  12.338   4.155 -0.3841 -0.0356  0.3676
 6025W        W22099  11.425  11.356  13.139  0.0164  0.0318  0.0254
 6026W        W22100  12.268   1.680  14.498  0.2061  0.0399  0.1591
 6027W        W22101  12.762   2.173   4.117  0.0654 -0.2617 -0.0438
 6028W        W22102   5.949  11.553   0.197 -0.1235 -0.4911 -0.1909
 6029W        W22103   8.244   1.632  16.547 -0.1139  0.2306  0.0439
 6030W        W22104   4.522  10.438   5.748 -0.0810  0.0963  0.0176
 6031W        W22105   9.757   7.021   6.154  0.2561 -0.0893  0.3250
 6032W        W22106  13.182   0.004   4.224 -0.2662  0.2356  0.1477
 6033W        W22107   3.464  17.691  12.915  0.3969  0.1316 -0.2016
 6034W        W22108   3.003  11.042   4.181  0.1890 -0.1168  0.1919
 6035W        W22109   7.546  11.798   0.709 -0.4773 -0.1528  0.0701
 6036W        W22110   5.019   5.970  15.736 -0.2270 -0.0707  0.2624
 6037W        W22111  11.655  11.345  14.046  0.1539  0.3842 -0.0866
 6038W        W22112   7.340  16.682  15.487  0.0432 -0.0372  0.1795
 6039W        W22113   4.982  14.584   1.799  0.3065  0.1360  0.0825
 6040W        W22114   9.472   4.046  16.011  0.1839  0.0111 -0.0396
 6041W        W22115   3.740   2.556   0.936 -0.1769 -0.1691 -0.0061
 6042W        W22116   5.112   4.492   3.821  0.0373 -0.0274  0.1870
 6043W        W22117   9.589  14.005   1.226  0.1220  0.0489 -0.1889
 6044W        W22118   3.511  13.793  15.664  0.2922 -0.0122  0.1448
 6045W        W22119  12.951   6.364   2.164  0.0682  0.1896  0.0866
 6046W        W22120  11.999  17.233   3.067  0.0452  0.3025  0.1865
 6047W        W22121   0.920   6.599  12.553  0.1499 -0.0443 -0.5702
 6048W        W22122  11.661   3.490   1.319 -0.2238 -0.0750  0.2209
 6049W        W22123   2.321   4.176   1.701  0.0071  0.1440 -0.2709
 6050W        W22124   1.812  15.456  12.451 -0.0482  0.1293  0.0799
 6051W        W22125   6.392  16.727  14.078  0.1342 -0.0885 -0.0525
 6052W        W22126   8.869   6.416  15.348 -0.0776  0.0415  0.2398
 6053W        W22127   1.948   8.653  12.557 -0.0240  0.1880 -0.1477
 6054W        W22128   8.247  16.861   4.250  0.1022 -0.1249 -0.0937
 6055W        W22129   5.453  13.235   4.390 -0.1298 -0.0805  0.0157
 6056W        W22130   2.538  15.471   2.577 -0.2913  0.4274  0.1817
 6057W        W22131  16.688   1.326   0.979  0.1838 -0.0569 -0.0552
 6058W        W22132   6.367  14.775   0.755  0.2340  0.2007 -0.0856
 6059W        W22133  12.021   6.022  16.631  0.1451  0.0627  0.2118
 6060W        W22134   1.126   6.995  14.133 -0.2148 -0.0711 -0.1630
 6061W        W22135   8.807   8.697  12.806  0.4024 -0.1676 -0.0310
 6062W        W22136   7.012   0.045  12.196 -0.0319 -0.0271  0.0118
 6063W        W22137  14.555   0.327   2.706  0.1797  0.3101  0.1382
 6064W        W22138  16.316   2.640   1.372  0.1449  0.1553 -0.0072
 6065W        W22139  13.768   5.545   3.619  0.2551 -0.2358 -0.0350
 6066W        W22140   5.968  15.458  12.307  0.1046  0.0802  0.2456
 6067W        W22141   3.184   6.555  17.045 -0.0697 -0.0404 -0.0066
 6068W        W22142  16.149   9.160  14.878  0.0090  0.2083 -0.2820
 6069W        W22143  12.526   3.163   5.497  0.0126  0.0920  0.2012
 6070W        W22144  12.672   1.380  14.371 -0.0641 -0.0440 -0.5726
 6071W        W22145   0.701   2.822   4.743 -0.2114  0.0391  0.1429
 6072W        W22146  16.715   1.860  12.496  0.1273 -0.3466 -0.1545
 6073W        W22147  11.185  17.081   0.234  0.1080  0.4989  0.3000
 6074W        W22148  13.759  11.923   2.676  0.0821  0.2271  0.3038
 6075W        W22149   2.677   2.426   6.069 -0.0265 -0.0608 -0.0404
 6076W        W22150  12.176   6.408  13.018 -0.1139  0.1371 -0.1140
 6077W        W22151  12.660   5.265  13.503  0.0405 -0.0192 -0.4610
 6078W        W22152  13.823  17.438   0.513  0.0051 -0.1220 -0.1938
 6079W        W22153   2.689  17.020   0.070  0.1080 -0.3688  0.0053
 6080W        W22154  11.462   2.590  13.889 -0.3014 -0.0552  0.2230
 6081W        W22155   5.099   5.072  13.256  0.0308  0.2009 -0.1130
 6082W        W22156  15.088  10.334  16.975  0.0613  0.0783  0.3563
 6083W        W22157   7.429   9.483   3.521 -0.3645  0.1144  0.1481
 6084W        W22158  11.914   6.946   2.698  0.0829 -0.2089  0.3644
 6085W        W22159  11.831  10.345   1.651 -0.3826 -0.0147  0.0512
 6086W        W22160   4.893   1.952  14.102 -0.0348  0.1965 -0.0270
 6087W        W22161   1.937  16.059   2.158  0.2211 -0.2468 -0.0153
 6088W        W22162  11.581   2.825  10.638  0.0712 -0.0795 -0.1563
 6089W        W22163   3.256   5.543  14.864 -0.1105  0.0071 -0.1909
 6090W        W22164   0.429  14.812  14.727 -0.0339  0.0367  0.0649
 6091W        W22165   4.801  15.522  15.996 -0.1844 -0.0204  0.0250
 6092W        W22166  10.099   4.486  13.194 -0.1672  0.0927 -0.3927
 6093W        W22167  12.467   7.481  17.072  0.0675 -0.0659 -0.2268
 6094W        W22168   8.203  17.239  13.544 -0.3769  0.1842  0.1618
 6095W        W22169  15.328  11.418   2.128  0.1693  0.0248 -0.1040
 6096W        W22170  10.812  14.677  15.023  0.2361 -0.0622 -0.1479
 6097W        W22171  12.625   1.194  16.960  0.1270 -0.0519 -0.3476
 6098W        W22172  15.354   2.169   0.925 -0.2188 -0.1264  0.4672
 6099W        W22173   2.601  15.501   3.532 -0.1019  0.0011  0.0363
 6100W        W22174  16.256   5.098   5.720 -0.1274 -0.1552 -0.2386
 6101W        W22175   6.449   8.585   1.003  0.0117  0.1001 -0.0702
 6102W        W22176   5.152  14.503   6.176  0.0158  0.5075  0.1789
 6103W        W22177  10.540   2.765  14.254 -0.1856  0.1856  0.1294
 6104W        W22178   3.530   0.989   3.803  0.0760 -0.0664  0.1709
 6105W        W22179  13.810  16.939   1.340  0.0189 -0.0965 -0.1321
 6106W        W22180   8.305  13.591  14.262  0.0451 -0.1248 -0.0006
 6107W        W22181  10.993   2.905  16.660 -0.3093  0.0452 -0.2495
 6108W        W22182   3.606   8.539  16.419  0.0281  0.0394 -0.2711
 6109W        W22183  15.281   0.731   3.667  0.1284 -0.1542 -0.1140
 6110W        W22184   1.615  13.977  16.585 -0.2156 -0.0614 -0.2243
 6111W        W22185  10.617  16.967  16.296 -0.0108  0.0893  0.1010
 6112W        W22186  14.074   4.283  14.814  0.0344  0.0419  0.1441
 6113W        W22187   3.642  10.254   0.698  0.0137  0.0531 -0.1720
 6114W        W22188   3.076  10.125  15.582 -0.4894 -0.1603 -0.2176
 6115W        W22189  16.697   3.668  13.306 -0.2504 -0.0691  0.1907
 6116W        W22190  16.082   3.479  10.952  0.0922  0.0442 -0.0074
 6117W        W22191  15.543   8.890  12.288 -0.0271 -0.1673  0.2318
 6118W        W22192  11.958   1.574   0.444  0.1024 -0.3213  0.0843
 6119W        W22193   4.684   1.234   5.803 -0.2477  0.2284 -0.1643
 6120W        W22194   0.422  10.240  15.400 -0.1995 -0.1942 -0.0898
 6121W        W22195  10.178  10.504  16.390  0.1494 -0.1671  0.1044
 6122W        W22196   7.469  16.949   4.170  0.0228  0.1295  0.0690
 6123W        W22197  15.941   3.201  14.223 -0.0578 -0.1079 -0.0308
 6124W        W22198   9.328   6.716   4.317  0.0230  0.2770 -0.1452
 6125W        W22199  17.340  10.265   2.084 -0.2197  0.2121  0.0291
 6126W        W22200  12.550  12.218  13.229 -0.0034  0.1244  0.0825
 6127W        W22201  15.665   0.357  11.799  0.0006 -0.1822 -0.0200
 6128W        W22202   4.458   5.362   6.016 -0.1456  0.2686  0.1794
 6129W        W22203  12.640   0.368   2.071 -0.3133  0.3955  0.2326
 6130W        W22204  16.541   7.799   5.708  0.2447  0.0036 -0.2261
 6131W        W22205   3.757   0.653  12.140  0.2379  0.0443 -0.0595
 6132W        W22206   6.886  17.466   1.280 -0.0558 -0.0683  0.0325
 6133W        W22207   3.427  12.661  15.664 -0.2865 -0.0227  0.0558
 6134W        W22208   8.584  17.543   4.892  0.0544  0.1635  0.0706
 6135W        W22209  13.166   4.278   1.558 -0.0540 -0.0640  0.2319
 6136W        W22210  14.847   2.583  16.440  0.0870  0.0645  0.2115
 6137W        W22211   4.198   2.512  17.013 -0.1900  0.0648  0.4112
 6138W        W22212   6.192   1.500  17.129  0.1018  0.1066  0.3188
 6139W        W22213   3.886  15.089  15.321 -0.1777 -0.0592  0.0939
 6140W        W22214   4.768   6.819   2.619  0.1236 -0.3254 -0.0352
 6141W        W22215  12.433  17.225   6.098 -0.3700 -0.0964 -0.0837
 6142W        W22216   0.828  14.364   3.918 -0.1993  0.5050 -0.1172
 6143W        W22217  15.878   9.750  17.009 -0.1419 -0.0033 -0.3237
 6144W        W22218   9.466   2.152  12.685  0.2218  0.0162  0.0845
 6145W        W22219  11.433   2.895  12.599 -0.0890  0.0346 -0.1763
 6146W        W22220  14.142   0.742   3.873 -0.0870 -0.1577 -0.2905
 6147W        W22221   6.607  13.754   3.048  0.2921  0.0400 -0.1856
 6148W        W22222  10.382  17.691  16.795 -0.0023  0.2328  0.3260
 6149W        W22223   3.468  16.997   1.193 -0.2343 -0.0420 -0.0801
 6150W        W22224  17.434  16.136   0.826 -0.2776  0.0807 -0.3993
 6151W        W22225   6.495  11.249  12.962 -0.1336 -0.0451  0.1664
 6152W        W22226   4.000   7.685  16.498 -0.0375 -0.0861  0.0657
 6153W        W22227   6.409  13.510  14.320 -0.1100  0.1226 -0.2116
 6154W        W22228   1.294  15.230   5.005 -0.2631  0.0513 -0.1995
 6155W        W22229  11.852  11.480   4.570  0.4013 -0.0107  0.0887
 6156W        W22230   8.828  17.104  13.196 -0.1522 -0.3397  0.1270
 6157W        W22231   0.216  11.464  15.022 -0.0626 -0.0159 -0.1909
 6158W        W22232   6.568   2.028  15.720 -0.5066  0.3057 -0.1029
 6159W        W22233   3.375   1.067  14.753 -0.0399 -0.1837  0.1087
 6160W        W22234   2.747   0.189   0.791  0.2691 -0.0694 -0.0161
 6161W        W22235   9.860   4.126  16.838 -0.2708  0.0387 -0.2035
 6162W        W22236   5.022   5.976  13.556  0.0401 -0.0630  0.0566
 6163W        W22237  11.176   2.544   1.234 -0.0791  0.2160 -0.2294
 6164W        W22238  14.294   4.983   0.053 -0.0516  0.1858 -0.1677
 6165W        W22239   0.084   2.503  16.659  0.0086 -0.0355 -0.0733
 6166W        W22240  15.302  12.840   1.217  0.4419 -0.1892  0.1887
 6167W        W22241  15.774   1.041   5.175  0.1356  0.2934  0.1341
 6168W        W22242   4.430  17.060   2.640  0.0948 -0.1049 -0.1414
 6169W        W22243   7.491   0.704  15.710 -0.0694 -0.0535 -0.3597
 6170W        W22244   3.521   6.949  12.129  0.0390  0.0686 -0.1906
 6171W        W22245   4.119   9.325  17.026 -0.1745  0.3552  0.0134
 6172W        W22246  16.197   0.325  13.850  0.2719  0.0193 -0.2209
 6173W        W22247  17.220   7.077   3.130 -0.2678 -0.2664  0.0291
 6174W        W22248   0.226   8.186  12.130 -0.3847 -0.0249  0.0523
 6175W        W22249   5.867   5.856   4.922  0.0585 -0.1152 -0.0399
 6176W        W22250  10.198  11.085   1.022  0.1807 -0.0284 -0.1519
 6177W        W22251  14.062   2.571  14.239 -0.2304  0.0349 -0.1592
 6178W        W22252  13.959   1.694  12.470 -0.1775 -0.0933  0.3031
 6179W        W22253  13.066   2.092  12.224  0.1307  0.1353 -0.1519
 6180W        W22254  13.340  15.201  11.956  0.4725 -0.0009 -0.2119
 6181W        W22255  12.201  16.744   1.556 -0.1475  0.1163  0.4432
 6182W        W22256  15.389   8.965  13.212  0.2044  0.0144  0.3311
 6183W        W22257  13.177  17.527  16.307 -0.2082 -0.2088  0.2014
 6184W        W22258   7.849  14.325  14.291 -0.2141 -0.1556  0.0982
 6185W        W22259  10.766   9.550   4.402 -0.3690 -0.0530  0.2097
 6186W        W22260  11.070   3.992  13.259  0.1026 -0.0551  0.0956
 6187W        W22261   4.417  14.627  16.101 -0.1642 -0.1219  0.1951
 6188W        W22262   8.270  16.433   4.444 -0.0178  0.0697  0.2110
 6189W        W22263   0.476   9.988   0.252 -0.0535  0.0314  0.3120
 6190W        W22264   5.837   9.246  13.876  0.2162  0.1038  0.1044
 6191W        W22265   0.688   0.013   0.813  0.1529  0.0738 -0.0507
 6192W        W22266  15.433  13.915   2.528 -0.0059 -0.1293  0.2090
 6193W        W22267   4.283  12.548   1.140 -0.0191 -0.0046 -0.0792
 6194W        W22268   8.029   7.757   2.906 -0.1384  0.1273  0.2419
 6195W        W22269  13.187   3.612  14.740 -0.0158 -0.2550  0.3243
 6196W        W22270   6.197   2.561   0.161 -0.2437 -0.1090  0.2887
 6197W        W22271   7.596   0.122   3.041 -0.2356  0.0888  0.2313
 6198W        W22272   1.350   1.597   2.431  0.0091  0.0940  0.1304
 6199W        W22273   6.158   8.054  13.768 -0.0349 -0.0172 -0.0864
 6200W        W22274  11.155  14.017  12.778 -0.2902  0.0374  0.0906
 6201W        W22275  10.637  16.323  16.408 -0.1556  0.0313  0.0814
 6202W        W22276   0.263   8.394  16.184  0.1526  0.1812  0.0942
 6203W        W22277  13.821  10.928   2.629  0.0962  0.3928 -0.0259
 6204W        W22278  13.497  17.293   3.348  0.0177 -0.0703  0.0944
 6205W        W22279   7.460   3.806  15.354 -0.0016 -0.0695 -0.1449
 6206W        W22280  12.501   7.776  15.996  0.0676 -0.1570 -0.3318
 6207W        W22281   3.655   9.736   0.513 -0.0185 -0.0863  0.0011
 6208W        W22282   7.649  16.513   4.808 -0.0386 -0.2718 -0.0219
 6209W        W22283   6.210   4.348  13.309 -0.0499  0.1385 -0.0269
 6210W        W22284  12.785   1.683  10.742  0.1352  0.1148  0.1131
 6211W        W22285   5.579  10.709  13.973  0.1482 -0.0029  0.1725
 6212W        W22286  16.929   2.014  13.926  0.3341 -0.2082  0.3131
 6213W        W22287  15.709  11.684  14.038 -0.1107  0.3509 -0.1577
 6214W        W22288  13.421  12.819   3.098  0.5405 -0.0257 -0.1799
 6215W        W22289  11.916  14.869   1.729 -0.0882  0.1000 -0.2001
 6216W        W22290   7.891  16.411   1.808  0.0018  0.4747 -0.0904
 6217W        W22291  15.301   2.009   1.410  0.1480 -0.1142 -0.0140
 6218W        W22292   7.797  12.793   1.433  0.1220 -0.1213  0.1383
 6219W        W22293   1.053  13.876  12.060 -0.3102 -0.1944 -0.2187
 6220W        W22294  15.000   1.751  12.186  0.3085  0.1095 -0.2053
 6221W        W22295  15.389   3.797   6.366  0.1210  0.1399 -0.0586
 6222W        W22296   8.495  12.385   3.471 -0.2811  0.0184  0.1681
 6223W        W22297   2.159   4.355   3.638  0.1138  0.1675 -0.2653
 6224W        W22298   6.122  15.859   6.434  0.2533 -0.0739  0.0521
 6225W        W22299  15.586  11.222  16.435  0.1753  0.2992 -0.1015
 6226W        W22300  11.060  14.489   0.141  0.1206  0.2326  0.0794
 6227W        W22301  14.502  14.162  15.196  0.0788 -0.3898  0.0492
 6228W        W22302  11.463  13.708   5.089 -0.0402  0.1905 -0.2658
 6229W        W22303  13.993   9.915  15.883  0.1028 -0.2293 -0.0614
 6230W        W22304   1.052   2.939  16.207 -0.2271  0.0424 -0.3295
 6231W        W22305  13.084   9.907   3.491 -0.0785 -0.2202 -0.0412
 6232W        W22306  11.583   8.019   1.673  0.0793  0.2156  0.2587
 6233W        W22307  12.883  12.486  15.324  0.1978 -0.1452  0.0306
 6234W        W22308  16.759  12.475  11.651  0.0522 -0.0248  0.0405
 6235W        W22309   6.957   3.722  15.350 -0.3000 -0.0931  0.0554
 6236W        W22310  12.538   2.952   3.348  0.1301  0.1662 -0.3721
 6237W        W22311  15.651   0.554   7.130 -0.0253  0.0107 -0.0501
 6238W        W22312  17.732   4.918   2.786  0.3048 -0.1355  0.1122
 6239W        W22313  14.840   2.154   2.979  0.1115 -0.1237  0.1481
 6240W        W22314   6.310  14.981   1.642  0.2534 -0.0615  0.0224
 6241W        W22315  11.327  10.844  14.872  0.1151  0.0408  0.3310
 6242W        W22316   2.686   1.514  16.630  0.1085  0.3497 -0.0042
 6243W        W22317   3.526  15.766  15.158  0.0186 -0.0169 -0.2435
 6244W        W22318  15.295   9.610  11.120  0.1026  0.3029  0.0103
 6245W        W22319  16.271   2.406   4.461 -0.2546  0.3012  0.0998
 6246W        W22320  13.748  13.502  12.561  0.1874  0.0940 -0.1420
 6247W        W22321  15.174   9.864  12.828  0.0415  0.0626 -0.1702
 6248W        W22322   2.597  11.930  16.666 -0.0766 -0.0530 -0.0324
 6249W        W22323  14.559  10.584   5.558  0.0618 -0.0635  0.1960
 6250W        W22324   6.879  15.545   3.913  0.2832  0.2276 -0.1539
 6251W        W22325   1.176  17.665  13.354 -0.0021 -0.2446  0.5222
 6252W        W22326   9.999  15.664  15.810 -0.2123 -0.1719 -0.2563
 6253W        W22327   2.963   8.336  13.385 -0.0350  0.0908 -0.2259
 6254W        W22328   1.191  11.072   1.922 -0.2262  0.0268  0.3099
 6255W        W22329   6.148   2.593  12.129  0.0140  0.2473  0.0402
 6256W        W22330  10.975   8.855   3.216 -0.1078 -0.0604  0.2059
 6257W        W22331  13.964   9.047   2.155 -0.3263 -0.0115  0.2539
 6258W        W22332   6.853  16.276  15.463  0.2108 -0.1705  0.0169
 6259W        W22333  14.118   7.296  15.573  0.2104  0.0537 -0.2216
 6260W        W22334  16.973   5.500  13.012  0.2658 -0.1056 -0.0600
 6261W        W22335   9.032  10.858   1.318  0.1996  0.1286 -0.1701
 6262W        W22336  17.614   4.054  16.147 -0.1746  0.1856  0.2774
 6263W        W22337  12.036   4.592  16.380  0.0008 -0.2132 -0.4276
 6264W        W22338   4.985   0.818   0.852  0.1498 -0.0982 -0.0379
 6265W        W22339   1.674   1.546   2.051  0.0434  0.0650 -0.0264
 6266W        W22340  11.210   2.759   0.189 -0.2780  0.0058 -0.0708
 6267W        W22341   2.484   4.864   2.346 -0.1157  0.1396  0.1512
 6268W        W22342   4.897  15.268   4.824 -0.0301 -0.0677 -0.1774
 6269W        W22343   3.283   5.030   3.731  0.0437  0.1647  0.1477
 6270W        W22344   8.464   5.479  13.385 -0.1347  0.1641 -0.2013
 6271W        W22345   3.693   7.369   0.573 -0.1235  0.1435  0.2234
 6272W        W22346   8.761  16.158   2.619 -0.2424  0.0289  0.0377
 6273W        W22347  11.261   9.648   4.059  0.3184 -0.2690 -0.0495
 6274W        W22348  15.358  14.720   5.817  0.2441  0.0757 -0.0391
 6275W        W22349  13.938   2.839  16.562 -0.2312  0.0017  0.1156
 6276W        W22350   7.662   6.330  12.392 -0.2073  0.1542 -0.0100
 6277W        W22351  10.662  16.845   4.256 -0.0072  0.3057 -0.3269
 6278W        W22352   3.549   6.031  13.311  0.2615 -0.1056 -0.0008
 6279W        W22353  10.389  17.053  12.466 -0.3503 -0.0098  0.1602
 6280W        W22354  14.793  14.550  16.952  0.2403  0.0572  0.0976
 6281W        W22355  10.985   7.750   6.006  0.0177  0.0949  0.1329
 6282W        W22356  13.415   6.175   4.596  0.3349  0.0733  0.0868
 6283W        W22357   1.602  13.158  13.563 -0.0234  0.0606  0.1426
 6284W        W22358  16.218   4.498  16.289 -0.0957 -0.3041 -0.0138
 6285W        W22359  10.024   4.530   4.647 -0.0278  0.0256  0.5652
 6286W        W22360   4.667   5.644  16.515  0.1091 -0.0267  0.0151
 6287W        W22361  11.337   0.065   4.111  0.1020  0.0143 -0.0140
 6288W        W22362   1.671   7.477   5.011  0.0166 -0.0741 -0.1069
 6289W        W22363  13.723   0.181  16.582 -0.0492  0.1353 -0.0407
 6290W        W22364   2.475   7.095  14.439 -0.0977  0.4217 -0.0735
 6291W        W22365   8.945   7.722   1.967 -0.3374 -0.0070  0.0527
 6292W        W22366   3.999   3.229  16.070 -0.0239 -0.3427 -0.1893
 6293W        W22367  10.311  15.779  15.033  0.3072  0.1303  0.3041
 6294W        W22368  10.259   1.591   4.553  0.1999 -0.0475  0.0875
 6295W        W22369   4.024   5.238   0.115 -0.0983  0.1678  0.2689
 6296W        W22370   9.542  13.909   5.252  0.0465 -0.0817  0.0591
 6297W        W22371   6.590  17.522  16.561  0.1886  0.3160  0.1657
 6298W        W22372  12.150   5.089  12.559  0.0263  0.4543  0.1138
 6299W        W22373   2.209  11.488   0.981 -0.1289 -0.1690  0.4041
 6300W        W22374   3.065  17.586   3.263 -0.2128  0.1485  0.0190
 6301W        W22375   7.685  11.589  12.509  0.1391  0.0927  0.2068
 6302W        W22376   5.520   2.510   5.544 -0.3282 -0.0580  0.1553
 6303W        W22377   2.114  12.232   0.756  0.1766  0.0465  0.2072
 6304W        W22378   2.200  13.200  17.052  0.2545  0.0210  0.3538
 6305W        W22379   6.042   0.060   1.226 -0.3017 -0.3029  0.1752
 6306W        W22380  16.770  10.083   5.584  0.0919  0.1889  0.2159
 6307W        W22381   7.126   3.920   4.479  0.2458 -0.2152  0.0708
 6308W        W22382  10.557  13.814  12.265  0.1462  0.0329  0.0074
 6309W        W22383  14.100  15.298  13.814  0.0793  0.0634  0.3062
 6310W        W22384   9.804  13.976  12.753  0.0165 -0.0159 -0.0175
 6311W        W22385   0.606  16.751  15.460  0.0326  0.0264 -0.0068
 6312W        W22386   8.267   8.941   5.452 -0.3366 -0.0295  0.2318
 6313W        W22387  10.839   3.596   5.386  0.1034 -0.2579 -0.0663
 6314W        W22388  16.214   2.430  15.867 -0.2746 -0.1589 -0.1184
 6315W        W22389   4.350  16.123   3.869  0.3703 -0.0854  0.1800
 6316W        W22390  11.766   9.666  14.192 -0.0507 -0.0251  0.0515
 6317W        W22391   7.396   7.583   4.744 -0.1772  0.1351 -0.1347
 6318W        W22392   5.974  17.225  16.303 -0.0133  0.0220 -0.0292
 6319W        W22393   2.571  12.212  17.069 -0.3539  0.0005  0.3019
 6320W        W22394   6.098   3.487  12.723  0.2449 -0.0756  0.1458
 6321W        W22395  10.227   1.824  12.902  0.1593  0.1117 -0.0866
 6322W        W22396  15.589   6.143   3.733  0.1131 -0.1160  0.0203
 6323W        W22397   5.209  17.203   1.265  0.3231 -0.0241  0.3098
 6324W        W22398  14.723   5.619  11.692 -0.1743 -0.2181 -0.2121
 6325W        W22399   1.391   2.668   3.737 -0.2454 -0.0567  0.1981
 6326W        W22400   3.151   2.502  13.351 -0.4389  0.1336 -0.0554
 6327W        W22401   8.979  14.623  13.900  0.2591 -0.1018  0.2762
 6328W        W22402  11.798  16.024   1.817 -0.1751  0.2833  0.0295
 6329W        W22403   7.185   5.809  14.709  0.1750 -0.1418 -0.0886
 6330W        W22404   3.955   0.669   0.590 -0.0970 -0.0119  0.2121
 6331W        W22405  15.927   2.206   0.371  0.0647  0.4333 -0.0615
 6332W        W22406   6.547  12.045   3.150 -0.4846  0.0151 -0.3196
 6333W        W22407   8.958  17.242   4.946  0.1515  0.1055  0.2957
 6334W        W22408   6.044  15.933  16.028 -0.1843 -0.0586  0.1540
 6335W        W22409   9.229  16.334   4.854 -0.0401  0.0546 -0.2488
 6336W        W22410   1.918  10.131   5.279  0.0884  0.1652 -0.0047
 6337W        W22411   2.885   0.963   1.345 -0.0488  0.0903 -0.1303
 6338W        W22412   1.140  16.370  16.043  0.1116 -0.1801  0.1634
 6339W        W22413  12.671   4.235   2.530 -0.2950  0.0944  0.2022
 6340W        W22414  12.557  13.759   2.548  0.0514 -0.0214 -0.2577
 6341W        W22415   2.401   2.550  15.365 -0.2847  0.2075 -0.3350
 6342W        W22416  16.212   1.861  12.726 -0.0618  0.0701  0.0064
 6343W        W22417  16.145   7.559  13.405  0.0732  0.1005 -0.1172
 6344W        W22418  13.496   2.328   1.221 -0.0279 -0.0841 -0.2234
 6345W        W22419  10.911   8.754  15.189  0.1681  0.0182 -0.4974
 6346W        W22420   7.395  13.110   1.166  0.1624  0.2324 -0.0198
 6347W        W22421   2.148   4.198  12.852 -0.0019  0.1213 -0.1060
 6348W        W22422   6.742   5.916  14.940  0.1215 -0.2658 -0.0301
 6349W        W22423   9.996   8.631  14.429 -0.2535 -0.0291  0.2496
 6350W        W22424   5.617   5.989   0.204  0.2028  0.1241  0.1340
 6351W        W22425   2.776  12.850   3.047 -0.2948  0.1402  0.0239
 6352W        W22426   6.664  15.208  11.964 -0.0265 -0.0410  0.1983
 6353W        W22427   7.757  16.427  13.404 -0.0641 -0.0757  0.1801
 6354W        W22428  11.989   9.680   3.656  0.0566  0.1100  0.2166
 6355W        W22429   5.353   4.204   1.812  0.2547 -0.0942 -0.2272
 6356W        W22430  10.893  17.574   4.190  0.0953 -0.2213  0.0453
 6357W        W22431  16.191   9.630   4.284 -0.2357 -0.0697  0.1006
 6358W        W22432  16.663   8.216   2.776 -0.0385  0.0208 -0.0111
 6359W        W22433   2.150  11.694  16.724  0.1791  0.0084  0.0577
 6360W        W22434   7.553   8.280  16.556 -0.0283  0.0809 -0.0884
 6361W        W22435   6.990  17.675  15.319 -0.5284 -0.2056  0.0750
 6362W        W22436   2.942   5.719   0.630  0.0410  0.0380 -0.0980
 6363W        W22437  16.066   2.366  14.248  0.2148  0.0198  0.0165
 6364W        W22438   8.509   0.071   0.916  0.0984 -0.1039 -0.0306
 6365W        W22439   4.106   6.208  14.390  0.3567 -0.2132 -0.1194
 6366W        W22440   0.277  12.391   4.004 -0.3731  0.0263  0.1625
 6367W        W22441  13.819  15.524  10.723  0.0685 -0.0018  0.1216
 6368W        W22442   0.647   7.012   0.874  0.0001  0.1298  0.3447
 6369W        W22443   5.190   7.393  14.198 -0.1453  0.1406 -0.2259
 6370W        W22444  17.523  15.467  15.946 -0.2257 -0.2356 -0.0594
 6371W        W22445   2.268   1.025  15.610 -0.0723 -0.3396 -0.1626
 6372W        W22446   3.495   9.945   2.934 -0.3877 -0.0526 -0.0003
 6373W        W22447   0.848   1.195   3.744 -0.1169  0.1484  0.1182
 6374W        W22448   6.421   7.026  16.744 -0.2515  0.0611 -0.0047
 6375W        W22449  14.274   5.481  14.042 -0.2369  0.1855 -0.1141
 6376W        W22450  12.178  13.883  12.246 -0.0370  0.0155 -0.1514
 6377W        W22451   4.006   6.630  16.779 -0.1176  0.2874 -0.1400
 6378W        W22452   3.930   0.245  16.858  0.0984 -0.1431 -0.1890
 6379W        W22453   4.797   6.055  16.166 -0.1601 -0.0658 -0.1770
 6380W        W22454   4.359   4.461   1.781  0.0183 -0.0802 -0.0298
 6381W        W22455   6.984  13.252   5.703 -0.0152 -0.0260 -0.1673
 6382W        W22456   4.119   7.009  17.089 -0.0448 -0.1839  0.1670
 6383W        W22457   5.366  16.976   2.647  0.1677 -0.3001  0.1073
 6384W        W22458   5.823  10.351   1.208  0.0585 -0.0237  0.1563
 6385W        W22459   8.877  16.895  16.637  0.1523 -0.0372 -0.1911
 6386W        W22460  11.750  15.652  13.476  0.1605 -0.1969 -0.1390
 6387W        W22461   5.349   6.816  16.165 -0.2884  0.0139  0.0953
 6388W        W22462   7.353  13.481   4.036  0.0980  0.0961  0.1321
 6389W        W22463  12.015  10.909   2.306 -0.3185 -0.0601  0.1914
 6390W        W22464   7.713  10.217   1.393 -0.1653  0.4596  0.1342
 6391W        W22465  14.134  16.882  12.521 -0.0178 -0.1224  0.1043
 6392W        W22466   5.126   3.441  14.851 -0.0824 -0.2688  0.1326
 6393W        W22467  17.492  11.829   3.818 -0.1277  0.1471  0.0200
 6394W        W22468   8.603  13.765   3.140  0.0223 -0.0850  0.0101
 6395W        W22469   5.087   4.788  16.200  0.0480 -0.0559 -0.2474
 6396W        W22470  15.904  11.331   3.850 -0.1573 -0.0909 -0.1452
 6397W        W22471   4.879  14.491   4.414  0.0245 -0.1319 -0.3680
 6398W        W22472   5.062   4.124   2.611 -0.1513  0.1455 -0.0719
 6399W        W22473   1.530  15.963   2.456 -0.2828  0.0251  0.2766
 6400W        W22474  11.133   4.968  16.646  0.1395 -0.0736 -0.1024
 6401W        W22475  16.224  14.936   3.860  0.3072 -0.1233 -0.2712
 6402W        W22476   4.254   8.933   2.374  0.0449  0.1414  0.1020
 6403W        W22477   2.672   8.936   5.129  0.3044 -0.2415 -0.2508
 6404W        W22478   0.656   8.904  12.563  0.1442  0.1386 -0.7821
 6405W        W22479  14.542  16.996  14.437  0.1274  0.1118 -0.1689
 6406W        W22480  13.759   3.200   5.013  0.0805 -0.1612 -0.0455
 6407W        W22481  15.904  16.727   2.797 -0.1206  0.0196 -0.0949
 6408W        W22482   2.925  17.640   5.891 -0.0279 -0.1996  0.2266
 6409W        W22483  15.467   1.758  12.052  0.2046  0.3215 -0.3081
 6410W        W22484  11.779  12.182   1.205  0.0329  0.1510  0.0894
 6411W        W22485  17.289   7.112   5.835 -0.3436  0.4345 -0.1039
 6412W        W22486   2.234   6.414  17.027 -0.1555 -0.0591  0.0151
 6413W        W22487   0.626   7.542   0.057  0.2219 -0.2931 -0.0586
 6414W        W22488   8.533   4.677  12.939 -0.1584  0.1240  0.0817
 6415W        W22489  17.118   6.076  13.944  0.1226  0.1310 -0.2623
 6416W        W22490  10.759  15.756  17.157 -0.0367 -0.0985  0.0740
 6417W        W22491   7.703  17.501   2.746 -0.0634 -0.1673 -0.2563
 6418W        W22492   9.493  16.163  12.857  0.1193  0.2137 -0.3164
 6419W        W22493  16.670   1.451  13.273 -0.3029 -0.0503  0.3522
 6420W        W22494  17.541   8.753  13.666 -0.0855  0.1174  0.1779
 6421W        W22495  17.457  12.135   1.832  0.0599 -0.2515  0.1958
 6422W        W22496   5.807   9.980   6.840  0.1730 -0.2082  0.3533
 6423W        W22497  14.571  11.772   3.909 -0.3150 -0.1520 -0.3093
 6424W        W22498   5.705   1.752   2.299  0.0322  0.2210 -0.1064
 6425W        W22499   6.458  11.139  15.555  0.2608 -0.2189  0.1826
 6426W        W22500  14.313  13.432   3.475  0.2071 -0.1170 -0.1300
 6427W        W22501  11.772  16.043  15.651 -0.1596 -0.1040 -0.4930
 6428W        W22502  10.044   8.471  12.116 -0.0249  0.3664  0.1244
 6429W        W22503   6.263   4.131   5.572 -0.2580  0.2090  0.2427
 6430W        W22504  14.357   6.228  14.640  0.1021 -0.2659 -0.1911
 6431W        W22505  10.760  16.210   4.915 -0.1342 -0.1884 -0.2124
 6432W        W22506  15.547   2.566   2.193 -0.3170 -0.1982 -0.1705
 6433W        W22507  12.995   5.759  12.326 -0.1032  0.0145  0.1877
 6434W        W22508  16.385   9.040  15.378 -0.0828  0.0148  0.0394
 6435W        W22509  12.168  10.568   1.344  0.1974 -0.0047 -0.1654
 6436W        W22510   1.762   9.972  12.838 -0.1606  0.2366  0.1649
 6437W        W22511   3.530   8.809   5.000  0.0414  0.1646  0.0838
 6438W        W22512   7.258  12.192  16.176 -0.0002 -0.2943  0.0830
 6439W        W22513  17.613   6.878   5.557 -0.0881  0.3190  0.0299
 6440W        W22514   8.321  15.164  16.776  0.2952 -0.1961  0.3803
 6441W        W22515  14.819   6.056  13.397 -0.1243  0.1630 -0.2817
 6442W        W22516  14.789  16.764   2.585  0.1732 -0.1253  0.2087
 6443W        W22517  15.780  10.858  14.725 -0.1877  0.3229 -0.3062
 6444W        W22518   9.727  12.861   5.310 -0.0957 -0.0077  0.2186
 6445W        W22519   1.175   5.396  15.249  0.0973  0.1444 -0.0096
 6446W        W22520   8.473   8.097  13.639 -0.1797  0.2815 -0.4722
 6447W        W22521   1.578   6.473   5.181  0.2017  0.0158  0.0194
 6448W        W22522   1.516  13.155   5.025 -0.2552 -0.1459 -0.0793
 6449W        W22523   2.039  11.132   1.846 -0.1991 -0.3510  0.1328
 6450W        W22524   7.205   7.401   1.375 -0.0306  0.0713 -0.0465
 6451W        W22525   4.642   2.232   3.418 -0.1860  0.0845 -0.2275
 6452W        W22526   8.808   6.623  13.308  0.1182  0.1585  0.1373
 6453W        W22527   6.709  11.545   2.483 -0.1930 -0.0670  0.0277
 6454W        W22528   4.552  10.788   4.900  0.0397 -0.2314 -0.0569
 6455W        W22529   8.605   0.447   1.237  0.3533 -0.0725  0.1394
 6456W        W22530   5.653   2.101  16.087 -0.1230  0.0161 -0.2559
 6457W        W22531   1.614   5.264   4.400  0.3117 -0.0233 -0.3369
 6458W        W22532  15.178   4.241   5.622 -0.0492  0.1865 -0.1384
 6459W        W22533   3.692  12.510   5.162 -0.3087 -0.3348 -0.0980
 6460W        W22534  12.680  10.427   2.345  0.2829  0.0761 -0.0057
 6461W        W22535  14.057  15.157   3.191  0.2840  0.0290  0.0071
 6462W        W22536  17.232   6.493   1.445 -0.1475  0.1059 -0.2421
 6463W        W22537   3.308   5.130   4.620  0.0006  0.1105 -0.1418
 6464W        W22538  17.623  16.084   0.025 -0.1174 -0.0374  0.0084
 6465W        W22539  15.030   7.713   4.835 -0.0805 -0.0441  0.1015
 6466W        W22540  15.968   3.842   1.183 -0.1716 -0.2264  0.1963
 6467W        W22541   7.045   3.489   1.367  0.2095 -0.1507 -0.0079
 6468W        W22542   0.090  12.986  15.668 -0.2109  0.0154  0.0061
 6469W        W22543   2.620  13.561   1.870 -0.0687 -0.1382 -0.0411
 6470W        W22544   2.340   8.182  13.105 -0.1510  0.1446  0.1702
 6471W        W22545   9.950   9.763   1.279  0.2716 -0.1151  0.0974
 6472W        W22546   7.393  14.698   0.880 -0.2340 -0.0757  0.1458
 6473W        W22547   6.629  12.357  16.588 -0.1813 -0.2617 -0.3825
 6474W        W22548  12.978  16.269  12.875  0.0969  0.2052  0.1427
 6475W        W22549   8.208  16.599   3.049  0.2684 -0.0019  0.0137
 6476W        W22550  17.515   3.627  14.824  0.0739 -0.0403  0.0661
 6477W        W22551   6.208  16.858  11.635 -0.1609 -0.0100 -0.0579
 6478W        W22552  13.184   2.799  16.753 -0.2655 -0.0694 -0.0338
 6479W        W22553  13.939   8.549  15.133  0.0771 -0.1553  0.0973
 6480W        W22554  12.497  13.456  15.016 -0.0896  0.2210  0.0301
 6481W        W22555   8.329  13.722  13.274  0.0456 -0.1076  0.0250
 6482W        W22556   5.196  17.061   1.759 -0.3084 -0.0347  0.0163
 6483W        W22557   1.276   2.342   4.714 -0.0082  0.3139  0.1124
 6484W        W22558  11.875  15.559   3.539  0.1539 -0.0521  0.1579
 6485W        W22559  13.904  13.382  16.774 -0.2204 -0.0081  0.1122
 6486W        W22560   8.599  11.344  14.023  0.1734 -0.1048  0.2087
 6487W        W22561  14.368  16.501   1.482 -0.0523  0.3080 -0.0053
 6488W        W22562   4.439   2.994   4.546  0.4758 -0.0865 -0.0979
 6489W        W22563  15.199   1.242  13.863 -0.1916 -0.1792 -0.1074
 6490W        W22564  15.705  11.197   1.966  0.1045  0.2258 -0.4235
 6491W        W22565   4.985  15.101  14.198 -0.4899  0.0237  0.2731
 6492W        W22566   4.785  14.188   5.538 -0.1759 -0.0067  0.0967
 6493W        W22567   3.451   1.146   2.793  0.0924 -0.0130  0.2003
 6494W        W22568   9.513  16.603  14.745 -0.1592 -0.1354  0.0920
 6495W        W22569   0.415   1.523  12.723 -0.1056  0.0305  0.1539
 6496W        W22570  14.761   5.249   5.388  0.0498  0.0223  0.1151
 6497W        W22571   3.412   9.880   1.969  0.1654  0.1498  0.0689
 6498W        W22572  12.393  11.180  13.065  0.0596 -0.1018 -0.3312
 6499W        W22573  17.585   7.854  12.729 -0.2016  0.1254 -0.2416
 6500W        W22574   5.042  10.801  17.012  0.3327  0.0474  0.1242
 6501W        W22575   4.350   9.860   5.675  0.0663  0.1944 -0.1701
 6502W        W22576  12.538  16.567   0.191  0.1723 -0.0815  0.2740
 6503W        W22577  11.571   1.525   3.815  0.2009  0.0929  0.5427
 6504W        W22578  14.776  16.092   4.674  0.1239  0.1974  0.0646
 6505W        W22579  13.902   3.887  11.346  0.3322 -0.2653  0.1498
 6506W        W22580   5.969  10.845  14.668 -0.3224 -0.1076  0.0727
 6507W        W22581   4.908   8.330   4.743 -0.3598 -0.2786  0.0392
 6508W        W22582  12.545  12.111   3.038  0.1222 -0.1534  0.2043
 6509W        W22583  14.514   3.522   2.975 -0.1781 -0.0720  0.0299
 6510W        W22584  14.529   4.805   5.917 -0.0506  0.3240 -0.1184
 6511W        W22585   7.817  10.643   0.282  0.3325  0.1548  0.0443
 6512W        W22586  15.215   0.759  13.647 -0.2820  0.1718 -0.2021
 6513W        W22587   9.855  16.048  13.512  0.2826 -0.1616 -0.0184
 6514W        W22588  16.968   0.185   0.199  0.2644 -0.1727  0.1352
 6515W        W22589   2.769  10.376   3.447 -0.2967 -0.0918 -0.0269
 6516W        W22590  10.368   4.271  14.930  0.2346 -0.1446 -0.0585
 6517W        W22591   4.565  11.372  15.285 -0.1070 -0.2773  0.1265
 6518W        W22592   0.853  10.268   3.663 -0.5168  0.2829 -0.0220
 6519W        W22593   1.909   9.147   5.168  0.1589 -0.0705  0.0695
 6520W        W22594   8.453   8.316  12.136 -0.0210 -0.3206  0.1197
 6521W        W22595  14.443   1.427   6.221 -0.3428 -0.3205  0.0566
 6522W        W22596   2.498   3.241   6.080 -0.2235 -0.0694 -0.0755
 6523W        W22597   4.382   7.394   3.965 -0.1026 -0.0496 -0.1344
 6524W        W22598   3.162   8.522   1.953  0.0227  0.1401  0.0262
 6525W        W22599  14.437   8.125   4.448 -0.3543 -0.1862 -0.1070
 6526W        W22600   8.840  12.365   3.902 -0.0104 -0.3208  0.0019
 6527W        W22601   3.767   1.013  14.353  0.1692  0.0525 -0.2194
 6528W        W22602   4.510   7.369   2.614 -0.1837 -0.2388  0.1587
 6529W        W22603  12.819  12.237   3.408 -0.0754  0.0039 -0.1054
 6530W        W22604  12.884  14.904  13.122 -0.1890  0.3143  0.0690
 6531W        W22605   5.618   2.188  13.040 -0.0614  0.0174 -0.0357
 6532W        W22606  12.023   0.612  11.979 -0.1019 -0.1958  0.0910
 6533W        W22607   0.116  14.439  17.095 -0.0623 -0.1194  0.1883
 6534W        W22608  11.601  11.799  15.856 -0.0333  0.1316  0.0748
 6535W        W22609   6.805  14.443  13.698  0.2284  0.1194  0.2527
 6536W        W22610  14.125  14.394   0.606  0.1066 -0.0934  0.1171
 6537W        W22611   2.938   2.226  15.932 -0.1975  0.1384  0.0992
 6538W        W22612   5.536  15.703   4.100 -0.1445 -0.0808 -0.1118
 6539W        W22613   0.177   4.885   1.402 -0.1159 -0.1936  0.1321
 6540W        W22614   6.334   7.744   3.902 -0.0523  0.2157  0.3053
 6541W        W22615   9.025   4.480  15.481 -0.1678  0.0939  0.3598
 6542W        W22616   1.995   7.804  15.988  0.1796  0.0211  0.0120
 6543W        W22617   2.835  13.466   4.951 -0.1332 -0.1791  0.0319
 6544W        W22618  10.263  14.281  14.474 -0.2697  0.0413  0.1677
 6545W        W22619  14.875  11.096  11.201  0.3825  0.1263 -0.1183
 6546W        W22620   7.235   2.750  15.145  0.4350  0.0679  0.1526
 6547W        W22621   3.062   2.030  17.087  0.2729  0.0301  0.1425
 6548W        W22622   8.279   6.627  14.518  0.2107 -0.0194  0.0645
 6549W        W22623   8.175  14.305  13.928 -0.1542  0.0039  0.3221
 6550W        W22624   5.924   1.780   0.998  0.0755  0.0708  0.0160
 6551W        W22625   8.429  13.056  12.329  0.0615  0.0678  0.0956
 6552W        W22626   4.775   8.579  12.844 -0.1032  0.1205  0.0834
 6553W        W22627  13.136   2.318  13.130 -0.1761 -0.1189  0.1146
 6554W        W22628   3.224   6.814  15.428 -0.0578 -0.2446  0.0264
 6555W        W22629   3.079  11.323  16.681 -0.1187  0.0582 -0.0071
 6556W        W22630  14.730   4.786  17.116 -0.2409 -0.2778  0.0871
 6557W        W22631   3.990   2.947  16.938 -0.0467 -0.0599 -0.1776
 6558W        W22632   2.203   5.009  12.325 -0.1334 -0.2616  0.2502
 6559W        W22633  15.615  13.645   4.453  0.0026  0.2380  0.1094
 6560W        W22634  11.782   0.922   0.338 -0.0356  0.1634  0.1846
 6561W        W22635   4.714   2.502  15.161 -0.0548  0.0359 -0.0741
 6562W        W22636   7.499  16.661  13.819 -0.2102  0.0130  0.0342
 6563W        W22637   9.655   2.625   2.132  0.1203 -0.3261  0.0686
 6564W        W22638   5.507  12.527  14.534 -0.1584 -0.0181  0.0432
 6565W        W22639   2.435  15.506  15.174 -0.0479 -0.0976 -0.1267
 6566W        W22640  16.189  14.250   1.150 -0.2356  0.1564  0.2428
 6567W        W22641  17.463   1.654  12.029  0.2362 -0.0063 -0.2629
 6568W        W22642   9.811   7.220   3.506 -0.2080 -0.0857  0.3036
 6569W        W22643  14.408   9.155  13.980  0.0645  0.2028  0.1898
 6570W        W22644  14.783  14.618  13.420 -0.0591  0.2868 -0.0146
 6571W        W22645  12.571   4.392  14.237  0.1980 -0.2011 -0.1839
 6572W        W22646   8.920  16.643  13.514  0.0168  0.1519  0.1044
 6573W        W22647  11.682   2.948   5.715  0.0325  0.1878  0.0960
 6574W        W22648  10.196   2.792   4.226  0.0449 -0.2225 -0.1213
 6575W        W22649  10.684   4.127   0.727 -0.3300  0.0338  0.0241
 6576W        W22650   9.666   6.255   3.185  0.0890 -0.0699  0.0545
 6577W        W22651  11.180  17.665  12.674 -0.1638 -0.0630  0.0383
 6578W        W22652   6.548  13.322   1.828 -0.1170 -0.2347 -0.1410
 6579W        W22653   4.807  10.038   2.049 -0.3118  0.0775  0.3686
 6580W        W22654  11.005  13.611   6.393  0.2304 -0.1924 -0.0119
 6581W        W22655   9.836  12.926  13.771  0.1647 -0.0608 -0.1523
 6582W        W22656   8.209  15.456   4.113 -0.0599 -0.0732 -0.0695
 6583W        W22657   3.776   8.404  16.012  0.0487 -0.3775  0.3360
 6584W        W22658   2.023  11.194   4.824 -0.1370  0.0741 -0.1490
 6585W        W22659  11.856   7.431   5.734 -0.0084 -0.1128 -0.1974
 6586W        W22660   4.700  14.119   2.032 -0.0975 -0.0708  0.1300
 6587W        W22661  11.109  12.110  17.029 -0.3699 -0.0030  0.0575
 6588W        W22662  11.747   5.449  15.020  0.0700 -0.1538 -0.0415
 6589W        W22663  15.737   7.846  15.208  0.1493  0.1609  0.2578
 6590W        W22664   2.897   4.426  16.986  0.0913 -0.1320 -0.1817
 6591W        W22665   1.430  13.277   0.871  0.1767 -0.2074 -0.3462
 6592W        W22666  16.906  12.253  14.312  0.0893 -0.2899  0.0364
 6593W        W22667   5.362  11.402   4.671  0.0225 -0.0625  0.2856
 6594W        W22668  11.091   2.833   5.203 -0.1227  0.0039 -0.3285
 6595W        W22669   2.679  13.591  12.538  0.0549 -0.2242  0.2030
 6596W        W22670  11.805   3.999  16.375 -0.0170 -0.1757 -0.0164
 6597W        W22671   3.959   7.232   2.046  0.0997  0.2864 -0.1613
 6598W        W22672   9.826  17.293   4.472 -0.0018  0.2082 -0.0057
 6599W        W22673  15.076   6.076   3.747 -0.0111  0.2669  0.3208
 6600W        W22674   6.542   1.646   0.258 -0.0829  0.1694 -0.0303
 6601W        W22675   3.694  10.903   1.824  0.0299  0.0373 -0.0155
 6602W        W22676  11.477  13.735   2.332  0.0048 -0.2366 -0.1139
 6603W        W22677   0.078   7.038  16.570 -0.3061 -0.2217 -0.1003
 6604W        W22678   2.981   4.783  16.591  0.0885  0.2258 -0.0517
 6605W        W22679   5.279  16.331  13.639 -0.0447  0.0231  0.1464
 6606W        W22680   9.479   7.614   2.037  0.0243 -0.0517 -0.3013
 6607W        W22681  14.169  13.343  15.157 -0.0875  0.0554 -0.3026
 6608W        W22682   4.741   8.634   5.814 -0.1521 -0.0419  0.1214
 6609W        W22683  14.448  17.174   2.770  0.0503 -0.2087  0.2191
 6610W        W22684   0.808  16.971  14.081  0.4334 -0.3444  0.1562
 6611W        W22685  15.617   9.915  13.079  0.0786 -0.3100  0.1829
 6612W        W22686  13.651  12.834   1.452  0.1662  0.2285 -0.0210
 6613W        W22687   9.950   3.621   4.130 -0.4108  0.1734 -0.0543
 6614W        W22688   2.444   9.315   0.033 -0.2135  0.0465 -0.0292
 6615W        W22689   1.088  10.914  12.071 -0.4757  0.2135  0.0142
 6616W        W22690  11.994   0.410  16.629  0.0633 -0.0778 -0.2951
 6617W        W22691   5.807   3.755   3.126  0.1625 -0.0008 -0.0409
 6618W        W22692   0.510  16.636  13.239 -0.0275  0.2614  0.2405
 6619W        W22693  15.917   0.236   0.192  0.0673 -0.0226 -0.1893
 6620W        W22694   3.773  13.516   1.799  0.0425 -0.4030 -0.1636
 6621W        W22695   0.874  11.254  16.192  0.0002  0.1833  0.1614
 6622W        W22696  14.761   3.257   2.554  0.0161 -0.0398 -0.0727
 6623W        W22697   7.139  11.683  17.088  0.0094  0.0850  0.3336
 6624W        W22698  11.564   4.452   3.858 -0.1900 -0.2203  0.2336
 6625W        W22699   9.530  17.162   2.995  0.0478 -0.0715 -0.0431
 6626W        W22700  15.783   6.144  17.111  0.0528 -0.0172  0.1313
 6627W        W22701  15.137  14.702   2.541  0.1534  0.1332 -0.0812
 6628W        W22702   8.721  11.462  12.706 -0.5057 -0.2105 -0.1495
 6629W        W22703   8.124   1.903   3.668  0.0930 -0.1908  0.1111
 6630W        W22704   5.308   7.064   1.894 -0.1105 -0.1043 -0.2972
 6631W        W22705   6.691   6.268  13.911  0.1134 -0.0809 -0.2261
 6632W        W22706   2.963  13.287  12.279  0.0056 -0.1173  0.0697
 6633W        W22707   0.476   9.646  11.770 -0.2002  0.0986  0.0853
 6634W        W22708  10.110  12.190   4.796  0.1984 -0.0202  0.1436
 6635W        W22709   8.245   9.366   1.146  0.2149  0.0452  0.0950
 6636W        W22710   9.430  12.759  16.881  0.1911  0.1665  0.1617
 6637W        W22711  14.731  14.983   2.648 -0.0771  0.1440 -0.0079
 6638W        W22712   3.299  14.322  13.525 -0.1522  0.2314  0.0219
 6639W        W22713   9.796   4.057   4.572 -0.0649  0.2785  0.0760
 6640W        W22714  10.228  14.959  14.408 -0.0856 -0.0022  0.1342
 6641W        W22715  17.252   8.835  14.079 -0.0132 -0.2405 -0.1575
 6642W        W22716   1.147   8.764  13.638 -0.3074  0.1565  0.0041
 6643W        W22717   5.966   9.764   0.601  0.2212  0.0646 -0.1916
 6644W        W22718  13.256   5.005  12.347  0.1230 -0.1624  0.1136
 6645W        W22719  13.945  15.765   4.226  0.1114  0.1218  0.3355
 6646W        W22720  11.720   9.038   5.085  0.0247 -0.1078 -0.0361
 6647W        W22721   5.076   8.306  12.586  0.2207 -0.0179 -0.0843
 6648W        W22722  13.538   5.578  15.627 -0.1507 -0.2228  0.0849
 6649W        W22723   2.907   5.398  12.194 -0.0207 -0.1556  0.0484
 6650W        W22724  15.717  10.129   1.492  0.0956  0.0455 -0.2674
 6651W        W22725  13.747   4.583   6.581 -0.2755  0.0925  0.0225
 6652W        W22726  17.648   6.649   3.078 -0.1497 -0.2638  0.1715
 6653W        W22727  10.061  16.655   4.409 -0.1329 -0.0665  0.2808
 6654W        W22728   9.981   5.609   2.857 -0.1626  0.1889  0.1808
 6655W        W22729   8.368  16.440   3.899 -0.0896 -0.1527  0.1326
 6656W        W22730  14.219  11.572  16.225  0.0385  0.0467  0.1753
 6657W        W22731   0.288  13.706   2.235  0.3464  0.0516  0.0601
 6658W        W22732  16.221  14.900  16.911  0.5526 -0.1281 -0.0447
 6659W        W22733  15.362  13.690   1.132  0.0672  0.0782  0.2250
 6660W        W22734  10.530   8.552   3.505  0.0548  0.0048 -0.1232
 6661W        W22735  12.269   9.910  15.744  0.1661  0.7013 -0.2751
 6662W        W22736   2.089  16.553   2.144  0.2581 -0.3076 -0.1805
 6663W        W22737   7.615   7.920   3.812 -0.2115 -0.1287 -0.1219
 6664W        W22738   8.664   9.734   3.002 -0.1056 -0.1060 -0.1227
 6665W        W22739  16.670   9.331   3.052 -0.2770 -0.0620 -0.0339
 6666W        W22740  14.197   0.231   1.843 -0.0046  0.1819  0.2253
 6667W        W22741  14.691  15.900  12.704  0.0676 -0.1815  0.0796
 6668W        W22742   6.868  13.065   0.891  0.1699 -0.0432  0.1547
 6669W        W22743   2.716  12.385   3.814 -0.1429 -0.0083 -0.1522
 6670W        W22744   8.245  10.335  12.187 -0.0399 -0.0428  0.0778
 6671W        W22745   5.922   1.230  15.938  0.1462 -0.2512 -0.1326
 6672W        W22746   9.417   8.571   1.824 -0.1317  0.1340  0.3553
 6673W        W22747  11.913  17.167  16.324  0.0548  0.2043 -0.1487
 6674W        W22748  12.665  15.686   1.912  0.0180  0.2067 -0.1016
 6675W        W22749   7.420   0.606   2.064  0.1351 -0.0407 -0.1102
 6676W        W22750   7.204  16.235   0.591 -0.0455 -0.2265  0.0060
 6677W        W22751   0.409   8.011   2.108 -0.1629  0.3168  0.0129
 6678W        W22752   4.860   3.165   1.743  0.1040 -0.3107 -0.0425
 6679W        W22753  12.058  17.103   2.570  0.1322  0.4379  0.1523
 6680W        W22754  17.675  13.577   6.075  0.1307 -0.0365 -0.0766
 6681W        W22755  12.736  14.915  16.224  0.0126  0.0285 -0.0338
 6682W        W22756  13.849   4.242  13.209  0.1822  0.1624  0.0350
 6683W        W22757   8.917   5.155  13.213 -0.1287 -0.1489  0.1036
 6684W        W22758   3.589   1.039   5.590 -0.1592  0.0051 -0.2849
 6685W        W22759  12.250   1.466   3.096 -0.1262  0.1439  0.1375
 6686W        W22760   6.024   2.908   6.230  0.0343 -0.1230 -0.0072
 6687W        W22761   1.142  13.334  17.103  0.0720  0.0199  0.0531
 6688W        W22762   0.767  15.529  13.819  0.2463 -0.0489  0.0904
 6689W        W22763   8.819   4.984   5.428  0.2100  0.0893  0.0455
 6690W        W22764   9.261   2.417   1.579  0.2195  0.0289 -0.1391
 6691W        W22765  15.665  16.223   3.413 -0.2488 -0.0262 -0.1672
 6692W        W22766   3.943  17.027   2.716  0.1312 -0.1334  0.0943
 6693W        W22767   4.685   5.209   3.891 -0.1707 -0.4423 -0.4000
 6694W        W22768  15.876   0.952  15.947  0.1494  0.0528  0.0178
 6695W        W22769  15.764   9.953  13.538 -0.0858  0.0561 -0.2193
 6696W        W22770   8.629   7.618   5.558  0.4941  0.1808  0.1616
 6697W        W22771  13.168  10.858   3.340  0.1902 -0.5240  0.0180
 6698W        W22772  12.760   8.148   4.863 -0.0613  0.0175 -0.1070
 6699W        W22773   5.676  13.664  16.782 -0.2185  0.1524  0.0523
 6700W        W22774   5.682   3.689  14.384  0.1006 -0.0402 -0.0446
 6701W        W22775  14.555   9.659   0.128 -0.2700  0.0012  0.3813
 6702W        W22776  14.525   0.255   0.548  0.1431 -0.1568 -0.1736
 6703W        W22777  16.980   9.015  14.501 -0.1184 -0.0328 -0.0812
 6704W        W22778   8.394  16.750   5.310 -0.2927 -0.0919  0.0281
 6705W        W22779   4.609  14.166  13.112  0.1614  0.1259 -0.0340
 6706W        W22780  10.873   4.435  14.360 -0.1522  0.0990  0.0153
 6707W        W22781  12.761   0.418  15.685  0.1910  0.1205 -0.0292
 6708W        W22782   1.671  14.546  15.882 -0.0134  0.3969 -0.1647
 6709W        W22783  17.701  16.502   3.665 -0.1043 -0.0377  0.3678
 6710W        W22784  12.950   0.534   1.058 -0.0897  0.0434 -0.1903
 6711W        W22785   5.784  12.441   1.880 -0.0180  0.2132  0.1779
 6712W        W22786   8.828  16.496   5.592  0.1688  0.0474 -0.0991
 6713W        W22787  12.761   8.665  15.547 -0.1383 -0.0944 -0.0907
 6714W        W22788   3.428  11.108  11.851  0.0763  0.0874 -0.1982
 6715W        W22789   5.667   4.153   2.188 -0.0667  0.0301 -0.1083
 6716W        W22790  16.634  11.591   3.150 -0.1868  0.2949 -0.0400
 6717W        W22791  13.190  17.295   4.596 -0.3339  0.0056  0.0374
 6718W        W22792   8.533   9.908  12.275  0.0347 -0.0712  0.0495
 6719W        W22793   3.212   0.972  15.303  0.1584 -0.1016 -0.0608
 6720W        W22794   6.421  17.567  15.048 -0.0600 -0.0295 -0.1904
 6721W        W22795   3.046  14.154   3.609  0.1580  0.0758 -0.2198
 6722W        W22796   2.788  15.381   2.996  0.2523 -0.2114 -0.1559
 6723W        W22797   9.557   8.141   1.514 -0.1970 -0.3454  0.0525
 6724W        W22798  13.465  16.230   4.363 -0.2018 -0.0906 -0.0315
 6725W        W22799   8.465   0.464  16.098  0.3160 -0.1411  0.1197
 6726W        W22800   7.642   7.409   1.598  0.0259 -0.3484  0.0078
 6727W        W22801   6.469  14.865   6.425 -0.0673 -0.4009  0.1589
 6728W        W22802   4.520  12.726  13.707  0.1405  0.5282  0.0931
 6729W        W22803  14.175   5.509   5.355  0.0605 -0.1329 -0.2346
 6730W        W22804   4.835  11.017  15.700  0.1328  0.3569  0.0023
 6731W        W22805   8.290   0.218   0.072 -0.0317 -0.0828 -0.2373
 6732W        W22806   7.375   6.046  12.658 -0.2029 -0.1084  0.1146
 6733W        W22807   4.335   4.553   5.368 -0.2351  0.1020  0.3177
 6734W        W22808   9.713   4.594  16.873 -0.2814 -0.1584 -0.0391
 6735W        W22809   2.748   8.019   4.082  0.2113 -0.1466  0.3570
 6736W        W22810  11.523   0.212  15.783  0.1736 -0.1718 -0.0020
 6737W        W22811   9.075  17.433   6.437  0.0083 -0.1345  0.1366
 6738W        W22812   6.751  16.503   0.379 -0.1013 -0.2171 -0.0587
 6739W        W22813   1.595  11.342   2.021  0.0123 -0.2407 -0.1991
 6740W        W22814  12.274   0.688   5.613  0.1081 -0.1266 -0.0771
 6741W        W22815   4.648   8.958  11.971 -0.1851  0.1660 -0.0761
 6742W        W22816  16.304  10.231   5.721 -0.1815 -0.1260 -0.2958
 6743W        W22817  17.070  11.265  15.193 -0.0429  0.0298 -0.1569
 6744W        W22818   5.648   3.023   4.855  0.3629 -0.0412  0.2256
 6745W        W22819  16.882   9.076   1.669  0.0887 -0.0677  0.0123
 6746W        W22820   3.627  12.002   0.461  0.0799  0.0048  0.2120
 6747W        W22821   3.776   1.904  16.546 -0.2392  0.0695  0.0041
 6748W        W22822   2.953   0.285  14.437  0.0346  0.2783  0.2768
 6749W        W22823  16.472   7.043   0.609  0.0198  0.1377  0.1173
 6750W        W22824   4.283   0.629   4.242 -0.2097  0.1683  0.3195
 6751W        W22825   5.189   2.967  14.153  0.1671  0.1514  0.0057
 6752W        W22826   1.679  16.916  13.915 -0.0814 -0.0077  0.2190
 6753W        W22827   5.348  11.858   2.518  0.1485 -0.2424  0.0097
 6754W        W22828  14.743  10.965   1.927  0.2613 -0.1017 -0.2134
 6755W        W22829  10.026   9.290   3.466 -0.0042 -0.0234 -0.2148
 6756W        W22830   7.978  14.172   4.246 -0.1545 -0.2331 -0.2079
 6757W        W22831  10.941  12.030  14.474  0.3083  0.3393 -0.0881
 6758W        W22832  16.302   4.218  12.956 -0.0279 -0.0455  0.0223
 6759W        W22833   1.486  10.319   2.190 -0.2450 -0.0780  0.0018
 6760W        W22834   1.347   6.238   1.891 -0.0457  0.1996  0.0234
 6761W        W22835   5.213  15.148   0.663  0.0009 -0.2113  0.2178
 6762W        W22836  13.353   6.110   2.272 -0.2873  0.2434 -0.1454
 6763W        W22837  13.084  12.911  15.394 -0.1187  0.0279 -0.0280
 6764W        W22838   3.829   7.008  15.506  0.0140 -0.1804 -0.1836
 6765W        W22839   8.199   1.237   2.399  0.0140 -0.1187 -0.2674
 6766W        W22840   3.742   1.193  15.212  0.0837 -0.0619 -0.5266
 6767W        W22841  17.604   5.351   5.592  0.0429 -0.1827  0.0147
 6768W        W22842   1.789   9.665   4.397 -0.5091  0.1164 -0.1482
 6769W        W22843  15.146  15.830   6.406  0.0434 -0.2215 -0.1417
 6770W        W22844   3.830  16.586   0.175 -0.0082 -0.2261 -0.0141
 6771W        W22845  14.760   5.484  15.521  0.1154 -0.2165 -0.0213
 6772W        W22846   8.115   5.572  13.689 -0.3345 -0.0656 -0.3130
 6773W        W22847   2.092   6.006  12.608 -0.0429 -0.0342  0.0681
 6774W        W22848   6.641   4.564  16.821  0.1618 -0.3967  0.1669
 6775W        W22849   2.026  16.497   0.340  0.1777  0.3969  0.0866
 6776W        W22850   5.875  12.007   2.944 -0.1708 -0.0540  0.1666
 6777W        W22851   7.016  10.493  13.870  0.1445  0.0372 -0.1106
 6778W        W22852  17.626  10.513   5.989  0.3104  0.1797 -0.0293
 6779W        W22853   0.164   4.447  13.755  0.1716 -0.2259 -0.0233
 6780W        W22854   3.472   5.319   3.371 -0.1162  0.1875  0.3623
 6781W        W22855  12.317  12.874  14.824 -0.0023  0.3885  0.2072
 6782W        W22856  14.961   0.278  12.277  0.2397 -0.0234  0.0804
 6783W        W22857  13.784   9.538  14.578  0.1612  0.2726 -0.1917
 6784W        W22858   5.809   4.244   5.810 -0.0489  0.0098 -0.1595
 6785W        W22859  11.557   1.853   5.302  0.1325  0.0028 -0.1819
 6786W        W22860  16.036   1.093   4.680  0.0197 -0.0510  0.0481
 6787W        W22861   9.527  14.702  15.052 -0.0300  0.1562  0.2838
 6788W        W22862  10.411  12.952   4.306  0.0198  0.0725  0.3011
 6789W        W22863   3.683   6.282  14.774  0.1828  0.1274 -0.0275
 6790W        W22864  16.005  16.401  12.973  0.3186  0.2178 -0.0346
 6791W        W22865   3.823   6.396   2.078 -0.2149 -0.0493 -0.0153
 6792W        W22866  16.655   3.304   4.275 -0.0309  0.0533  0.0663
 6793W        W22867   4.683   9.634   5.921  0.2262  0.2736 -0.2449
 6794W        W22868   2.656  13.435   1.315  0.1849  0.3019 -0.3820
 6795W        W22869   2.575  13.264  13.494 -0.2644 -0.1802  0.1131
 6796W        W22870  17.063   1.869   0.015  0.2451 -0.0512 -0.0606
 6797W        W22871   4.183  12.687  12.753  0.1348 -0.2239 -0.1117
 6798W        W22872  15.877  13.674   3.337 -0.0220 -0.0633 -0.1439
 6799W        W22873  15.973  14.089   5.950  0.3244  0.0043  0.0612
 6800W        W22874   3.682  15.479   5.280 -0.0001 -0.1037 -0.3221
 6801W        W22875   4.352  15.209   0.301  0.0464 -0.2116 -0.2039
 6802W        W22876  13.709  14.115   0.571 -0.0862  0.1178  0.0040
 6803W        W22877   4.104   4.840  13.637 -0.0705 -0.0721 -0.1718
 6804W        W22878   9.428   3.979   3.101  0.2262  0.2260  0.1090
 6805W        W22879   9.130  13.986   4.120  0.0670 -0.2228  0.2082
 6806W        W22880   3.550  15.168   3.347  0.0584  0.1604  0.3858
 6807W        W22881  13.302   5.935  15.324 -0.1009 -0.2432  0.5068
 6808W        W22882   6.182  14.020   1.825 -0.2580  0.1809  0.2835
 6809W        W22883   7.630  15.590   1.861 -0.1037 -0.1522  0.0843
 6810W        W22884   7.390  16.486  12.281  0.0227  0.3027  0.0498
 6811W        W22885   1.533   7.432  12.543 -0.1327 -0.1397 -0.0307
 6812W        W22886   0.895   3.845   0.694  0.0125  0.5389  0.0302
 6813W        W22887   1.184  16.110   4.356 -0.0828  0.0814  0.3443
 6814W        W22888  13.876   1.087   1.966  0.1449  0.2001 -0.1737
 6815W        W22889   2.410  15.155   3.268 -0.2437 -0.1739  0.0507
 6816W        W22890   1.540   5.246  13.663 -0.0435 -0.0269  0.0552
 6817W        W22891   5.271  16.146   4.068  0.1902 -0.0264 -0.1759
 6818W        W22892   8.026  13.140   4.491  0.4020  0.0759  0.0494
 6819W        W22893   9.361  13.032  12.524  0.0615 -0.2728 -0.2518
 6820W        W22894  16.090   4.646  16.928 -0.0211 -0.1549  0.0728
 6821W        W22895  16.784   2.770   1.260 -0.4049  0.1229 -0.3483
 6822W        W22896  16.689   6.290   1.309 -0.0361 -0.4223  0.4740
 6823W        W22897  13.951   8.601   2.413 -0.1497  0.3020 -0.1764
 6824W        W22898   1.763   0.646   5.957  0.0330 -0.1348 -0.2485
 6825W        W22899   0.308   6.139  11.797  0.0319 -0.2514  0.3056
 6826W        W22900  17.099   2.478  14.325  0.0498 -0.3405  0.5045
 6827W        W22901   4.182   2.827   5.768  0.0452  0.0235  0.2744
 6828W        W22902   4.812   4.096  12.696  0.0708 -0.1409  0.1980
 6829W        W22903   2.942   7.393   1.542 -0.0951  0.3055  0.3476
 6830W        W22904  10.083  16.248   4.781  0.0367 -0.0201  0.1032
 6831W        W22905  14.919  15.214  14.609 -0.0284 -0.4723  0.0525
 6832W        W22906  14.524   7.182  16.951  0.1219 -0.1279  0.0174
 6833W        W22907   4.703   9.586  13.315  0.0833 -0.1107  0.3411
 6834W        W22908   6.597  14.584  16.199  0.2133 -0.0052  0.0059
 6835W        W22909  11.492  13.399  12.715  0.0228 -0.1819  0.0668
 6836W        W22910  14.455   3.938  15.554  0.0164  0.1758  0.2631
 6837W        W22911   3.837   2.898   3.222  0.0048  0.1289  0.3057
 6838W        W22912   9.418   6.528  16.866  0.0932 -0.2703  0.0418
 6839W        W22913  13.862   2.758  11.973  0.0024  0.0245  0.1112
 6840W        W22914  11.741   1.264   0.756  0.0430  0.0617 -0.0497
 6841W        W22915  10.782   2.430   5.477  0.1981 -0.2984 -0.1348
 6842W        W22916  10.394  11.859  14.561 -0.2291 -0.1205  0.0600
 6843W        W22917   6.952  14.980   0.021 -0.1080  0.2138  0.1520
 6844W        W22918  13.277  13.838  15.355  0.0844  0.1080  0.0114
 6845W        W22919   2.751  11.647   5.551 -0.0881 -0.0267  0.1334
 6846W        W22920   4.561  13.781  16.706  0.1317  0.0356  0.3110
 6847W        W22921   3.076   1.625  13.511  0.2017 -0.0019  0.0750
 6848W        W22922   7.264  14.224   4.721 -0.1777  0.0288 -0.0705
 6849W        W22923   0.042   5.394   0.164 -0.2270 -0.1084  0.1835
 6850W        W22924   7.666   5.211   3.965 -0.1052  0.1409  0.1039
 6851W        W22925  12.912  13.778  17.160  0.0542  0.1779 -0.1677
 6852W        W22926   5.999  16.695   0.479  0.0956  0.1770  0.1237
 6853W        W22927  16.912  12.379  12.749  0.1080 -0.1793  0.0469
 6854W        W22928  13.010  11.673  12.915 -0.2159  0.0251  0.3537
 6855W        W22929   7.343   8.513   1.026 -0.0134  0.0819 -0.0019
 6856W        W22930   6.492  11.415  16.446 -0.0637 -0.0146  0.0514
 6857W        W22931   9.725   5.155  11.769  0.0906  0.0914 -0.1841
 6858W        W22932   6.900  13.038   2.537 -0.1321  0.0032  0.0255
 6859W        W22933  12.154  14.149  11.040 -0.2069  0.3201 -0.0297
 6860W        W22934  16.279  16.665  13.881 -0.1637  0.1564  0.0257
 6861W        W22935   9.296   4.446   0.312  0.1943  0.0564 -0.0932
 6862W        W22936  13.193   2.322   1.584  0.1823  0.0747 -0.0081
 6863W        W22937   8.244   2.430  12.961 -0.0892  0.1390  0.1677
 6864W        W22938   4.727  11.383  14.479  0.0008 -0.0130  0.1131
 6865W        W22939   5.461  13.086   1.600  0.0348 -0.0793  0.2147
 6866W        W22940  10.795   5.647   4.339 -0.0024 -0.0194  0.0436
 6867W        W22941   7.342   8.664   5.391  0.1203  0.2684 -0.0511
 6868W        W22942   8.204   1.305   1.089 -0.0221 -0.0254  0.0862
 6869W        W22943  10.242   4.806   4.232 -0.0051 -0.2364  0.0654
 6870W        W22944   2.276   2.456  11.772 -0.0378  0.0028  0.0383
 6871W        W22945   4.628   2.004   4.108 -0.1438  0.0291  0.1053
 6872W        W22946   4.708  15.234   5.637  0.0308  0.0337  0.2206
 6873W        W22947   7.728   2.871  15.113 -0.1771  0.1250  0.0611
 6874W        W22948  15.023   6.127   0.542 -0.1406  0.0689 -0.3381
 6875W        W22949  13.742   5.771   4.603 -0.0740  0.3041  0.0772
 6876W        W22950  10.218   6.999  16.398 -0.0445  0.0301  0.0286
 6877W        W22951   8.171   7.335  14.161  0.0785  0.0942 -0.0090
 6878W        W22952  13.008   2.428  15.079  0.4338  0.0604  0.0217
 6879W        W22953  16.326   0.491   4.500 -0.0337 -0.2580  0.1634
 6880W        W22954  11.623  17.348   4.898  0.1512  0.0412 -0.1388
 6881W        W22955   8.015   7.324  15.006 -0.2444  0.0466 -0.0077
 6882W        W22956   6.167   5.933   5.510  0.2383 -0.2612  0.0395
 6883W        W22957   6.155  10.712   2.705 -0.0929 -0.2002  0.0778
 6884W        W22958   5.499   4.493  13.555 -0.0191 -0.0287  0.1007
 6885W        W22959  16.760  15.256  16.377  0.2047 -0.1218  0.0428
 6886W        W22960   2.274  16.795  14.523 -0.0339  0.0630  0.1731
 6887W        W22961  12.927   7.223  14.166 -0.2112  0.1535 -0.2634
 6888W        W22962   5.753  11.385  16.928  0.2214 -0.3121 -0.1758
 6889W        W22963   3.592  12.939   4.849  0.3840  0.1624 -0.0414
 6890W        W22964  10.639   3.996  15.216  0.0756 -0.1397 -0.1118
 6891W        W22965   1.587   8.877   5.508 -0.2928 -0.3292  0.0179
 6892W        W22966  17.561  15.913  16.226  0.0417 -0.2559 -0.0258
 6893W        W22967  16.267  13.115   3.841  0.2314  0.0265 -0.0504
 6894W        W22968  14.456  13.925  13.943 -0.0270 -0.0097  0.0513
 6895W        W22969  14.139  10.753  16.604 -0.0770  0.1622  0.3582
 6896W        W22970   9.627   8.644   0.150 -0.0286  0.0868 -0.0869
 6897W        W22971   1.116   0.890  15.613 -0.1211  0.0799 -0.0142
 6898W        W22972   7.482   1.815  15.255  0.2457  0.1386 -0.0254
 6899W        W22973  17.609   8.949   2.006  0.4515  0.2940  0.0910
 6900W        W22974   4.603   7.991   1.277  0.0587 -0.2421  0.2625
 6901W        W22975   9.676  13.559   1.646 -0.0377  0.1048  0.1433
 6902W        W22976   6.242  13.703  15.931  0.0559  0.1012  0.0542
 6903W        W22977  11.603   8.025  16.364 -0.3945 -0.0529 -0.0648
 6904W        W22978   6.838   8.935   2.841 -0.2950  0.0790  0.2868
 6905W        W22979  16.393   5.583   0.225 -0.0632 -0.2744  0.1058
 6906W        W22980  14.571   0.255  17.131 -0.0088  0.1079 -0.2141
 6907W        W22981   9.043   0.162   1.308 -0.0817 -0.3205 -0.0192
 6908W        W22982   2.921  13.792  14.548  0.3740  0.0883 -0.1366
 6909W        W22983  10.425   5.015  15.714 -0.3889 -0.1925  0.2063
 6910W        W22984  15.158   1.476   3.287 -0.0941  0.2916  0.0255
 6911W        W22985  10.360   7.682   4.263 -0.1886 -0.0969 -0.2372
 6912W        W22986  14.823   9.704   4.648  0.0118 -0.0106 -0.0140
 6913W        W22987   9.564   6.957  13.963  0.0762 -0.1389  0.0049
 6914W        W22988  13.880   1.925  13.691 -0.1179 -0.1700 -0.2502
 6915W        W22989  16.006   7.108  16.539  0.1693 -0.1579  0.0098
 6916W        W22990  11.860  14.377  14.092 -0.1381 -0.1497 -0.2605
 6917W        W22991  17.482   9.080   3.721 -0.2357  0.0188 -0.0726
 6918W        W22992   0.968  14.844   3.678  0.0293 -0.1823 -0.2678
 6919W        W22993  12.844   4.816  14.897 -0.0311 -0.0656 -0.0973
 6920W        W22994   6.933   1.873  16.612 -0.1756 -0.0990 -0.2060
 6921W        W22995  11.092   8.021   1.779 -0.2013  0.2177 -0.1384
 6922W        W22996  12.506   9.957  12.614 -0.0390  0.0842  0.0936
 6923W        W22997  12.189   1.339  12.685 -0.0134 -0.0325  0.0460
 6924W        W22998   9.231  10.050   1.137  0.1313  0.0133 -0.0418
 6925W        W22999   5.401  10.167   5.596  0.2020 -0.2604  0.1323
 6926W        W23000   6.586  15.105   4.569 -0.0238  0.2515  0.2023
 6927W        W23001   9.897   1.742   2.417  0.3223 -0.0701  0.1139
 6928W        W23002   0.778  11.003  15.701  0.0286 -0.3978 -0.1991
 6929W        W23003  16.503  16.671   2.730  0.0998  0.2519  0.2798
 6930W        W23004   9.105  11.086   5.226  0.1965 -0.1477 -0.0244
 6931W        W23005   0.470   4.653  16.493  0.1216 -0.1228  0.0687
 6932W        W23006   6.773   1.527  12.120 -0.0437  0.2301  0.2217
 6933W        W23007   8.615  11.817   2.264  0.1940 -0.2507  0.0462
 6934W        W23008  17.093  12.108  11.726  0.1248 -0.1640  0.0200
 6935W        W23009   9.483  12.109  14.224  0.4197 -0.0424 -0.0141
 6936W        W23010  14.307   2.868   0.722  0.2463  0.0209 -0.1078
 6937W        W23011   4.132  10.277  11.773 -0.0801  0.1470  0.3277
 6938W        W23012   6.221   0.368  16.135  0.0960  0.2585  0.1216
 6939W        W23013   8.928   8.879   0.013 -0.1348  0.1231  0.0106
 6940W        W23014   2.188  14.123   1.069  0.2135 -0.0417 -0.1640
 6941W        W23015   6.475   2.646   2.811  0.0164  0.2982  0.1961
 6942W        W23016   9.814  17.377   2.261  0.0509 -0.2252 -0.1328
 6943W        W23017   8.536  12.854   2.351  0.2102 -0.1431 -0.1260
 6944W        W23018   8.916  12.946   6.315  0.3274 -0.2334 -0.2358
 6945W        W23019   9.283   5.369   0.654 -0.0059  0.1205  0.3541
 6946W        W23020  12.234   9.577  13.468 -0.1568 -0.0927 -0.0913
 6947W        W23021   7.829  14.261   1.648  0.0224  0.0890  0.1461
 6948W        W23022   1.993  17.448   4.225  0.0619 -0.0103 -0.1917
 6949W        W23023   5.557   6.507  16.831 -0.1504 -0.1549 -0.0269
 6950W        W23024  14.509   3.319   0.817 -0.4426 -0.2915  0.0916
 6951W        W23025  10.461  11.528  12.286  0.1248  0.2198 -0.0702
 6952W        W23026   9.138   9.548   0.940 -0.0757 -0.0190 -0.0407
 6953W        W23027  16.873   1.982   2.483 -0.0061 -0.0408  0.0545
 6954W        W23028  10.401  11.005  14.058 -0.0921 -0.1172 -0.1957
 6955W        W23029  13.091   0.260  13.025 -0.3739  0.1456  0.0242
 6956W        W23030  14.811  14.718  14.538  0.0621  0.4529  0.3017
 6957W        W23031   0.923   8.001   1.959 -0.0376 -0.1531  0.1143
 6958W        W23032   3.189  13.291   1.348 -0.0988 -0.2338  0.0505
 6959W        W23033   2.013  13.307   5.696 -0.3613 -0.0531 -0.0110
 6960W        W23034   5.769  11.516   0.679 -0.2808  0.1645  0.0719
 6961W        W23035   3.898  13.950   4.168  0.2337 -0.1129  0.0466
 6962W        W23036  17.211   4.022   5.239 -0.0688 -0.3436 -0.2432
 6963W        W23037   9.255   4.573   4.258  0.1225 -0.3516 -0.1268
 6964W        W23038  16.410   0.336  16.627  0.3394 -0.1404 -0.1551
 6965W        W23039   9.577   7.240  14.351  0.0068  0.0466 -0.1675
 6966W        W23040   6.452  10.796  12.761  0.4123 -0.0133  0.0559
 6967W        W23041   5.553   9.635   0.349  0.0283 -0.1903  0.2624
 6968W        W23042   4.255  12.411   1.609 -0.0685  0.2474 -0.2273
 6969W        W23043  15.979   1.061  17.054  0.0235  0.3916  0.1432
 6970W        W23044   9.013  15.804  12.926  0.1234  0.0834  0.0642
 6971W        W23045   8.677   9.215  11.152 -0.1297  0.0391 -0.0782
 6972W        W23046   1.805   8.333   1.042 -0.0232  0.0591 -0.2071
 6973W        W23047  16.159   0.141  14.989  0.0010 -0.0379  0.0727
 6974W        W23048   5.256   6.588   1.822 -0.0877 -0.0598 -0.0319
 6975W        W23049  12.240  10.570   1.983 -0.0410 -0.0446  0.2694
 6976W        W23050  12.851  12.034  17.092 -0.3105  0.1152 -0.3294
 6977W        W23051   6.931  17.740  13.050  0.1120 -0.0811  0.0982
 6978W        W23052  14.699   2.358  14.998  0.0354 -0.1181 -0.2095
 6979W        W23053   9.975   7.163  15.533 -0.1194 -0.2300  0.1000
 6980W        W23054   2.319   8.971  14.532  0.4067  0.0149  0.2872
 6981W        W23055  11.130  16.451   2.981 -0.1255 -0.1357 -0.2213
 6982W        W23056  13.922  13.096   3.669  0.2000  0.0293 -0.2387
 6983W        W23057  15.467  10.275  12.778 -0.0781 -0.0875 -0.0501
 6984W        W23058  13.962  16.474  12.961  0.0496  0.3378 -0.0975
 6985W        W23059   9.218   6.605   3.276  0.0547 -0.1038 -0.1711
 6986W        W23060  10.825  15.630  15.727 -0.2061  0.0267  0.0626
 6987W        W23061   4.412   9.223  13.563  0.0820  0.1865 -0.1313
 6988W        W23062  16.606   2.721  16.553 -0.0937  0.1519  0.1250
 6989W        W23063   9.055   1.275   2.210 -0.1798 -0.0289 -0.1450
 6990W        W23064   6.640   5.710   1.597 -0.2056  0.0164 -0.0072
 6991W        W23065  14.502  15.720   4.109 -0.0987  0.0163  0.0235
 6992W        W23066   1.041   8.789  14.618  0.1795  0.0487 -0.0020
 6993W        W23067  12.623   8.856  16.001  0.0614  0.1748  0.2145
 6994W        W23068  15.039  17.407  12.849 -0.0008  0.1230 -0.2246
 6995W        W23069   9.216   6.624   0.531 -0.0526  0.0361  0.2666
 6996W        W23070   2.556   9.403   4.353 -0.0403 -0.2004 -0.0524
 6997W        W23071  13.892   5.064  16.859  0.2272  0.1169 -0.1868
 6998W        W23072  10.001   9.225  15.176 -0.0956 -0.1129  0.1375
 6999W        W23073   7.980   7.947   6.122  0.1161 -0.3457 -0.1861
 7000W        W23074   9.374  16.097   5.317 -0.0935  0.0066 -0.0801
 7001W        W23075   7.476  14.650   1.926 -0.2480  0.0274 -0.1780
 7002W        W23076   5.234  14.629   1.358  0.0689  0.0966  0.2693
 7003W        W23077  14.070  12.496  15.634 -0.1255  0.1685 -0.1539
 7004W        W23078  14.980  14.604   3.521  0.2233 -0.1404 -0.0505
 7005W        W23079   2.446   8.739   3.623 -0.1969  0.2206 -0.3133
 7006W        W23080   9.900  10.978  16.449  0.0622 -0.1450 -0.1034
 7007W        W23081  11.350  11.155  15.287  0.1230 -0.1483  0.0989
 7008W        W23082  12.300  14.734   4.286  0.3099 -0.0086  0.0976
 7009W        W23083  10.230  13.747   3.630 -0.0591 -0.1122  0.0429
 7010W        W23084  16.240  15.605  15.112  0.2703 -0.0309  0.1361
 7011W        W23085   4.555  11.192   0.020  0.0210  0.0664  0.0594
 7012W        W23086   5.478  14.179   0.728 -0.0757  0.0276  0.2487
 7013W        W23087   9.800   5.871   0.055  0.0992  0.1823  0.0531
 7014W        W23088   7.800  12.639   0.387  0.2057  0.2241 -0.0298
 7015W        W23089   6.646   8.232   2.366  0.1240  0.2856  0.1266
 7016W        W23090  13.868   5.257  15.934 -0.0256 -0.1097  0.4025
 7017W        W23091  14.793  10.407   3.853  0.1279  0.2187 -0.0074
 7018W        W23092   7.330   0.583  11.685  0.1522  0.0328 -0.0723
 7019W        W23093  11.620   2.149   3.203 -0.1920  0.0391  0.1392
 7020W        W23094   9.223   4.500   2.229  0.0956  0.1368 -0.0547
 7021W        W23095   0.864   9.123   4.945  0.0954 -0.0407  0.0797
 7022W        W23096  11.626  10.918  16.918  0.3577 -0.2262 -0.3442
 7023W        W23097   3.249   5.603  13.317  0.2165 -0.0043  0.1518
 7024W        W23098  16.165   9.090   2.413  0.2992  0.0921  0.2390
 7025W        W23099  13.900  12.638  11.763 -0.0715 -0.3656  0.0496
 7026W        W23100   5.106  12.177   1.099  0.2495 -0.0305 -0.3257
 7027W        W23101  13.149   2.791  12.762  0.1201  0.1308  0.2720
 7028W        W23102  11.997   3.159  16.863 -0.1908 -0.2329 -0.1408
 7029W        W23103   6.267   1.657   6.127 -0.0334  0.0359 -0.2744
 7030W        W23104  16.482  11.763   2.567  0.2934  0.0054  0.0003
 7031W        W23105   2.955  16.266  12.252 -0.3232 -0.1066  0.2138
 7032W        W23106   4.482  10.166  15.692  0.1569 -0.0248  0.2289
 7033W        W23107   5.180  12.023  14.485 -0.1184  0.0422 -0.0794
 7034W        W23108  16.676  12.859  11.376  0.2193 -0.2787 -0.2700
 7035W        W23109   4.334  12.394   6.118  0.0128 -0.1295  0.2055
 7036W        W23110  14.935   4.370  14.258 -0.0157  0.1197  0.0708
 7037W        W23111  16.431   0.381   4.033 -0.1458  0.0233 -0.0958
 7038W        W23112   1.509  11.753  12.164  0.0234  0.0384 -0.0420
 7039W        W23113   5.409   0.252   3.707  0.4055 -0.1288  0.1382
 7040W        W23114   4.084  10.288  14.289  0.1030 -0.0421  0.0046
 7041W        W23115   2.969  14.380   0.837 -0.1792  0.2335 -0.0886
 7042W        W23116  13.547   0.262   5.463 -0.2456 -0.1697  0.2958
 7043W        W23117   2.687  15.624  11.895  0.3980 -0.3924  0.0933
 7044W        W23118   5.639   7.515   2.593  0.3455  0.2239  0.1866
 7045W        W23119   7.790   1.075   1.260 -0.2915 -0.5882  0.1874
 7046W        W23120   8.814  12.114  15.004 -0.1252  0.0246 -0.0414
 7047W        W23121   2.193  11.256  11.918 -0.2748 -0.1416  0.0004
 7048W        W23122  13.289   8.260  14.442  0.0327 -0.1634  0.4773
 7049W        W23123   2.553   0.063   1.239  0.1900 -0.2971  0.4260
 7050W        W23124   8.601   1.549   2.393  0.1566 -0.0612  0.1978
 7051W        W23125   5.754   4.109  13.275  0.0038 -0.1362 -0.0437
 7052W        W23126   0.956  14.810   5.468  0.2021  0.1395 -0.3220
 7053W        W23127  14.311   4.966  11.281  0.3346 -0.0101 -0.1829
 7054W        W23128   9.461  13.460  16.258  0.1848  0.0817  0.1889
 7055W        W23129   5.343  16.957  15.565 -0.3458 -0.0081  0.0915
 7056W        W23130  13.990  14.243   2.466 -0.0644  0.2914  0.1138
 7057W        W23131   3.039  11.771   2.620 -0.2644  0.1282 -0.2798
 7058W        W23132  17.277   0.284  12.341 -0.1254  0.0065  0.2567
 7059W        W23133   8.444  10.644   3.980  0.1722 -0.0719  0.0526
 7060W        W23134   6.769  17.350  11.836  0.1566  0.1220 -0.0333
 7061W        W23135  11.271  12.859   4.880 -0.2121  0.1429  0.1271
 7062W        W23136   0.591   4.356   1.877 -0.3961  0.0619 -0.0037
 7063W        W23137   5.845   7.119   1.197  0.2694 -0.0229 -0.2360
 7064W        W23138  15.876  12.557  13.369  0.0588  0.2247  0.1185
 7065W        W23139   8.344  12.596   3.977 -0.1033 -0.2785  0.2939
 7066W        W23140   0.246   9.039   1.148  0.1270 -0.1140  0.1192
 7067W        W23141  12.982  12.787  14.393  0.2018 -0.0031  0.1081
 7068W        W23142   9.261   8.763  15.800  0.0960  0.1285  0.2006
 7069W        W23143   0.464  15.868   5.048  0.0888  0.0495  0.1483
 7070W        W23144  15.301   1.749  13.793  0.2345  0.3753 -0.0385
 7071W        W23145   5.816   6.248   5.531  0.0713 -0.0332  0.0807
 7072W        W23146   4.087   3.377  15.477  0.1511 -0.1341  0.1903
 7073W        W23147  13.937  17.416  13.811  0.1414  0.0505  0.0660
 7074W        W23148  12.875  14.283  17.005 -0.0213  0.0658  0.0018
 7075W        W23149  12.119   3.733  14.002  0.1607  0.3303 -0.1911
 7076W        W23150   1.739   4.700  14.759 -0.0450 -0.3851  0.0690
 7077W        W23151   7.710  15.030   0.569 -0.1520 -0.2049  0.2726
 7078W        W23152   3.371  17.667   3.653 -0.0556 -0.2975  0.0366
 7079W        W23153   5.178  15.774   5.518 -0.1280  0.2930  0.0966
 7080W        W23154   7.248  13.667  16.816 -0.2534  0.0229  0.0775
 7081W        W23155  17.469  13.563  12.232 -0.4646 -0.0804  0.2645
 7082W        W23156   6.521  17.320   4.858 -0.0489 -0.0549 -0.1525
 7083W        W23157   9.445  15.609  14.937 -0.0553 -0.3469  0.0430
 7084W        W23158   4.407  13.806   2.393 -0.1170 -0.1108 -0.1518
 7085W        W23159   2.498   5.802   1.027 -0.0748 -0.1492  0.0790
 7086W        W23160  15.598  10.636   6.037 -0.0537 -0.1019 -0.0413
 7087W        W23161   0.549  17.007   4.148  0.1031  0.2475  0.1158
 7088W        W23162   8.020  14.772  16.874 -0.0152 -0.2226  0.1424
 7089W        W23163  14.427   8.671  11.498  0.2197  0.5996 -0.3944
 7090W        W23164  12.079   7.435  16.730  0.1536  0.0373 -0.0288
 7091W        W23165   6.429   4.564   2.585  0.2323 -0.0815 -0.1894
 7092W        W23166  14.168   4.635  16.695  0.1648 -0.1699 -0.2219
 7093W        W23167  13.351   3.795   1.654  0.0503 -0.2501  0.0179
 7094W        W23168  16.556   4.502   0.996 -0.0460 -0.0235  0.1006
 7095W        W23169  16.156   0.330  16.167 -0.0547  0.1586  0.1203
 7096W        W23170   9.068  13.353  15.574  0.1405  0.1277  0.2842
 7097W        W23171  16.828  10.361  15.555 -0.3223 -0.0380  0.0719
 7098W        W23172  15.311   2.296   3.037  0.1752 -0.0100 -0.3013
 7099W        W23173   7.855   7.654  13.872 -0.1903 -0.3178  0.1081
 7100W        W23174  11.421  12.765  16.149  0.2655 -0.0856  0.1011
 7101W        W23175  14.627  15.531  12.360 -0.2051  0.0965  0.1888
 7102W        W23176   1.371  11.297   0.228 -0.0867  0.1079  0.0296
 7103W        W23177   0.982  11.987  13.756  0.1122 -0.1116  0.2397
 7104W        W23178  14.171   5.188   1.056 -0.0555  0.2178  0.0763
 7105W        W23179   6.809  14.437   0.980 -0.0013 -0.1206  0.0447
 7106W        W23180   8.459  16.102  16.667  0.1496  0.0275  0.2505
 7107W        W23181  16.059  16.082  16.955 -0.0671 -0.4729 -0.3489
 7108W        W23182   5.406   1.154  12.400 -0.1147  0.2298 -0.1036
 7109W        W23183   9.915  14.178   4.431  0.1514 -0.2521  0.0176
 7110W        W23184   3.227  11.117  14.364 -0.1703 -0.2240  0.0382
 7111W        W23185   8.360  13.543   3.576 -0.2772  0.0161  0.0260
 7112W        W23186  12.019   4.327   1.225  0.0607  0.0619 -0.2260
 7113W        W23187  12.508  14.546  16.752 -0.0381 -0.1043  0.3098
 7114W        W23188   6.025  13.252   3.795 -0.0578 -0.0162 -0.0421
 7115W        W23189   7.621  11.696   2.510  0.1938  0.1920 -0.0177
 7116W        W23190   3.914   2.336   2.741  0.0862 -0.1238 -0.1767
 7117W        W23191   6.488  16.853   2.096 -0.5029 -0.1878 -0.1182
 7118W        W23192  10.478  12.116  14.956  0.0045  0.1356 -0.1168
 7119W        W23193   5.365   6.947   0.376 -0.1026  0.1752 -0.2876
 7120W        W23194  15.012  12.540   1.429  0.2093  0.0040 -0.0877
 7121W        W23195   0.661   7.463  12.456 -0.0518  0.1820 -0.0195
 7122W        W23196   3.187   3.625  15.811  0.0726 -0.0638 -0.3313
 7123W        W23197   3.287   6.531  14.468 -0.0764  0.0445 -0.1730
 7124W        W23198  10.281   4.022   0.946 -0.0814  0.0062  0.2138
 7125W        W23199   8.373   6.917   0.685 -0.3178  0.1514  0.0056
 7126W        W23200  16.019   4.960   4.175 -0.0399 -0.0042 -0.1893
 7127W        W23201   0.960  15.157   2.599  0.0734 -0.1110 -0.1259
 7128W        W23202  15.753   2.157  12.167 -0.0855  0.1622 -0.1283
 7129W        W23203  15.572   0.807  16.899  0.2990  0.2865 -0.1508
 7130W        W23204   4.286  14.554   6.143 -0.1204  0.1067  0.0105
 7131W        W23205   7.045   5.305   4.149 -0.3878  0.1696  0.1698
 7132W        W23206  14.271   5.683   3.893  0.0327  0.0767  0.0846
 7133W        W23207   6.936   9.627  14.866  0.3177  0.0334 -0.1338
 7134W        W23208  10.217   4.726   1.222  0.2138  0.0157  0.1356
 7135W        W23209   6.784   3.252  14.642  0.1130  0.1019  0.0020
 7136W        W23210   9.702  15.635   4.389 -0.1703 -0.1355  0.0565
 7137W        W23211   5.443  17.314  15.228 -0.2961  0.2012 -0.1551
 7138W        W23212   5.587   0.674   5.585 -0.1526 -0.2072  0.0817
 7139W        W23213  16.664  16.761   1.438  0.0033 -0.0511 -0.2430
 7140W        W23214   8.424   4.800   0.590  0.0716 -0.3021  0.0363
 7141W        W23215   9.612  15.104  11.904  0.0093 -0.4169 -0.1626
 7142W        W23216   5.320   6.058  16.963 -0.2286  0.1809  0.1198
 7143W        W23217   1.707   6.798   4.099  0.0349  0.2677  0.0872
 7144W        W23218  15.885  16.835  12.679 -0.0683  0.0313 -0.0366
 7145W        W23219   2.813  13.669   0.017 -0.1833 -0.0498 -0.2072
 7146W        W23220   3.181   8.385  12.038 -0.0577  0.3616 -0.1779
 7147W        W23221  17.586   5.005  14.636 -0.0637 -0.2149  0.2489
 7148W        W23222   5.686   8.464   3.688 -0.1196 -0.0087 -0.0173
 7149W        W23223  10.384   1.758   0.324 -0.2153 -0.1376  0.1042
 7150W        W23224  16.766  12.463   2.645 -0.1618  0.1172 -0.0295
 7151W        W23225   4.366   4.854   0.310 -0.1329 -0.2002 -0.1167
 7152W        W23226   4.360   8.919   1.368 -0.2492  0.1440  0.0187
 7153W        W23227   3.602  12.659  14.034 -0.1605  0.3012 -0.1052
 7154W        W23228  16.449   5.304  13.898  0.1617 -0.2526  0.0637
 7155W        W23229   0.574  11.925  12.098  0.0066  0.3468  0.2378
 7156W        W23230   0.069  16.225   4.358 -0.1008  0.1902 -0.1895
 7157W        W23231  14.515  10.671   0.561  0.1171 -0.0345 -0.0116
 7158W        W23232   0.010  14.773  13.134  0.2253  0.0684 -0.1477
 7159W        W23233  12.396  15.024  13.043  0.1047  0.1227 -0.0991
 7160W        W23234   0.008   3.266   5.136  0.2579  0.0637  0.0387
 7161W        W23235   8.001   1.752  13.524 -0.1114  0.0718 -0.0073
 7162W        W23236  15.786  10.429  13.846 -0.1921  0.0005 -0.3734
 7163W        W23237   6.207   8.926  16.860  0.0777 -0.2988  0.0823
 7164W        W23238   1.253  11.670   2.810 -0.1372 -0.2799  0.1968
 7165W        W23239  11.274   2.314   2.086 -0.2614 -0.1793 -0.2753
 7166W        W23240  11.826  11.987  12.609 -0.0913 -0.2273  0.1923
 7167W        W23241  17.688  15.759   5.738 -0.0627 -0.1196  0.0028
 7168W        W23242  10.690  10.393   0.887 -0.1842 -0.0719  0.1570
 7169W        W23243   8.880  13.106   1.976  0.0807  0.1129  0.2168
 7170W        W23244   4.834  14.906  14.906 -0.0944 -0.0149  0.1090
 7171W        W23245  11.189   9.665   5.631  0.2263  0.2676  0.0155
 7172W        W23246   6.414   6.337   0.991 -0.1339  0.0397 -0.0005
 7173W        W23247   4.789   4.755   0.725  0.0865  0.0188 -0.1699
 7174W        W23248  10.513   9.613  14.652 -0.2540  0.0170 -0.0590
 7175W        W23249   8.325  12.774  15.791 -0.1486 -0.0512 -0.1618
 7176W        W23250   9.597   1.904   0.368 -0.2418 -0.1801  0.1031
 7177W        W23251   2.835   9.025  12.746 -0.0561 -0.1031  0.0048
 7178W        W23252  10.496  10.012   2.752  0.0225 -0.3683 -0.0611
 7179W        W23253  15.722  16.455   1.873  0.3140  0.0737  0.2770
 7180W        W23254  10.061   3.124  16.944  0.1642 -0.3078 -0.0902
 7181W        W23255   3.787   7.197   6.242 -0.0142 -0.0733 -0.3187
 7182W        W23256   4.871   8.708  11.565 -0.0463 -0.1092  0.1020
 7183W        W23257   2.992   0.123  12.507 -0.4185 -0.2109 -0.1238
 7184W        W23258   9.515   8.120  16.611 -0.2918 -0.0477 -0.2363
 7185W        W23259  13.808  14.005  16.098  0.1414  0.0231  0.0411
 7186W        W23260   0.684   3.640  12.495 -0.0867  0.2478  0.0881
 7187W        W23261   2.592  11.544   2.604 -0.0473  0.0087 -0.0146
 7188W        W23262  15.456  15.061  16.711  0.0385  0.0923 -0.2602
 7189W        W23263  17.312  14.401   6.022 -0.0552  0.1283 -0.1017
 7190W        W23264   3.376   7.202  16.287 -0.2267 -0.1511 -0.1924
 7191W        W23265  12.704   3.322   0.310  0.0235 -0.1272  0.1562
 7192W        W23266   3.473   2.123  13.126 -0.2723  0.1335  0.0237
 7193W        W23267   9.646  10.156  13.233 -0.0095 -0.1447  0.1706
 7194W        W23268   6.249  14.849  16.404  0.0153  0.2001 -0.0674
 7195W        W23269  10.127   6.543  16.688 -0.0215  0.2827 -0.1888
 7196W        W23270  10.597   6.752  13.385  0.2724 -0.1669  0.0798
 7197W        W23271  16.324  10.656   0.961  0.0939 -0.2252  0.0138
 7198W        W23272   1.757  14.723   2.134  0.0251  0.2745  0.1460
 7199W        W23273   6.504  11.282   3.438 -0.0312 -0.3410 -0.2338
 7200W        W23274   7.567  13.797  16.465  0.0216  0.1663 -0.0230
 7201W        W23275  13.221   9.420   0.243  0.3519 -0.0330 -0.3613
 7202W        W23276   6.428  11.557  14.948 -0.1260 -0.0948  0.0345
 7203W        W23277   7.607   8.016   1.822 -0.1198 -0.0539  0.0442
 7204W        W23278   5.077  13.366   1.760 -0.0311 -0.2317 -0.0207
 7205W        W23279   9.888  12.159  13.478 -0.2927 -0.2098 -0.4875
 7206W        W23280   6.108  14.172   6.005 -0.0758  0.2902 -0.2192
 7207W        W23281  10.261   7.989   5.101  0.2412  0.0739 -0.1843
 7208W        W23282   6.702   2.167   1.578 -0.0604  0.1804 -0.5982
 7209W        W23283   2.978  16.783   2.639  0.1712 -0.0448  0.2450
 7210W        W23284  16.532   7.432  13.009 -0.1551  0.0580 -0.2882
 7211W        W23285   0.376   7.344   4.925 -0.0183  0.3925 -0.0064
 7212W        W23286   0.564  15.000   0.926 -0.0863 -0.1251  0.0402
 7213W        W23287  15.420  12.637   4.133 -0.0530  0.0356  0.1880
 7214W        W23288  10.177   6.918  12.167 -0.0127  0.0301 -0.0234
 7215W        W23289   9.686   9.035  14.173 -0.2436  0.0660  0.0325
 7216W        W23290   9.665  15.834   1.853  0.0101  0.1799  0.0460
 7217W        W23291  15.918  16.368   0.231  0.1196  0.2389  0.0570
 7218W        W23292  14.669  12.583  11.550 -0.0454 -0.3076  0.0496
 7219W        W23293   1.561   9.354  15.769  0.2143 -0.0898  0.1540
 7220W        W23294   8.545  10.137   4.240 -0.0622  0.0042  0.3584
 7221W        W23295   5.085   4.429  14.777 -0.2051  0.0556  0.0391
 7222W        W23296   6.956  10.842   0.390  0.1248  0.1537  0.2802
 7223W        W23297   6.836   4.318   1.835 -0.0750 -0.3558 -0.4889
 7224W        W23298  11.810  14.934   1.194 -0.0801 -0.0060 -0.0702
 7225W        W23299   0.909  16.793  11.940 -0.2555  0.0611  0.2268
 7226W        W23300   2.761   5.509  15.014 -0.1522  0.1375 -0.2633
 7227W        W23301  14.323   1.962   1.112  0.5606 -0.1401  0.2254
 7228W        W23302  16.408   9.734   4.730  0.0808 -0.3131  0.1072
 7229W        W23303   7.072   5.067   5.073 -0.2014  0.3744  0.1767
 7230W        W23304   3.770   2.419   2.218  0.1540  0.1136  0.0061
 7231W        W23305   4.556   4.374  15.529 -0.0371  0.2480 -0.0638
 7232W        W23306   0.988  12.978  13.487 -0.1942  0.1955  0.0216
 7233W        W23307   4.442  16.089   4.356 -0.2447 -0.0510 -0.1170
 7234W        W23308   5.264   9.320  12.628  0.0348  0.0032 -0.0798
 7235W        W23309  11.358   4.110  12.839  0.0658  0.1344 -0.1612
 7236W        W23310  12.435   3.685   1.754 -0.0149 -0.2387  0.5292
 7237W        W23311   7.201   6.919  12.334  0.2419  0.1190  0.0496
 7238W        W23312   1.905   0.537  16.219 -0.0464  0.1421 -0.0233
 7239W        W23313   5.271  16.703  15.097 -0.0395 -0.2764 -0.1909
 7240W        W23314   7.598  10.381   3.364  0.1022 -0.0909 -0.0208
 7241W        W23315   3.309   2.455  16.223 -0.0103  0.1152 -0.3350
 7242W        W23316  13.634  15.829   0.025  0.1348  0.3455  0.2516
 7243W        W23317  10.111  13.093  16.438 -0.0650 -0.2369 -0.2416
 7244W        W23318   5.061   1.059   3.308  0.1260  0.1019  0.2824
 7245W        W23319   9.316   3.297  16.355 -0.0711  0.1656  0.1731
 7246W        W23320   1.242   2.129   2.601  0.4209 -0.1262 -0.3140
 7247W        W23321   3.643   8.307   4.931  0.0906 -0.1077  0.3295
 7248W        W23322  16.492   6.631   1.605  0.0072 -0.1865 -0.2590
 7249W        W23323  13.147  13.520   0.943  0.3320  0.4192  0.0244
 7250W        W23324   0.954   2.382  12.970  0.0797  0.2316 -0.0121
 7251W        W23325   9.212   5.564  14.143  0.0403 -0.1722 -0.1612
 7252W        W23326   4.384  12.550   4.468  0.0703  0.3248 -0.0390
 7253W        W23327  13.217   7.381  16.573 -0.2843 -0.0719  0.0311
 7254W        W23328  12.305   0.855  16.528 -0.2143 -0.0041 -0.1773
 7255W        W23329  15.743   0.124   0.735  0.1302  0.3757  0.0472
 7256W        W23330   3.436  10.825   6.348 -0.0965  0.1363 -0.1696
 7257W        W23331   3.221   4.794  11.508  0.1284  0.3259 -0.3503
 7258W        W23332  11.033  12.103   1.572  0.0893  0.2442 -0.1755
 7259W        W23333   4.807  10.576  16.513 -0.2968  0.2430 -0.1404
 7260W        W23334   7.038  16.751  14.553  0.0249 -0.3165  0.3436
 7261W        W23335   4.240  13.981   3.172 -0.1590  0.0393 -0.2322
 7262W        W23336   2.512   4.240   0.229  0.0915  0.2015 -0.0203
 7263W        W23337   9.219   9.474   2.147 -0.3564 -0.0502  0.4284
 7264W        W23338   6.335  11.863   2.694 -0.0090 -0.1781  0.0360
 7265W        W23339  17.103  15.451   0.403  0.1787  0.2813  0.0805
 7266W        W23340  10.003  16.245  12.163  0.0881 -0.0018  0.1825
 7267W        W23341   1.880   2.722  15.478 -0.1258 -0.0423 -0.0059
 7268W        W23342  10.040  10.454   1.586  0.0668 -0.4436 -0.1477
 7269W        W23343   7.173   5.585  13.918 -0.1605  0.1907 -0.0199
 7270W        W23344   9.822   0.498  15.284 -0.0715 -0.1102  0.0783
 7271W        W23345   8.816   5.648  12.505  0.1818  0.0151  0.2251
 7272W        W23346  13.710   8.230  14.032 -0.3576 -0.2180  0.0389
 7273W        W23347   9.909   6.918  16.897  0.0166 -0.0676  0.1384
 7274W        W23348   3.928   2.822  13.539 -0.3322 -0.0410 -0.2100
 7275W        W23349   2.225  10.085  15.496 -0.0778  0.3207 -0.1878
 7276W        W23350  16.316   4.673   5.938  0.0676 -0.0416  0.0634
 7277W        W23351   2.642  13.896   0.998 -0.0252  0.1327 -0.4046
 7278W        W23352  16.570  12.124   3.852  0.3695  0.1871  0.0222
 7279W        W23353   8.574   4.272  15.651  0.0098 -0.1614  0.1149
 7280W        W23354   6.877   9.036  13.636 -0.1300  0.0656  0.2367
 7281W        W23355  16.962   9.550   2.683  0.0284 -0.1051 -0.0533
 7282W        W23356   0.438   2.122   3.585 -0.0045 -0.0843 -0.0974
 7283W        W23357  17.375  14.179  12.870 -0.0973 -0.0063 -0.1761
 7284W        W23358  13.637   8.205   2.361  0.0005  0.1663 -0.1046
 7285W        W23359   4.953  16.434  11.722 -0.1673  0.0937 -0.2244
 7286W        W23360   7.704  10.325   3.842  0.3437 -0.1536  0.2219
 7287W        W23361   2.175   0.332   2.609  0.4436  0.2813  0.1193
 7288W        W23362   5.425   1.297  13.010 -0.1458  0.0740  0.0825
 7289W        W23363  12.650   9.443   5.338  0.1206 -0.0675 -0.2946
 7290W        W23364  13.336   1.386   3.560 -0.0093 -0.0656  0.0169
 7291W        W23365  12.101   9.122  16.911  0.2831  0.0768 -0.0517
 7292W        W23366   7.297   4.975   1.727  0.0617 -0.1146  0.1031
 7293W        W23367   1.109   8.694   2.472 -0.2554 -0.1455 -0.0735
 7294W        W23368  17.598   5.334  13.817  0.2326  0.2412 -0.3111
 7295W        W23369  14.675   5.739   1.321 -0.4072  0.0302  0.1116
 7296W        W23370   7.621   6.319   2.477 -0.2246 -0.0572  0.1114
 7297W        W23371   0.597  16.574   0.212 -0.0282  0.2069 -0.1104
 7298W        W23372   2.671   4.969  13.456  0.2456  0.3780 -0.4896
 7299W        W23373   9.515   6.639  14.412  0.1086  0.2955  0.2075
 7300W        W23374   4.448   6.605   0.043 -0.0885  0.0607 -0.1666
 7301W        W23375  10.997  15.063  15.272 -0.0052 -0.2548 -0.0514
 7302W        W23376   5.745   9.439   4.413 -0.0474 -0.2344  0.0453
 7303W        W23377   5.262  16.878  14.337  0.0832  0.0925 -0.1755
 7304W        W23378   7.490  17.145  14.583  0.0813 -0.3498  0.0454
 7305W        W23379  17.180   4.386  15.807  0.2060  0.0347  0.0779
 7306W        W23380  14.193   1.919  15.187 -0.4156 -0.1587  0.0394
 7307W        W23381  12.706  16.086   0.284 -0.2229 -0.0063  0.1187
 7308W        W23382  13.877  16.919  14.620 -0.2284 -0.1944  0.5101
 7309W        W23383   4.693   5.152  12.070  0.4910  0.1890  0.0759
 7310W        W23384   8.421   0.362   5.276  0.2918 -0.0474  0.3747
 7311W        W23385  17.384   6.206  15.925 -0.2026 -0.2177  0.0056
 7312W        W23386   4.279  17.613   4.516 -0.1146  0.0560  0.0825
 7313W        W23387   4.312   1.242  15.895 -0.1966  0.2538 -0.1472
 7314W        W23388   4.867   9.555  13.817 -0.1221  0.0894 -0.1860
 7315W        W23389   3.564   5.534   1.519  0.0285 -0.1479  0.2830
 7316W        W23390  12.167  14.878  17.026 -0.2807  0.0468  0.2405
 7317W        W23391  12.127  16.302  14.369 -0.2124 -0.1690  0.0998
 7318W        W23392   9.384   3.670   5.471  0.0708 -0.1276  0.2231
 7319W        W23393  17.638  16.956   4.581 -0.2763  0.2543 -0.3342
 7320W        W23394   3.048   5.178  14.332  0.0598 -0.1086  0.1157
 7321W        W23395   9.710  10.573  16.165 -0.1566 -0.4668  0.0828
 7322W        W23396   8.802  12.041   1.872  0.1338 -0.1505  0.0720
 7323W        W23397   4.887  16.833  12.485  0.0327 -0.0020 -0.0581
 7324W        W23398  14.743  15.352  15.413  0.0963 -0.0462  0.0108
 7325W        W23399   9.773  11.734  17.023  0.1258 -0.1747 -0.0379
 7326W        W23400  14.551   2.558  14.029 -0.0001 -0.1220  0.0426
 7327W        W23401   2.453  15.013   2.182  0.1342  0.4511  0.1079
 7328W        W23402   9.738  16.619  11.869 -0.0240 -0.2852  0.1613
 7329W        W23403  11.136  13.274   5.076  0.2447 -0.1560 -0.0876
 7330W        W23404   6.958   9.981   1.162 -0.1128 -0.1433  0.1229
 7331W        W23405  12.823  13.161   3.704 -0.1937  0.1407  0.0786
 7332W        W23406  13.093   8.166  16.990 -0.1706 -0.1376  0.0534
 7333W        W23407   7.833  13.515  13.623  0.2577 -0.1700  0.2330
 7334W        W23408   1.764   1.111   3.666 -0.2008  0.2141 -0.0805
 7335W        W23409   9.781   4.113   3.461 -0.0487  0.0138 -0.0557
 7336W        W23410   9.165  16.859   4.681 -0.0260  0.2386  0.2421
 7337W        W23411  12.808  11.350  13.300  0.1663 -0.0463 -0.0618
 7338W        W23412   6.821  16.400  12.716 -0.1963 -0.1057 -0.0131
 7339W        W23413  10.806   8.784  14.419 -0.1086  0.0310  0.1989
 7340W        W23414  11.764  15.573  16.102 -0.0113  0.0623 -0.1725
 7341W        W23415  11.615  15.271  13.280  0.2080 -0.1767  0.1076
 7342W        W23416  16.589  12.616  14.095  0.1491  0.1840 -0.0826
 7343W        W23417  16.946  16.054  13.675 -0.1362 -0.3372  0.2076
 7344W        W23418  11.533  10.734   2.552 -0.0073  0.1165 -0.0727
 7345W        W23419   9.790   2.781  15.626 -0.0747 -0.0206 -0.0912
 7346W        W23420  14.650   9.227  17.044  0.1591 -0.0520 -0.1786
 7347W        W23421  17.277   8.626   1.863  0.1908 -0.0032 -0.1362
 7348W        W23422   4.368  13.840   5.372 -0.0912 -0.0124  0.1230
 7349W        W23423   5.082   6.124   0.226  0.1735  0.0648 -0.0564
 7350W        W23424  11.223  17.564   4.614  0.0220  0.1417  0.5518
 7351W        W23425   3.223  14.803  13.391 -0.1723 -0.0644 -0.1976
 7352W        W23426  10.385  17.300   5.761  0.0791 -0.0271 -0.0398
 7353W        W23427   9.036  12.267   0.997 -0.2858  0.0370  0.0073
 7354W        W23428   3.479  15.493  12.787 -0.1843 -0.0673 -0.3551
 7355W        W23429   2.485   2.150  15.617  0.0153  0.0873 -0.0702
 7356W        W23430  15.434   9.188   1.508  0.0674 -0.3364  0.0068
 7357W        W23431   1.520   6.329  15.521 -0.2424  0.1620  0.0718
 7358W        W23432   9.784   3.017   3.964  0.3048  0.3268  0.1725
 7359W        W23433  13.580   9.158   0.890  0.0887 -0.0675 -0.0388
 7360W        W23434  13.447   9.983   0.948  0.1857  0.0377 -0.0753
 7361W        W23435   9.663  16.925   2.153  0.1387  0.0956  0.1336
 7362W        W23436   9.392   6.353  15.439 -0.2309 -0.0428  0.0072
 7363W        W23437  14.103  17.349   4.560  0.2132 -0.1945 -0.2245
 7364W        W23438   0.243  15.654   0.360  0.0784  0.0912  0.0960
 7365W        W23439  10.324  13.129  13.672  0.2061 -0.2543  0.0471
 7366W        W23440   2.538   7.631  14.841 -0.0812  0.0063  0.1553
 7367W        W23441  16.166  13.970  16.474 -0.1149  0.0287 -0.0798
 7368W        W23442   1.103   4.120  16.845  0.1070  0.1989 -0.0684
 7369W        W23443   3.842  15.312   5.762  0.1264  0.2386  0.1877
 7370W        W23444  12.226  12.739  13.905  0.1268 -0.2357 -0.0443
 7371W        W23445   2.415   9.138  13.048 -0.0679  0.2381  0.0783
 7372W        W23446  16.127  10.485  13.425  0.1096  0.0967  0.0451
 7373W        W23447  13.825   0.143  15.196 -0.0949 -0.1786  0.1876
 7374W        W23448   5.546  10.978  16.039 -0.0041  0.0487 -0.1176
 7375W        W23449   4.333  11.854   4.961  0.2643  0.0540  0.0704
 7376W        W23450  15.676   4.207   5.716 -0.0385 -0.0411  0.5693
 7377W        W23451   5.318   8.743   5.458 -0.2523  0.1183  0.1865
 7378W        W23452   3.618   2.032   4.474  0.0275 -0.2328 -0.0095
 7379W        W23453   4.615   4.248  12.219  0.2470  0.0328  0.0914
 7380W        W23454  14.011  11.980  15.901  0.4704 -0.0063 -0.1989
 7381W        W23455  10.287  10.622   1.207 -0.0062  0.0292 -0.1996
 7382W        W23456  16.801   2.649  14.696 -0.2368  0.3412  0.1461
 7383W        W23457  11.889  15.620  12.532  0.0793  0.1777 -0.4966
 7384W        W23458  17.086   7.591  14.297 -0.1051  0.1801  0.0749
 7385W        W23459   0.951   2.451   4.373  0.0804 -0.1451 -0.0010
 7386W        W23460   7.820   1.803  12.025 -0.3293  0.1133 -0.0095
 7387W        W23461   5.468   7.734  12.330 -0.1725  0.1649  0.0217
 7388W        W23462  11.345   7.887   5.181  0.1745 -0.0815  0.1318
 7389W        W23463   3.852  16.948   5.759 -0.0091 -0.0353 -0.0045
 7390W        W23464   7.561   1.469  12.868  0.0514  0.0295  0.1189
 7391W        W23465   5.239   1.738   0.836 -0.1176 -0.1499  0.1240
 7392W        W23466  11.016  14.357   3.443  0.2326 -0.0035  0.1807
 7393W        W23467  14.263   7.430   5.636  0.1104  0.0522 -0.1230
 7394W        W23468  15.585   5.852  15.236  0.4651 -0.3214 -0.1448
 7395W        W23469  15.563  12.736   0.796  0.2297  0.2941  0.1773
 7396W        W23470   6.569   2.200   2.513 -0.0691 -0.1187  0.1462
 7397W        W23471   0.652   4.863   1.928  0.1050  0.1615  0.1406
 7398W        W23472  16.169   4.907  12.247 -0.1689  0.0457 -0.1212
 7399W        W23473  13.586   3.187  13.459 -0.1348 -0.1575  0.3348
 7400W        W23474   2.997   1.512   1.216  0.0214  0.0939  0.0025
 7401W        W23475   9.382   1.220   3.536  0.0266  0.0506  0.0994
 7402W        W23476   8.337   4.217  16.074  0.0382  0.2515 -0.2035
 7403W        W23477   8.416   7.882   2.581  0.0283 -0.1008 -0.0116
 7404W        W23478   0.060  11.425   5.638 -0.2711 -0.3138  0.1935
 7405W        W23479   0.249  16.706  15.912 -0.0302 -0.2317 -0.1028
 7406W        W23480   4.959   6.318   1.175  0.1826  0.2195 -0.2865
 7407W        W23481   2.091   9.591  15.764  0.2314  0.0536 -0.0041
 7408W        W23482  14.338   6.848  15.378 -0.2524 -0.3217 -0.1167
 7409W        W23483  17.569   5.243   1.631  0.0677  0.3000  0.2101
 7410W        W23484   2.680   8.083   1.343 -0.0726  0.1424 -0.1465
 7411W        W23485   8.057   8.102   5.178 -0.1363 -0.0089 -0.0079
 7412W        W23486   8.801  15.057  11.846 -0.2565  0.0622 -0.4265
 7413W        W23487   1.357   2.980   2.160 -0.2063 -0.0606 -0.2238
 7414W        W23488  12.360   0.644  15.477  0.0844  0.2071 -0.1044
 7415W        W23489  10.053   7.035   1.391 -0.3608  0.0290  0.1959
 7416W        W23490  14.591   1.590   0.954 -0.0518  0.2900  0.0796
 7417W        W23491   5.101  12.796  14.198  0.0071  0.3843 -0.2334
 7418W        W23492   0.551  12.912   0.735  0.0293  0.0662 -0.0031
 7419W        W23493  10.753   4.775   1.416 -0.3629 -0.0612 -0.1378
 7420W        W23494  16.531  17.266   1.333 -0.0889 -0.0617 -0.0395
 7421W        W23495   2.596  10.222   2.987 -0.0778 -0.2350 -0.0724
 7422W        W23496  14.562   8.170   4.974  0.2130  0.2022 -0.3397
 7423W        W23497  11.864  15.422   5.586 -0.1011  0.0594  0.0888
 7424W        W23498  13.215   8.797   1.741  0.2117  0.0034  0.0789
 7425W        W23499  12.332   6.890   2.384  0.1432 -0.1606  0.1399
 7426W        W23500   1.139   2.679   5.411 -0.2457  0.0158  0.1191
 7427W        W23501   6.109   8.182   1.342  0.1660  0.0820  0.0301
 7428W        W23502  16.572   2.217   2.870  0.0749 -0.1409  0.1395
 7429W        W23503  15.520   7.088   5.380 -0.0116 -0.1370 -0.2274
 7430W        W23504  11.068  13.502  16.620 -0.0809  0.0738  0.0520
 7431W        W23505   1.837  13.370   2.402 -0.0885 -0.0775  0.0668
 7432W        W23506   8.864  15.563  15.414 -0.2158  0.1266  0.0550
 7433W        W23507  14.213  14.169  15.693  0.2112  0.0552  0.0339
 7434W        W23508   4.067  10.760  14.596  0.0555 -0.2136 -0.0505
 7435W        W23509   2.795  11.436   3.347 -0.0297 -0.1353  0.0908
 7436W        W23510  14.984   7.926  13.345 -0.0172 -0.3058 -0.0287
 7437W        W23511   9.238   7.429   5.524 -0.1496  0.0175  0.2092
 7438W        W23512   7.919   8.479  12.862  0.0278  0.0312  0.0972
 7439W        W23513   3.745  11.705  15.718  0.1174  0.0112  0.1341
 7440W        W23514   3.188   0.722   0.099  0.0945  0.3054  0.3954
 7441W        W23515  16.847   8.003  11.669 -0.3181  0.0729  0.0353
 7442W        W23516  17.451  14.383   1.262 -0.3322  0.0899 -0.0010
 7443W        W23517   5.807   2.136  15.655  0.0319  0.2815 -0.0129
 7444W        W23518   7.012   6.505  11.549 -0.1350 -0.0949  0.0153
 7445W        W23519  12.959   4.519   0.169  0.0530 -0.0078 -0.1232
 7446W        W23520   5.638   1.634  15.880 -0.3371 -0.2702 -0.0743
 7447W        W23521  13.801  14.931  17.113  0.2270 -0.1577  0.0199
 7448W        W23522   7.515   4.590   5.723  0.0428 -0.0025 -0.0024
 7449W        W23523  17.015  11.363  12.890  0.0876  0.1559 -0.0591
 7450W        W23524   2.699   9.847   2.689  0.0279  0.0664  0.3060
 7451W        W23525  17.033  10.019   3.913  0.1913  0.0168  0.0821
 7452W        W23526  13.350   2.538   5.498 -0.1323 -0.2545 -0.0777
 7453W        W23527  13.043   3.003   0.450  0.2555  0.2370 -0.2385
 7454W        W23528  17.718  14.881   0.823  0.0352 -0.0169  0.2505
 7455W        W23529   4.941   1.225  16.364 -0.1937 -0.3099 -0.0370
 7456W        W23530   4.477   3.044  13.031  0.0853 -0.0359  0.0231
 7457W        W23531   6.788   5.670  15.911  0.1898  0.1480  0.0283
 7458W        W23532  11.350  15.551  13.039  0.0706 -0.0635  0.3241
 7459W        W23533  10.286   0.298  16.308  0.2402  0.0557 -0.2840
 7460W        W23534   0.363   5.495   5.425 -0.2654 -0.0660  0.1634
 7461W        W23535   2.489   3.484  12.497 -0.1377  0.2619 -0.1332
 7462W        W23536  16.750   9.924   2.236  0.0328 -0.0667  0.3023
 7463W        W23537   1.825   9.792  15.401  0.0669 -0.1210  0.4301
 7464W        W23538  12.267   4.416   4.360 -0.1082  0.1349 -0.0344
 7465W        W23539  11.467  10.597   4.713  0.1480  0.2033 -0.0165
 7466W        W23540   9.218   6.031   6.299  0.2452 -0.2108 -0.0298
 7467W        W23541   2.457   8.973   4.204 -0.0975  0.1226 -0.0293
 7468W        W23542   3.799   0.096   3.897 -0.2589  0.1631 -0.0605
 7469W        W23543   3.607  17.175  14.483 -0.1925  0.1165  0.3481
 7470W        W23544  12.547  10.768   4.701  0.1250  0.0569  0.0228
 7471W        W23545   2.438   0.011   4.076 -0.0425 -0.2005  0.2383
 7472W        W23546   2.417  12.948   5.695  0.0412 -0.3216  0.0090
 7473W        W23547  14.899   4.273   3.382 -0.0628  0.1242  0.0387
 7474W        W23548   8.505  13.580   4.116  0.0175  0.0665  0.0060
 7475W        W23549   3.598  12.687   6.417  0.1277 -0.1586 -0.0221
 7476W        W23550   6.981  14.313  16.054  0.1733 -0.2726  0.0161
 7477W        W23551   9.427   3.429   4.953 -0.3731 -0.2356 -0.0733
 7478W        W23552   2.385  11.833  16.248  0.0270 -0.0864 -0.0865
 7479W        W23553   5.388   0.646  15.267 -0.0529  0.0702 -0.0668
 7480W        W23554   7.478  15.762  15.144  0.1452  0.0590 -0.1046
 7481W        W23555   1.029  14.817  13.280 -0.2335  0.0376  0.1722
 7482W        W23556   9.553   9.397  15.856 -0.1704 -0.1676 -0.2167
 7483W        W23557  10.975  13.337   3.029 -0.2713  0.0516  0.1680
 7484W        W23558  13.817  14.438  12.208  0.3884  0.0952  0.5268
 7485W        W23559  15.324  13.008  14.248  0.0485 -0.1650 -0.1377
 7486W        W23560   5.710   4.650   6.178 -0.1219  0.4002  0.1583
 7487W        W23561  15.576   8.008  16.603 -0.0473 -0.2303 -0.7167
 7488W        W23562   7.705   4.788  15.902  0.1486 -0.2984  0.0990
 7489W        W23563   6.568   6.176   5.737 -0.3944 -0.1126  0.1594
 7490W        W23564   5.918   7.843   2.395  0.3066 -0.0471  0.1817
 7491W        W23565   7.355  11.302   2.161 -0.2147 -0.0409 -0.2395
 7492W        W23566   6.942  13.869   1.122  0.2809  0.0216 -0.0321
 7493W        W23567   8.829  11.355   0.860  0.1324  0.1066  0.0803
 7494W        W23568  14.909   5.910   4.767  0.0515  0.0906  0.1434
 7495W        W23569   8.796  10.643  16.278  0.1444 -0.2289 -0.3558
 7496W        W23570   2.271   8.202  12.319  0.1411 -0.2530  0.4219
 7497W        W23571   3.014  15.598  15.045 -0.0658 -0.0290  0.0507
 7498W        W23572  12.686   1.084  12.708 -0.2595  0.2638  0.1619
 7499W        W23573  15.058   7.804  15.271 -0.2222  0.0564 -0.0537
 7500W        W23574  12.890   3.482   1.923 -0.1761  0.1698 -0.2216
 7501W        W23575   2.836   8.339  11.567  0.2726  0.1127  0.2580
 7502W        W23576  17.229   2.299  15.829 -0.0113  0.0770  0.1232
 7503W        W23577   6.754   2.836   5.609  0.1662 -0.1216  0.0442
 7504W        W23578   1.102  16.404   1.469  0.2023 -0.4159  0.1502
 7505W        W23579   1.321   3.279   3.562  0.1377  0.1126  0.2764
 7506W        W23580   7.020  11.081  16.720  0.2533 -0.2148 -0.2903
 7507W        W23581   7.971   4.297   4.253  0.0669 -0.0231  0.0585
 7508W        W23582  16.967  12.022  16.307  0.1039 -0.0023  0.0163
 7509W        W23583   2.496   9.394   5.978  0.2604  0.2534 -0.1039
 7510W        W23584  11.914   1.495  12.257 -0.1342 -0.0576  0.0415
 7511W        W23585   4.808   9.531   2.130 -0.0565  0.0586 -0.1880
 7512W        W23586  10.712   5.261  16.851 -0.1695 -0.5323  0.3123
 7513W        W23587  16.334  14.392   5.081 -0.1069  0.0466 -0.0761
 7514W        W23588  10.758  10.972   2.164  0.2373  0.1620  0.3794
 7515W        W23589  10.767   2.579  12.387  0.0219  0.0900 -0.1871
 7516W        W23590   2.513   9.846   6.705  0.0893  0.1118  0.6354
 7517W        W23591  12.783   9.810  13.028  0.1230  0.1546 -0.3279
 7518W        W23592   1.598   7.304  16.388  0.0701 -0.1670  0.0197
 7519W        W23593  15.779   2.187   5.478  0.2483 -0.2235  0.2098
 7520W        W23594  10.785  16.585  11.974 -0.0346 -0.0847  0.1574
 7521W        W23595   2.791   7.079  15.377 -0.1977  0.0333  0.2432
 7522W        W23596   4.216  12.035   1.332  0.1779 -0.1238  0.1649
 7523W        W23597   7.564  17.093  11.720  0.1447 -0.1869  0.0302
 7524W        W23598  15.190  14.803  12.410  0.1342  0.2006 -0.0835
 7525W        W23599  14.470  16.980  11.719  0.1186 -0.2524  0.0688
 7526W        W23600   6.108   0.156   0.610  0.4424  0.0346 -0.1136
 7527W        W23601   8.715  13.263  15.078  0.2694  0.0326 -0.0537
 7528W        W23602   3.935   5.862  12.975 -0.1137 -0.1005  0.3097
 7529W        W23603   7.675   1.533   0.362  0.0219 -0.3499 -0.0215
 7530W        W23604   7.294  15.641  12.943 -0.2687 -0.0847 -0.0189
 7531W        W23605   0.630  11.048   4.334 -0.3815 -0.1312 -0.1002
 7532W        W23606  15.844  14.904  13.049  0.1601  0.1487 -0.1135
 7533W        W23607  15.578   4.472   5.284 -0.0663 -0.3352 -0.2539
 7534W        W23608  15.280   8.795  15.398  0.0045  0.0000  0.2328
 7535W        W23609   1.189  11.613  15.913  0.2938 -0.4738  0.0949
 7536W        W23610  12.767  14.485   2.038 -0.1430 -0.1542 -0.1349
 7537W        W23611   2.886   4.199   1.836 -0.0345 -0.1317  0.0697
 7538W        W23612   0.079   2.541   3.506  0.3489 -0.1183 -0.2917
 7539W        W23613   4.430   7.459  15.922 -0.1788  0.1199 -0.0532
 7540W        W23614   3.779  11.899   6.775  0.2896 -0.1836  0.1186
 7541W        W23615  16.585   7.041  12.523 -0.1706 -0.0018 -0.2483
 7542W        W23616  15.845  16.159  13.889 -0.0249  0.2600 -0.0036
 7543W        W23617   1.088   9.371  16.025  0.0737  0.1709  0.2085
 7544W        W23618  14.093  13.088   1.463  0.2520 -0.2126  0.2649
 7545W        W23619  17.362   6.606   5.953 -0.0855  0.0066  0.2591
 7546W        W23620  15.435   3.300   2.048  0.1451 -0.1468 -0.1416
 7547W        W23621   2.410   0.296  16.310 -0.0915  0.0942  0.2049
 7548W        W23622   3.125  12.988   2.217 -0.0489  0.0439 -0.0981
 7549W        W23623  11.654  14.767  13.201  0.1444  0.1361  0.0922
 7550W        W23624   3.690   6.072   4.329 -0.2522  0.3188 -0.1923
 7551W        W23625   1.179  17.678  13.909 -0.0006 -0.1127 -0.4970
 7552W        W23626   9.356  17.313   0.526  0.0503 -0.0749 -0.4994
 7553W        W23627   7.979   1.563   2.728  0.0474 -0.1443  0.1508
 7554W        W23628   6.409  16.784  14.614 -0.1837 -0.0021 -0.1247
 7555W        W23629  13.412   0.295  16.185  0.1271  0.0535  0.1707
 7556W        W23630   7.573  14.402  15.724 -0.2368 -0.1693  0.0432
 7557W        W23631  12.768   7.035   1.676 -0.0554  0.0867 -0.1203
 7558W        W23632   6.592   4.832   5.316 -0.1421 -0.1631 -0.1334
 7559W        W23633  16.191   6.721  12.702 -0.0008 -0.0115 -0.3635
 7560W        W23634   0.694   5.877  13.804 -0.0412  0.2024 -0.2303
 7561W        W23635   4.196   8.983  15.616  0.1180 -0.0707  0.1185
 7562W        W23636   8.175   2.549  14.096 -0.0843 -0.0533  0.0746
 7563W        W23637  13.831   5.702   5.662 -0.1230  0.0127 -0.1410
 7564W        W23638   4.857   9.010   1.045 -0.0081 -0.0240  0.0935
 7565W        W23639   5.021   0.034   5.194  0.0654  0.0664 -0.1395
 7566W        W23640  13.453   2.164   2.949  0.1449  0.0587  0.2490
 7567W        W23641   5.951   9.762  16.686  0.0473  0.1596 -0.3090
 7568W        W23642   6.382  16.935   5.177  0.0184  0.4005 -0.3185
 7569W        W23643  11.488  14.236  12.471 -0.4776  0.0012 -0.3257
 7570W        W23644   9.142   5.881   3.213 -0.1419  0.0833  0.1521
 7571W        W23645  10.489   5.879   0.218 -0.1284  0.1969 -0.1923
 7572W        W23646   8.503  13.788   2.150  0.0791 -0.2663 -0.0865
 7573W        W23647   7.337   2.358  11.932 -0.1343  0.2984 -0.0428
 7574W        W23648  10.077   4.765  14.168  0.1781  0.0541 -0.2483
 7575W        W23649   8.000   0.076  12.391 -0.0130 -0.0405 -0.0214
 7576W        W23650   0.817   0.416   2.468 -0.0489  0.0007  0.1750
 7577W        W23651  13.972  13.850   4.243 -0.2062  0.0240  0.2099
 7578W        W23652  12.684  17.568   1.977  0.2766  0.0017 -0.0024
 7579W        W23653  16.905   4.757   2.411  0.1088 -0.1260 -0.2469
 7580W        W23654   4.047  10.686  14.003  0.0197  0.2507 -0.1453
 7581W        W23655  13.993  12.177  11.965  0.1531 -0.1901 -0.1179
 7582W        W23656   7.555   9.739  12.146 -0.1278 -0.1574  0.0105
 7583W        W23657   4.542  12.567   5.328 -0.0103  0.4110 -0.2061
 7584W        W23658  14.268  13.421   4.479 -0.0254 -0.0468  0.0767
 7585W        W23659   8.047  17.376   3.577 -0.0877  0.1102  0.0012
 7586W        W23660  11.632   4.419  13.746 -0.0752  0.1719  0.0735
 7587W        W23661   3.017  12.446  14.460 -0.1096 -0.4451 -0.2136
 7588W        W23662   7.775   0.027   3.778 -0.5177  0.0922  0.1476
 7589W        W23663  14.197   9.732   5.203  0.0513  0.3209  0.0465
 7590W        W23664  12.067  12.533  13.489  0.2335  0.2365 -0.1730
 7591W        W23665  16.196  10.955  13.350  0.0510 -0.0525 -0.0308
 7592W        W23666   4.848  12.876  15.725  0.0572  0.4714 -0.1028
 7593W        W23667   3.619   5.099  12.511  0.1616 -0.1539 -0.1670
 7594W        W23668  11.558  10.362   5.234 -0.3108 -0.5631 -0.3597
 7595W        W23669   5.480   1.654  12.382  0.0120 -0.0517 -0.1719
 7596W        W23670   8.783   5.609   0.406 -0.0766  0.3868 -0.2503
 7597W        W23671  17.446   4.477  13.544 -0.1846  0.0053  0.0369
 7598W        W23672   6.469   4.133  16.627 -0.0426  0.1574  0.2123
 7599W        W23673   0.002   4.391  16.598  0.0663  0.1248 -0.4144
 7600W        W23674  14.430   2.421   0.406  0.0539 -0.0032  0.1620
 7601W        W23675  12.177  11.197  14.281  0.0403 -0.1637 -0.4250
 7602W        W23676   7.267  12.708   2.599 -0.1354 -0.0933  0.1556
 7603W        W23677  10.909   2.214  13.189  0.0642  0.2700  0.0711
 7604W        W23678  16.189   1.355   4.268  0.0695  0.0406  0.0824
 7605W        W23679   5.403  12.420   5.627 -0.2191 -0.1763 -0.0460
 7606W        W23680  15.118   4.962   0.584  0.0753 -0.3684 -0.0869
 7607W        W23681   3.623  10.627  14.938 -0.0803  0.2033 -0.0962
 7608W        W23682   6.820  14.250   4.975 -0.3202 -0.2544 -0.0752
 7609W        W23683   0.955  15.361   4.643 -0.0673 -0.1805 -0.1951
 7610W        W23684   2.143  15.865  14.485 -0.0501  0.1208 -0.2073
 7611W        W23685  14.286   8.189  14.809 -0.2924  0.1626  0.1019
 7612W        W23686  12.791   8.649   4.885  0.1157  0.2088  0.1306
 7613W        W23687   6.966   4.847  13.767 -0.0989  0.3333  0.1632
 7614W        W23688   9.447   1.670  12.491  0.0206 -0.2251  0.1890
 7615W        W23689   8.219   4.982   1.471 -0.1855  0.1323  0.1564
 7616W        W23690  13.430   6.644  15.797  0.0789 -0.2415  0.0304
 7617W        W23691   0.496   4.599  15.107 -0.0956  0.1253  0.2922
 7618W        W23692   0.485  15.580   3.721 -0.0350 -0.0776 -0.1841
 7619W        W23693   6.991   8.522   5.768 -0.0162 -0.0333  0.0108
 7620W        W23694   7.439  13.431   3.455  0.2657 -0.0994 -0.0750
 7621W        W23695   4.427   0.940   2.997 -0.1511 -0.0569  0.1650
 7622W        W23696   0.415  10.425   1.515  0.4408  0.0625 -0.1787
 7623W        W23697  10.859   6.523   4.692  0.0021  0.0401  0.0363
 7624W        W23698   4.509  10.561  12.571 -0.1157 -0.0399 -0.0918
 7625W        W23699  13.768  11.037   4.542  0.1028  0.1248  0.2316
 7626W        W23700   5.785   0.185  15.972 -0.3127  0.0972  0.3190
 7627W        W23701   4.390  15.571  15.449 -0.0911 -0.0627 -0.0991
 7628W        W23702  10.942   4.078   5.399 -0.1994 -0.0881  0.1592
 7629W        W23703   3.268   1.350   5.716 -0.0242 -0.2179 -0.0855
 7630W        W23704  13.074   7.872  13.735 -0.1362  0.2654 -0.1095
 7631W        W23705   9.202  14.550   3.636  0.2596 -0.0124  0.1016
 7632W        W23706  10.320  16.877  17.147 -0.0480 -0.0412  0.3321
 7633W        W23707   1.836  11.290  13.659 -0.1832 -0.0967 -0.1252
 7634W        W23708  14.410  13.801  17.104  0.0767 -0.3301 -0.2149
 7635W        W23709  14.966  11.424   4.566  0.1955  0.0618 -0.0044
 7636W        W23710  15.102   2.309   2.575 -0.2417  0.1251 -0.1481
 7637W        W23711  16.485   0.813   0.056 -0.1937  0.1998  0.0853
 7638W        W23712  11.427   5.673  13.935 -0.1925 -0.1822  0.1458
 7639W        W23713   5.879  13.941   1.486  0.0942  0.1651 -0.0594
 7640W        W23714   0.215   5.616  12.019  0.2964  0.1681 -0.0765
 7641W        W23715  15.045   5.164  15.788 -0.1605  0.1329  0.0263
 7642W        W23716   5.006   7.680   1.298  0.0568 -0.2589  0.0144
 7643W        W23717  16.753   3.784   1.666 -0.2014 -0.0051 -0.0589
 7644W        W23718   2.972   6.965   1.120 -0.2817  0.0236  0.2531
 7645W        W23719  11.310   7.205  15.010  0.1067 -0.4042 -0.1785
 7646W        W23720   6.402  15.458   1.463  0.0134  0.3317  0.2136
 7647W        W23721   5.407  14.583   4.427  0.0542  0.1140  0.2987
 7648W        W23722  16.293   0.541   1.470 -0.0630  0.1085  0.1494
 7649W        W23723   5.023   3.847   5.181 -0.1062 -0.0817  0.1209
 7650W        W23724   9.116   6.962  14.520  0.2651 -0.3309 -0.0906
 7651W        W23725  12.088  13.167  14.125 -0.0890  0.0381 -0.0876
 7652W        W23726   1.123   7.821  15.406  0.1458  0.1267 -0.2079
 7653W        W23727   8.578   1.628   0.919  0.4279 -0.0779 -0.2527
 7654W        W23728   8.956  10.364  15.902 -0.0630 -0.0393 -0.0148
 7655W        W23729  12.900  17.359   0.626 -0.1946 -0.0682  0.0533
 7656W        W23730   6.990  16.076  12.284  0.1587 -0.1616  0.0222
 7657W        W23731  16.277  13.315   2.132  0.1349 -0.1832  0.0381
 7658W        W23732   6.808   1.836   4.985 -0.2125  0.1079 -0.0251
 7659W        W23733   9.653   4.334  11.504 -0.1256 -0.2312 -0.1412
 7660W        W23734  13.446   6.245   3.293  0.6244 -0.2661  0.1380
 7661W        W23735   9.721  10.602   0.712 -0.0121 -0.2341  0.1418
 7662W        W23736  11.654   7.641   3.389 -0.1164 -0.0301 -0.0226
 7663W        W23737  13.082   8.487  12.275 -0.1387 -0.0470  0.2031
 7664W        W23738   4.141  14.968  13.160 -0.0953 -0.0079 -0.0430
 7665W        W23739   1.438   9.562  12.652  0.2347 -0.1180 -0.1815
 7666W        W23740   6.994  15.621  16.513  0.0031  0.0884 -0.0830
 7667W        W23741  16.954   1.823  13.451  0.0623  0.0318 -0.1245
 7668W        W23742   6.470   2.625  16.431 -0.1531  0.1039  0.1994
 7669W        W23743   3.664   8.595  13.918  0.0448 -0.1716  0.3822
 7670W        W23744   6.412   5.861  16.646  0.4520 -0.0138 -0.0701
 7671W        W23745   8.614   7.656  15.713  0.0488  0.1434  0.2473
 7672W        W23746  11.954  10.567   0.815  0.1695  0.0073  0.0863
 7673W        W23747   9.721   4.566   5.780  0.0682  0.1344 -0.2299
 7674W        W23748   2.266   5.251  15.991  0.2220  0.0251  0.1485
 7675W        W23749   6.601   1.629   2.247  0.2786 -0.0194  0.2456
 7676W        W23750  13.981  11.900  12.348  0.1229 -0.0918 -0.0268
 7677W        W23751  11.639   7.193   3.625 -0.1867  0.0709  0.2136
 7678W        W23752  17.561   4.633  14.117  0.2082  0.0445 -0.0474
 7679W        W23753   8.448  15.752  12.067  0.3158 -0.0766  0.2882
 7680W        W23754  13.208   4.103  14.740  0.0215 -0.1039 -0.0139
 7681W        W23755  13.544   3.696  11.645 -0.2628 -0.2669  0.0012
 7682W        W23756   2.531  13.018   0.728 -0.0396  0.0846  0.0002
 7683W        W23757   9.744   8.890  13.046  0.0372  0.0764  0.0303
 7684W        W23758   3.867  13.332  14.913  0.1677 -0.0551 -0.2341
 7685W        W23759  12.457   1.793   4.019 -0.3106  0.1744 -0.3053
 7686W        W23760   7.444   2.925  16.026  0.0193  0.1392  0.0980
 7687W        W23761  11.420  15.004   0.078 -0.2942 -0.0072 -0.0900
 7688W        W23762  15.999  16.120   1.454 -0.4599 -0.1243 -0.3059
 7689W        W23763   4.328   9.016   3.417 -0.0962  0.3448  0.1863
 7690W        W23764   8.279  15.458   1.083 -0.0665  0.0298 -0.0135
 7691W        W23765   2.442  15.233  16.560 -0.0966 -0.3100 -0.1330
 7692W        W23766   2.381  14.864  13.523  0.4087  0.0859 -0.0137
 7693W        W23767   7.769   0.957  17.046 -0.0616  0.1806  0.1433
 7694W        W23768  13.989   1.900   4.707 -0.4438  0.0055 -0.6649
 7695W        W23769  16.486   2.730  16.100 -0.2530 -0.1687 -0.0636
 7696W        W23770   1.609   9.694   3.925  0.1115  0.1314 -0.0813
 7697W        W23771   1.764  10.331  16.175  0.0490 -0.1193  0.1615
 7698W        W23772   1.530   3.488  12.974 -0.1643 -0.2155 -0.1204
 7699W        W23773   5.337  11.495   2.106  0.3380  0.0231  0.1310
 7700W        W23774   4.304   2.510   0.947  0.1203  0.0073 -0.0379
 7701W        W23775   8.997  16.725   2.671  0.1843 -0.3387 -0.5388
 7702W        W23776   9.953  12.309   2.989 -0.0877 -0.1482  0.2169
 7703W        W23777   8.103   1.766  16.063 -0.0122 -0.0114 -0.0498
 7704W        W23778   0.933   3.226  12.362  0.0786 -0.0855 -0.0225
 7705W        W23779  17.183   9.732   5.818 -0.2307 -0.0507 -0.0414
 7706W        W23780   0.970  16.645  15.048 -0.0227  0.1866 -0.3495
 7707W        W23781  14.158  12.316  13.771  0.0817 -0.0228  0.3070
 7708W        W23782   3.108  12.637  13.711  0.0128  0.2521 -0.1455
 7709W        W23783   0.355   4.093  16.384 -0.2033  0.3260 -0.2702
 7710W        W23784   7.991   9.127   2.914  0.1071 -0.0517  0.1142
 7711W        W23785   1.604  16.279   1.580  0.1295  0.0314 -0.5028
 7712W        W23786   9.505   7.399  12.598 -0.0333 -0.4066 -0.1323
 7713W        W23787   8.332  10.807  13.326  0.1504 -0.2943  0.0394
 7714W        W23788   3.971  13.167  13.560  0.3458  0.3618  0.1511
 7715W        W23789  12.974   5.926  17.127 -0.3399  0.1164  0.0848
 7716W        W23790   1.685   2.095  12.859 -0.0810 -0.0421 -0.2058
 7717W        W23791  16.746  17.533   2.342  0.1486 -0.4790 -0.1828
 7718W        W23792  14.412   9.017   4.979 -0.1715 -0.0436  0.2935
 7719W        W23793   8.015  17.400   4.100  0.1741  0.2229 -0.2273
 7720W        W23794   1.165  16.363   3.713 -0.2093 -0.0177 -0.0213
 7721W        W23795   4.528   1.033   2.030 -0.0525  0.1931  0.0406
 7722W        W23796   8.663   2.998   0.023 -0.4218  0.1777  0.0289
 7723W        W23797  14.659   0.057   1.527  0.0774  0.0534  0.3013
 7724W        W23798   4.462  11.062   1.568 -0.1188  0.0610  0.3510
 7725W        W23799  13.272   5.872   5.484 -0.0547 -0.0381 -0.1509
 7726W        W23800   0.613  14.464   5.227  0.1650  0.1914  0.0943
 7727W        W23801  16.710   8.150   6.072 -0.3871  0.2226  0.0089
 7728W        W23802   0.216  14.924  17.054  0.2332  0.0288  0.3926
 7729W        W23803   0.296   3.222  13.341  0.3338 -0.0095 -0.0782
 7730W        W23804   2.450   6.224   4.098 -0.1351 -0.2966 -0.1743
 7731W        W23805  13.139  10.441  15.338  0.0809  0.0549  0.1778
 7732W        W23806   2.240   9.321   3.050 -0.1679  0.1672  0.0238
 7733W        W23807  17.409  16.116   1.332  0.1989  0.1094 -0.0711
 7734W        W23808  12.330  10.335   0.436  0.3438  0.2428  0.1969
 7735W        W23809  14.982   0.619  14.934 -0.1799  0.1528  0.3886
 7736W        W23810  14.990  11.771   2.221  0.0038  0.2513  0.0884
 7737W        W23811   2.705  10.468   1.021  0.0169  0.1598 -0.3553
 7738W        W23812   0.072  10.234   3.689 -0.1920  0.1712  0.3407
 7739W        W23813   2.309   8.783  12.107  0.0482  0.0330  0.0291
 7740W        W23814  13.948   5.958  15.634  0.0221 -0.1183 -0.1771
 7741W        W23815   2.184   0.475  13.836  0.2381  0.2192 -0.0453
 7742W        W23816  10.033  12.866   5.852  0.0930  0.2799 -0.0378
 7743W        W23817   6.389   5.996  13.628  0.2953  0.0345 -0.1866
 7744W        W23818  17.547  13.538   2.089  0.3225 -0.1347  0.3012
 7745W        W23819  11.990  11.434   3.149  0.0058 -0.1437 -0.1132
 7746W        W23820  10.261   0.255  14.484  0.0329  0.0326 -0.2090
 7747W        W23821   8.282  15.075   5.406  0.1415  0.3662 -0.2083
 7748W        W23822  15.625  10.221  16.977 -0.3786  0.2944  0.2395
 7749W        W23823  14.670   2.074  14.212  0.2422  0.0144  0.2319
 7750W        W23824  16.680   8.920  15.826 -0.1967 -0.0866  0.0277
 7751W        W23825  17.122   3.449  14.045  0.1364  0.0809 -0.0598
 7752W        W23826   1.579   0.712   0.288  0.0557  0.1741 -0.0870
 7753W        W23827  11.829  16.004   4.886 -0.4191  0.1300 -0.0566
 7754W        W23828   2.103   8.915  13.546 -0.1108 -0.0650  0.0280
 7755W        W23829  15.493  12.127  15.428  0.0985  0.0161 -0.0091
 7756W        W23830   5.166  13.581   4.776  0.0266  0.0955  0.4712
 7757W        W23831   7.101   7.467  12.564 -0.1185 -0.2390 -0.0275
 7758W        W23832   6.457  15.028  14.833  0.0634  0.0605  0.0459
 7759W        W23833   0.198  11.009  15.286  0.0631 -0.1450 -0.0532
 7760W        W23834  14.485  10.114  13.830  0.0400 -0.3200 -0.0696
 7761W        W23835   9.518  15.046   5.284  0.0580 -0.0860  0.1640
 7762W        W23836  15.150   4.034   0.494 -0.2664  0.0095  0.3025
 7763W        W23837  17.651  15.361  12.836 -0.1409  0.1213  0.1808
 7764W        W23838  11.834  16.374   4.040  0.2769 -0.3353 -0.4157
 7765W        W23839   1.369   7.046  15.124 -0.7200  0.3094  0.0678
 7766W        W23840   3.001  16.297   6.337 -0.1976 -0.0639 -0.0888
 7767W        W23841  10.720  14.752   4.804  0.1630  0.3504 -0.1019
 7768W        W23842   4.657   9.572   0.578  0.0443  0.1479  0.1943
 7769W        W23843   5.472  12.114  15.759 -0.0897  0.2467  0.1176
 7770W        W23844  13.924   6.981  11.776 -0.1985  0.0937  0.0876
 7771W        W23845  12.311  14.365  13.757 -0.2537  0.1992 -0.0118
 7772W        W23846  10.375   8.748  16.974 -0.1591  0.3258  0.1386
 7773W        W23847   5.620   5.272   5.381  0.3597 -0.0862 -0.1596
 7774W        W23848  11.608   5.603   4.832 -0.1200  0.1774 -0.0487
 7775W        W23849  17.405   5.734   2.393 -0.5002  0.0851 -0.0793
 7776W        W23850   7.232   5.638  17.039  0.1405  0.0014 -0.1206
 7777W        W23851  13.269  12.354  15.591 -0.2176 -0.1037  0.3735
 7778W        W23852   9.237   1.571  14.440 -0.0591  0.0462 -0.1103
 7779W        W23853  17.268  16.141   5.484 -0.1774  0.4784 -0.1356
 7780W        W23854  12.660   8.732   1.382  0.1562  0.0372 -0.2463
 7781W        W23855   7.139  16.265   0.102 -0.1906 -0.1338  0.3149
 7782W        W23856   2.772   6.860   3.124  0.0941  0.3807 -0.1873
 7783W        W23857  11.270  16.376  16.434 -0.0527 -0.0332  0.4027
 7784W        W23858  10.673   7.941  16.432  0.0327  0.3332 -0.0758
 7785W        W23859  14.983  10.279  12.555  0.1638  0.0913 -0.2629
 7786W        W23860   0.720  15.567   1.637  0.1656 -0.3468  0.0265
 7787W        W23861  11.539  14.403   1.743  0.0245 -0.0961  0.1411
 7788W        W23862  15.067   6.618   3.727  0.0349  0.1291  0.2579
 7789W        W23863  12.661   8.933   1.868  0.0822 -0.1426  0.1921
 7790W        W23864  12.236   8.536   1.681  0.1284 -0.0354 -0.3499
 7791W        W23865   8.272   7.254   0.211 -0.0379 -0.0208  0.0669
 7792W        W23866   4.376   2.052   5.674  0.0179 -0.1809  0.1165
 7793W        W23867  13.012   7.943   1.744 -0.0650  0.0411  0.0473
 7794W        W23868   5.811  10.503   5.619  0.0582  0.0048  0.3367
 7795W        W23869   0.861   1.774   2.656  0.2113  0.1581 -0.1341
 7796W        W23870   8.767  16.450  11.755 -0.3640  0.1312  0.1669
 7797W        W23871  16.264   8.445  13.033 -0.2067 -0.0812 -0.1678
 7798W        W23872   0.603   3.309  12.853  0.0174 -0.0552 -0.1102
 7799W        W23873   8.919  16.746   5.128 -0.0305 -0.0276  0.0051
 7800W        W23874   4.453   2.431   4.323  0.0146 -0.0870 -0.0249
 7801W        W23875   5.555  14.928   0.320  0.0983  0.1552  0.0020
 7802W        W23876   8.528   6.043  12.709 -0.0865  0.0673  0.0789
 7803W        W23877   2.405   5.457  12.123  0.1774  0.1802 -0.1139
 7804W        W23878   3.093   6.948  14.527  0.1597  0.0733  0.2612
 7805W        W23879   9.047  15.549   6.301  0.0936 -0.3799 -0.0631
 7806W        W23880   0.834  15.368   5.838 -0.0101  0.0052  0.1452
 7807W        W23881  16.538  17.280  15.560  0.1923 -0.0134  0.0427
 7808W        W23882   4.646  16.802   4.955  0.0422 -0.0572  0.2564
 7809W        W23883  13.152   5.261   1.561  0.0071 -0.2643 -0.0524
 7810W        W23884   7.108   2.174   2.315 -0.0803  0.1388 -0.1210
 7811W        W23885   6.246  14.699   3.104  0.2091 -0.1224  0.0849
 7812W        W23886   8.722  13.851   2.654 -0.3201  0.1766 -0.1661
 7813W        W23887  10.237   8.731   3.877  0.0426 -0.0056 -0.0788
 7814W        W23888  16.945   1.750  11.892  0.2504 -0.2442 -0.0443
 7815W        W23889  14.042   2.419  16.962 -0.1112  0.0634 -0.0228
 7816W        W23890  12.957  16.647   2.929 -0.0798  0.1473  0.0752
 7817W        W23891  15.224  15.922   4.976 -0.0940 -0.4272  0.0889
 7818W        W23892   3.911   9.805  12.949  0.2074 -0.1621 -0.1348
 7819W        W23893  11.058   3.065   2.500 -0.0707  0.1272 -0.0295
 7820W        W23894   9.764   7.253   5.003 -0.0691 -0.1012  0.4028
 7821W        W23895  13.630   4.906  14.374 -0.0599 -0.1178  0.1047
 7822W        W23896  15.194  11.292   0.202 -0.2001  0.1593  0.1988
 7823W        W23897  16.639  16.767  11.988 -0.3699  0.2030 -0.0880
 7824W        W23898  17.359   0.257   4.762  0.1203 -0.3434  0.0653
 7825W        W23899   4.451   8.133  16.208 -0.0766  0.1439 -0.0760
 7826W        W23900   4.279  14.018  15.067 -0.0871 -0.2761  0.0553
 7827W        W23901   6.883   9.145   1.406 -0.1442  0.2784  0.1459
 7828W        W23902   3.483  17.361  16.408 -0.0504  0.3921  0.1488
 7829W        W23903   2.777  11.598   0.298 -0.0357  0.2207 -0.0623
 7830W        W23904  16.003   6.238  15.456  0.0413  0.4908 -0.0985
 7831W        W23905   9.163  12.134   4.312  0.2325  0.0075  0.1512
 7832W        W23906  10.804  13.109   1.499  0.0469 -0.4157  0.0883
 7833W        W23907  10.302   8.195  17.073  0.0932  0.0023  0.1019
 7834W        W23908   7.657   2.152  13.650 -0.2790  0.1178  0.3060
 7835W        W23909   4.555  11.945  13.999 -0.0902 -0.0748 -0.1068
 7836W        W23910  14.148   1.601  15.814 -0.0693 -0.3077 -0.3211
 7837W        W23911  12.171   6.874  16.441  0.0490 -0.0137 -0.1305
 7838W        W23912   9.626   5.661  14.413  0.0592 -0.2855 -0.1515
 7839W        W23913  13.846  17.465  14.705 -0.0479 -0.2783  0.0851
 7840W        W23914   6.632   4.038  14.550 -0.0050  0.3065 -0.0313
 7841W        W23915   2.301  12.040  11.858 -0.2267  0.0789 -0.0196
 7842W        W23916  15.572  15.557   6.125  0.2290  0.0663  0.0380
 7843W        W23917   2.110  12.703  16.261 -0.1109 -0.0016 -0.0440
 7844W        W23918  10.981   0.766   1.295 -0.1554  0.0162  0.0237
 7845W        W23919  11.202   4.070  14.438 -0.1762 -0.0469  0.1743
 7846W        W23920  17.682   3.992   0.725 -0.1983  0.0966 -0.1881
 7847W        W23921  12.229  10.205  14.620  0.3071  0.3543 -0.1180
 7848W        W23922   7.737  12.976   4.830  0.3280 -0.1574  0.2495
 7849W        W23923  16.007   6.974  13.753  0.1683  0.2619 -0.3002
 7850W        W23924  10.186  16.566   5.108 -0.0623 -0.1403 -0.2237
 7851W        W23925  14.279   0.068  14.950  0.0528  0.1034 -0.0616
 7852W        W23926  16.159  11.636   0.739  0.0879 -0.1049 -0.0483
 7853W        W23927  16.436   3.754   5.390  0.2815  0.2026 -0.3118
 7854W        W23928  11.601  16.764  16.090  0.1204 -0.0068 -0.1149
 7855W        W23929  10.144   3.613   4.599 -0.2676 -0.2023 -0.2185
 7856W        W23930   5.018   3.009   3.229 -0.0118 -0.2182  0.0689
 7857W        W23931  14.117  14.393  12.691 -0.0100  0.1688 -0.1747
 7858W        W23932  13.182   1.092  14.249  0.0655 -0.2044 -0.3407
 7859W        W23933   8.869   7.680   0.864 -0.0456 -0.0151 -0.0117
 7860W        W23934   2.680   5.286   1.657 -0.2472 -0.0357  0.2670
 7861W        W23935   4.128  16.619  12.990  0.0456 -0.0469 -0.1998
 7862W        W23936   4.363   9.019   0.271  0.1237 -0.1540 -0.1406
 7863W        W23937   7.003  16.648  13.859 -0.0801  0.1597  0.2265
 7864W        W23938  16.653   3.443   1.009  0.1367  0.0250 -0.1085
 7865W        W23939  16.813  14.033   1.890 -0.1300  0.1452  0.1070
 7866W        W23940   7.235  15.624  13.899 -0.0010  0.0564  0.0815
 7867W        W23941   2.278   8.903  16.764 -0.1587 -0.0917 -0.0635
 7868W        W23942   2.525  11.184   2.937  0.1846 -0.3191 -0.2942
 7869W        W23943  14.122   4.439   0.723 -0.1753 -0.0881 -0.1008
 7870W        W23944   9.956   1.188   0.158  0.0100  0.1362  0.2729
 7871W        W23945   8.715   0.364   4.613  0.1802  0.2084 -0.1253
 7872W        W23946   8.206   5.350   1.154  0.0949 -0.2838 -0.3289
 7873W        W23947   5.817  15.180  15.792  0.0063 -0.0414  0.0454
 7874W        W23948  11.018  13.562  12.589  0.2594  0.0682  0.1715
 7875W        W23949  11.751   1.928   2.543  0.0949 -0.1293 -0.1324
 7876W        W23950  15.809   5.141   2.976 -0.1513  0.2395  0.0999
 7877W        W23951  10.038  14.895  13.790  0.1703 -0.0588 -0.1345
 7878W        W23952  12.349   4.476   2.119  0.1405 -0.0632  0.1046
 7879W        W23953   6.232   1.330  16.316 -0.1942 -0.1429 -0.1274
 7880W        W23954   2.323   7.639  14.333  0.1164 -0.0301  0.2096
 7881W        W23955  10.158   5.047  16.987 -0.3999  0.2130 -0.0080
 7882W        W23956   2.910   6.301  15.913  0.0971  0.2415  0.0849
 7883W        W23957  14.331  11.121   2.199 -0.1691 -0.2595 -0.1567
 7884W        W23958  15.349   3.829   4.860 -0.0894  0.1190  0.2237
 7885W        W23959   0.384   8.416  13.972  0.0573 -0.0953 -0.0771
 7886W        W23960   4.391   2.402  12.571 -0.2541  0.0373  0.2140
 7887W        W23961   2.913  17.505   3.819  0.0540 -0.0472  0.2344
 7888W        W23962  15.043   3.329   1.323  0.4566  0.2278 -0.0260
 7889W        W23963   2.774  10.564   3.885  0.2638 -0.0628  0.0293
 7890W        W23964   6.916   5.979  13.600 -0.0731  0.1607  0.2053
 7891W        W23965   9.871  12.456  13.997 -0.0936  0.0987 -0.0562
 7892W        W23966   5.545   4.428  16.314  0.0184  0.2133  0.0487
 7893W        W23967   2.250   7.840   2.444 -0.0627  0.0018  0.1591
 7894W        W23968  12.055   5.090  15.840 -0.1500 -0.2015  0.2927
 7895W        W23969   2.693  17.227   3.486 -0.1941  0.1739  0.0908
 7896W        W23970  17.400   6.232   3.162 -0.2651 -0.2393  0.1243
 7897W        W23971  14.202  10.529   2.458 -0.2170 -0.1297  0.0483
 7898W        W23972  16.828   9.592   5.505  0.2501 -0.2150 -0.0459
 7899W        W23973   4.168  10.064   2.880 -0.1240 -0.2369 -0.1946
 7900W        W23974  15.376  17.352   0.605 -0.0070  0.0376 -0.1080
 7901W        W23975  14.103  14.125  14.824  0.2616 -0.0212  0.1625
 7902W        W23976  16.100   9.499  15.246  0.4486 -0.0370 -0.0890
 7903W        W23977  15.728   3.081   5.247 -0.2876 -0.1605  0.0293
 7904W        W23978   9.566  15.540  14.372 -0.0549  0.1630  0.0281
 7905W        W23979   6.589  11.661  12.229 -0.0244 -0.0037 -0.0471
 7906W        W23980   4.018   7.990  15.545 -0.1223 -0.1967 -0.1842
 7907W        W23981   3.609  13.993  16.775  0.2763  0.2181 -0.2549
 7908W        W23982   6.001  12.590  12.671 -0.2199 -0.0747 -0.4217
 7909W        W23983   1.655  16.876   5.302 -0.0891 -0.0859 -0.0797
 7910W        W23984  16.730   8.493  11.900  0.0435  0.2187 -0.1366
 7911W        W23985  17.380  17.535  16.127  0.1644  0.0198 -0.0639
 7912W        W23986  13.988   5.832  14.349 -0.1931 -0.0191  0.0966
 7913W        W23987  15.545  16.808  16.727  0.1040 -0.1008  0.0117
 7914W        W23988   9.975   6.037   2.359  0.2435  0.0185  0.0734
 7915W        W23989   6.678  16.910   5.678  0.3011  0.0371  0.0514
 7916W        W23990  17.003   4.452  12.268  0.0158 -0.0380 -0.1774
 7917W        W23991  10.600  16.933  15.708  0.1758 -0.0755  0.0099
 7918W        W23992   0.588   4.418  12.993  0.0438 -0.2176 -0.0265
 7919W        W23993   7.759  13.947   5.449 -0.1250  0.1083  0.1618
 7920W        W23994   6.958  15.912   3.525 -0.0590  0.3154  0.1044
 7921W        W23995  10.299   1.995  13.818 -0.2593 -0.1667  0.1221
 7922W        W23996  12.770  10.078   3.106  0.2615  0.1000 -0.0423
 7923W        W23997   8.644  15.022  13.994 -0.2141  0.3378 -0.1384
 7924W        W23998  11.897   0.771   2.707 -0.1640  0.3315  0.1031
 7925W        W23999   6.452   4.622  13.675  0.2018 -0.2880 -0.4196
 7926W        W24000   5.982  17.613   0.109 -0.0810  0.0696 -0.2685
 7927W        W24001  10.416   7.828   1.067  0.0270  0.3973  0.1562
 7928W        W24002   5.252   2.277   5.983  0.0824 -0.1313 -0.0465
 7929W        W24003  14.633  10.817   2.510  0.1244 -0.0193  0.2502
 7930W        W24004  16.686   7.389   3.163 -0.1309  0.2292 -0.2195
 7931W        W24005   6.742  17.221   6.037 -0.0516 -0.0075  0.2683
 7932W        W24006   6.648   5.526   0.910 -0.2489  0.2585  0.1029
 7933W        W24007  16.267  10.061   0.017 -0.0086  0.1553  0.1418
 7934W        W24008   4.980  10.235  15.855 -0.0202  0.4468  0.0911
 7935W        W24009   3.304  15.886   1.892  0.1345  0.0394 -0.1722
 7936W        W24010   7.325   0.106   4.632 -0.2547 -0.0729  0.1009
 7937W        W24011   0.201  11.642   3.610 -0.0048  0.2529 -0.0490
 7938W        W24012   3.339   4.760  16.181  0.4980  0.2407  0.3902
 7939W        W24013  15.868  13.116  15.377 -0.0580  0.1560 -0.1058
 7940W        W24014  15.861   9.030   2.860 -0.0562 -0.0835 -0.0915
 7941W        W24015   0.246   3.900  14.828 -0.1155 -0.2632 -0.0735
 7942W        W24016   6.825   5.743  16.377 -0.0329  0.0575 -0.3703
 7943W        W24017   0.717  16.962   0.631 -0.0510 -0.0648  0.4170
 7944W        W24018   1.236  17.667  15.159  0.0014  0.0178  0.0861
 7945W        W24019  16.791   2.931   0.032 -0.0306  0.2673  0.1094
 7946W        W24020   2.058  12.887   2.412  0.0210 -0.0139  0.0150
 7947W        W24021   1.935   6.744   2.532  0.0931  0.1603 -0.1173
 7948W        W24022   2.069   2.080  12.114  0.3119 -0.1303 -0.0048
 7949W        W24023   8.600   6.137  15.938 -0.0248  0.1329 -0.0332
 7950W        W24024  10.202   1.963  15.353  0.3964 -0.3906  0.2679
 7951W        W24025   5.272   9.444  14.116  0.0485  0.0600 -0.1064
 7952W        W24026  10.958   5.180   1.193 -0.3374  0.2223  0.0545
 7953W        W24027  12.840  17.078  13.775  0.3830 -0.2034  0.1548
 7954W        W24028   4.290  15.451   2.352  0.1568  0.2332  0.0278
 7955W        W24029   5.977   5.941  16.107  0.0117 -0.1625 -0.4043
 7956W        W24030  12.269   4.028  14.996 -0.1888 -0.2878 -0.1699
 7957W        W24031  11.816  11.463  15.402  0.0766  0.1083 -0.4374
 7958W        W24032   6.813  10.473  12.632  0.1267 -0.1554 -0.1092
 7959W        W24033   0.060  15.003   5.941  0.3846 -0.2673 -0.2013
 7960W        W24034   7.652  10.342   5.640 -0.1288  0.0626  0.2565
 7961W        W24035   8.356   3.580  11.916  0.0429 -0.0668 -0.0835
 7962W        W24036  14.312  17.042   1.425  0.2244 -0.0078 -0.1422
 7963W        W24037   0.801  10.849  13.827  0.1682 -0.0958  0.2511
 7964W        W24038  14.478   7.441  12.364  0.1370 -0.1637 -0.0518
 7965W        W24039  12.587  10.725   1.637 -0.0812 -0.1077 -0.2129
 7966W        W24040   3.009   9.922  12.415  0.0946  0.0598 -0.1600
 7967W        W24041  13.515   9.860   3.275 -0.0145  0.0050 -0.1310
 7968W        W24042   9.977   4.127  15.898 -0.0665  0.1099  0.1891
 7969W        W24043   2.442  17.666  13.261 -0.2766  0.0020  0.0850
 7970W        W24044   1.424  16.195  13.498  0.0486 -0.3091  0.2994
 7971W        W24045  11.454   4.994   0.967 -0.0944 -0.0448 -0.0991
 7972W        W24046  16.263   1.447  12.959 -0.1524 -0.0598 -0.0063
 7973W        W24047   6.798   7.826  15.958  0.1465  0.0200  0.2803
 7974W        W24048   6.272  10.535  15.612  0.3159  0.0459 -0.1722
 7975W        W24049  14.318  17.413   2.336 -0.0530  0.2034  0.0628
 7976W        W24050  15.205   3.020   5.195  0.0854  0.1068  0.2404
 7977W        W24051   5.183   5.615  16.674 -0.3040 -0.0991 -0.2620
 7978W        W24052  11.790  11.017  14.546 -0.0410 -0.1571  0.0310
 7979W        W24053   6.159   1.024   3.531  0.2816  0.0007  0.0352
 7980W        W24054   6.988   8.421  16.516 -0.0855 -0.1369 -0.1060
 7981W        W24055   9.107   9.938  12.069  0.1518 -0.0419 -0.1720
 7982W        W24056  15.397  14.782   3.345  0.3315 -0.1552 -0.2328
 7983W        W24057   6.295   7.996   0.741  0.1486 -0.0376 -0.2431
 7984W        W24058  11.133  14.094   5.268 -0.0918  0.1581  0.0209
 7985W        W24059   6.390  12.424   0.321  0.2105  0.2794  0.0104
 7986W        W24060  13.015  10.380   3.567  0.1685 -0.1805  0.2320
 7987W        W24061  15.831   8.974  15.314  0.2710  0.0383  0.2900
 7988W        W24062  10.487   8.449  15.277  0.0562  0.0356  0.0921
 7989W        W24063  15.918   6.309   3.397  0.1508 -0.2210 -0.1622
 7990W        W24064  14.065  11.624   2.937 -0.2486  0.1151  0.2785
 7991W        W24065  14.271  12.592   4.815  0.0996  0.0522 -0.0639
 7992W        W24066  17.364   7.353  11.434 -0.2359  0.2210  0.1434
 7993W        W24067  13.234  12.004  14.118 -0.0831  0.3846  0.0439
 7994W        W24068   5.837  15.582   4.848  0.0605 -0.1732 -0.0890
 7995W        W24069  17.529   6.698  16.021  0.3762 -0.3769 -0.3128
 7996W        W24070   7.724   5.223  14.516 -0.0816 -0.0355  0.1874
 7997W        W24071  16.147  12.805  14.973  0.2747 -0.0707 -0.0987
 7998W        W24072  15.793   7.775   3.432  0.0263 -0.1146 -0.0572
 7999W        W24073   9.137  15.461   2.660 -0.1074  0.4693  0.0497
 8000W        W24074  10.089   6.256   0.337 -0.0193 -0.1966 -0.1231
 8001W        W24075   7.226   3.285  14.330 -0.1390  0.0752 -0.2527
 8002W        W24076  13.518   4.204  15.917 -0.1183 -0.1938  0.0431
 8003W        W24077   1.533  17.440   2.800  0.2506 -0.0056  0.1928
 8004W        W24078  13.170  13.880   2.696 -0.0211  0.0433 -0.0085
 8005W        W24079   2.272  16.371   2.988 -0.0228  0.1238 -0.2521
 8006W        W24080   7.923   5.847   1.843 -0.1859  0.0833  0.2398
 8007W        W24081   8.688  16.997   3.247  0.0317  0.0016 -0.1024
 8008W        W24082   8.441  10.717  16.671 -0.1855  0.0191 -0.0138
 8009W        W24083  13.368  17.000  13.661 -0.0139 -0.3598 -0.1681
 8010W        W24084  14.010  10.824  13.742 -0.0185 -0.2240  0.2385
 8011W        W24085  10.457  13.657  15.046  0.1184 -0.3481  0.0923
 8012W        W24086   2.646   2.865   1.047  0.1121  0.1516 -0.1515
 8013W        W24087  15.334   6.086   5.114  0.0873 -0.0086 -0.0786
 8014W        W24088   2.189  15.551   5.222  0.0162 -0.1968 -0.1569
 8015W        W24089   7.456  14.802   5.854 -0.4122  0.1809  0.0125
 8016W        W24090   6.948   4.716   3.242  0.0265  0.1988 -0.0636
 8017W        W24091   3.769   2.695  14.096  0.1125 -0.0306  0.0299
 8018W        W24092  14.903  14.836   0.779  0.0041 -0.2030  0.0326
 8019W        W24093   4.782   7.400   2.117  0.1705  0.0019 -0.1480
 8020W        W24094   7.955   6.238  14.211  0.1909 -0.2352 -0.2603
 8021W        W24095   1.667   0.073   4.133  0.4655 -0.0171  0.4108
 8022W        W24096  15.577  12.660  13.823  0.1642 -0.0187  0.1595
 8023W        W24097   5.653  17.267  13.540 -0.0477 -0.1793  0.3964
 8024W        W24098   5.935   3.738   1.310 -0.0509 -0.3776 -0.3289
 8025W        W24099   7.316   8.358  16.061  0.2097 -0.1492 -0.0190
 8026W        W24100   0.126   8.942   4.450  0.3322  0.0963  0.1809
 8027W        W24101   4.883   2.990  13.741  0.2814 -0.1294 -0.0276
 8028W        W24102   4.643   2.772   2.564 -0.0148 -0.0735  0.0779
 8029W        W24103  12.746   7.677  11.582 -0.0857 -0.2491  0.0476
 8030W        W24104  13.368  10.703  11.766  0.0302  0.0959 -0.2914
 8031W        W24105   4.501   6.422  15.631 -0.2017 -0.1138 -0.0428
 8032W        W24106   7.658   4.828   4.341  0.4814  0.3035 -0.2925
 8033W        W24107  16.193   5.056   4.814  0.3925  0.4570 -0.0616
 8034W        W24108  10.702  11.447  15.852  0.3226  0.1992  0.1540
 8035W        W24109   8.608   7.317   1.098 -0.1039  0.0517  0.0727
 8036W        W24110  10.261  11.578   0.786  0.2296  0.2695 -0.0706
 8037W        W24111   5.962  11.049   1.038 -0.1852  0.1205  0.0324
 8038W        W24112  11.324  13.021   0.241 -0.1564 -0.0705  0.0788
 8039W        W24113   6.552  11.959   5.233  0.1477  0.0687  0.0758
 8040W        W24114  11.444   5.065  14.691  0.0558 -0.4104 -0.0648
 8041W        W24115   4.537  14.636   1.962 -0.2511  0.0757 -0.1357
 8042W        W24116  15.790   6.703  11.585 -0.3056 -0.1782 -0.2226
 8043W        W24117  13.976   4.161  13.701  0.0562 -0.2637 -0.2210
 8044W        W24118  14.623   4.732   4.236  0.1243 -0.1287  0.1640
 8045W        W24119   6.908   0.699   2.003 -0.0630  0.0679 -0.4652
 8046W        W24120   5.007   2.868   3.853 -0.0084  0.1366 -0.0268
 8047W        W24121   3.554  14.683   1.263  0.2208 -0.1204  0.0792
 8048W        W24122   7.080   4.531   0.872 -0.1423 -0.1451 -0.0115
 8049W        W24123   9.609   0.955   3.969  0.1401  0.2600  0.0327
 8050W        W24124  14.680  13.452  15.159  0.2339 -0.0351 -0.0590
 8051W        W24125   6.053   8.388   5.152  0.1819  0.1986  0.0333
 8052W        W24126   3.040   5.906   3.614  0.3437  0.3618 -0.1619
 8053W        W24127  10.342   0.540   5.610  0.1063  0.1076 -0.0043
 8054W        W24128   2.023  13.053   5.215  0.2637 -0.0872 -0.1899
 8055W        W24129  16.932  16.533  16.813 -0.1184 -0.1093 -0.0452
 8056W        W24130  14.408  16.218   6.544 -0.2660  0.0504 -0.2154
 8057W        W24131   1.263   4.747  15.680  0.1183 -0.0256 -0.2581
 8058W        W24132   5.690   2.621  15.356  0.2683  0.0992  0.1951
 8059W        W24133  13.782   3.762  13.880  0.3185  0.0244  0.1232
 8060W        W24134   2.365  16.051  11.987  0.2892  0.1584  0.2299
 8061W        W24135   0.595  14.976   4.558 -0.1063 -0.1626  0.4272
 8062W        W24136   2.679   9.767  12.097  0.2603 -0.0326 -0.0703
 8063W        W24137  14.846   5.286  16.837  0.0195  0.2530 -0.0614
 8064W        W24138  16.735  11.955  12.517  0.2830  0.0317 -0.0567
 8065W        W24139  11.612  17.602  12.332 -0.2672  0.1015  0.1500
 8066W        W24140   2.120  12.197  15.870 -0.0308  0.2079  0.0417
 8067W        W24141   6.589   7.860   1.958 -0.2838 -0.3663  0.2384
 8068W        W24142  17.563  11.770   3.317 -0.1758 -0.1488  0.1619
 8069W        W24143  16.291   3.569  16.077  0.2186 -0.2934  0.1390
 8070W        W24144  16.006   8.258   4.538  0.2035  0.0226  0.0819
 8071W        W24145  10.522  11.470   3.690 -0.0466 -0.0451  0.0400
 8072W        W24146   8.631  12.618   1.069  0.1403  0.1068 -0.0282
 8073W        W24147   9.097  13.941   1.627 -0.0940  0.1508  0.3160
 8074W        W24148   8.639  17.532  13.384  0.1815 -0.1463  0.0271
 8075W        W24149  11.796  10.794   1.894 -0.1020 -0.0507 -0.0905
 8076W        W24150  16.620   9.866  15.705  0.0508  0.3684  0.4661
 8077W        W24151   7.640   3.991   1.916 -0.2112 -0.3190 -0.1278
 8078W        W24152  11.830  10.365  14.903 -0.0329  0.1473 -0.3078
 8079W        W24153   2.312  13.250  12.311  0.0855  0.1145 -0.2051
 8080W        W24154   8.560   7.082  16.573  0.0821 -0.2502 -0.0507
 8081W        W24155   2.518  10.329  14.315 -0.4206  0.0365 -0.0833
 8082W        W24156   2.842  12.996   1.783  0.0468  0.0032  0.1077
 8083W        W24157   5.161  16.424  14.087  0.1927  0.1136  0.2829
 8084W        W24158   0.164  12.538   3.290  0.2912 -0.0904 -0.0703
 8085W        W24159  15.925  14.967  16.519  0.3118  0.0148  0.2929
 8086W        W24160   2.172   5.608  11.708 -0.0465  0.2360 -0.0059
 8087W        W24161   0.507   8.595  15.278  0.1466  0.0064 -0.1362
 8088W        W24162  10.915   1.767  15.005 -0.0631  0.1090 -0.2627
 8089W        W24163  12.401  14.348   3.971 -0.3588  0.1257  0.0683
 8090W        W24164   6.025   2.941   2.700 -0.3334  0.0317  0.3259
 8091W        W24165  13.123   3.690   4.422 -0.2253  0.0312 -0.0992
 8092W        W24166  15.982  12.289  14.694  0.3097  0.1579  0.0579
 8093W        W24167   1.670  17.576   1.461  0.2550  0.1375 -0.2845
 8094W        W24168  16.591  14.566   1.297  0.2374  0.1153 -0.1220
 8095W        W24169  10.473  14.027   1.467  0.0350  0.0864  0.0166
 8096W        W24170   3.532  17.595   3.100  0.2033 -0.0423  0.1269
 8097W        W24171  10.246  14.216  12.512 -0.3500 -0.0290 -0.2188
 8098W        W24172  11.493   4.827   1.846  0.1032 -0.0792  0.0105
 8099W        W24173  17.465  16.095   1.789  0.2785 -0.0153 -0.1132
 8100W        W24174   3.647  13.571  13.526 -0.0001 -0.0172  0.0307
 8101W        W24175   6.224   0.377  12.538 -0.2330  0.1726  0.1603
 8102W        W24176   7.020   1.272  14.624 -0.0649 -0.3623 -0.1487
 8103W        W24177   4.798  17.726  16.928 -0.1132 -0.0882 -0.0084
 8104W        W24178  13.361   2.838   4.606 -0.0433 -0.0401 -0.1095
 8105W        W24179  11.241   4.187  17.079 -0.1101 -0.0788  0.2778
 8106W        W24180   2.220  10.232   3.309 -0.1180  0.0746 -0.1293
 8107W        W24181  10.849   1.943   1.425 -0.1641  0.3803  0.1729
 8108W        W24182   7.030  15.378   3.470  0.6982 -0.0634  0.0619
 8109W        W24183  12.455   9.081  13.576  0.3377  0.1548  0.4688
 8110W        W24184   4.396   7.282  14.362  0.2179  0.3949  0.2993
 8111W        W24185   1.744  16.738  17.096 -0.0479 -0.1873  0.2831
 8112W        W24186   0.580   5.580  16.306  0.1310 -0.2116 -0.0500
 8113W        W24187   8.333   7.447   2.255  0.1491 -0.0942 -0.4312
 8114W        W24188   3.359   3.284   4.082 -0.0191  0.0549  0.2713
 8115W        W24189   8.498   8.164  16.717 -0.0369  0.2335  0.0678
 8116W        W24190  10.106   5.143   2.792  0.1087 -0.1924  0.3719
 8117W        W24191   0.591  16.489  12.764 -0.1270  0.0731  0.0812
 8118W        W24192   5.367   0.421  12.495  0.2561 -0.2758  0.0388
 8119W        W24193  12.152   5.333   4.971  0.3270 -0.0969 -0.0982
 8120W        W24194  11.526   9.294   5.495 -0.2646  0.1259  0.1485
 8121W        W24195   2.493   1.060  11.661  0.0410  0.0051  0.4275
 8122W        W24196  14.526   7.508   0.772 -0.3960 -0.1748  0.0767
 8123W        W24197  17.305   5.600   1.433 -0.0109  0.0740 -0.1307
 8124W        W24198  11.644  10.093   5.639  0.0215 -0.1666  0.1658
 8125W        W24199  10.575   0.945   5.141 -0.1652 -0.1218  0.0063
 8126W        W24200  17.448   0.847   1.944 -0.0305  0.3611  0.0395
 8127W        W24201  14.942  17.591   6.304 -0.1315  0.0062 -0.1571
 8128W        W24202   2.524   6.117   2.236  0.2909 -0.0032 -0.1261
 8129W        W24203   3.734  13.254  17.028 -0.0111  0.0986 -0.2201
 8130W        W24204   9.117   2.469  17.110  0.1274  0.1337  0.1317
 8131W        W24205   9.060  14.173  13.736 -0.1612 -0.0283 -0.0219
 8132W        W24206   4.987  14.586  14.029 -0.1508  0.0112 -0.3825
 8133W        W24207  14.729   3.758   0.620 -0.0268  0.0387 -0.0676
 8134W        W24208   3.558   5.282  14.398  0.1947  0.2309 -0.2854
 8135W        W24209  17.130  13.533   2.816 -0.3521  0.0170  0.0598
 8136W        W24210  11.795   4.896   1.318  0.4912  0.1151 -0.1567
 8137W        W24211   6.655   1.683   1.727 -0.1147 -0.1398  0.2618
 8138W        W24212   4.932   8.969   4.613  0.1513 -0.1724  0.0630
 8139W        W24213   7.666  11.670   3.029 -0.2432 -0.1827  0.0152
 8140W        W24214   1.780   5.544   1.345 -0.1938  0.0411 -0.0154
 8141W        W24215   9.975  14.526   0.693 -0.1537  0.1962  0.0305
 8142W        W24216   1.455   5.698   1.945  0.0243  0.2628  0.3648
 8143W        W24217  10.012   1.236   2.673 -0.1398  0.1426 -0.0218
 8144W        W24218  17.675   2.023  12.295 -0.0477  0.1372 -0.1431
 8145W        W24219   9.043   6.354   1.969 -0.3256 -0.0856 -0.2352
 8146W        W24220   1.936   9.114  16.010  0.0702  0.0151  0.0283
 8147W        W24221   5.587   5.894  13.481  0.0650  0.0699 -0.2978
 8148W        W24222   8.577   6.371  14.151  0.0895  0.1707 -0.2777
 8149W        W24223   3.726  17.573  14.850 -0.2187 -0.1942 -0.3158
 8150W        W24224  15.705   4.835   0.042  0.0785  0.2904  0.3652
 8151W        W24225  13.327   1.066   2.922 -0.1660 -0.1540 -0.2343
 8152W        W24226  13.853  11.949   1.595  0.0105  0.2951  0.3870
 8153W        W24227   5.009   2.823  12.028 -0.1711  0.3864 -0.1262
 8154W        W24228   1.226  10.271  15.889 -0.2513 -0.0129 -0.0785
 8155W        W24229   4.561   6.263   5.584 -0.0468  0.2317 -0.1136
 8156W        W24230   3.059  12.978  15.284  0.1307 -0.3319  0.1742
 8157W        W24231   5.811  17.109  12.603 -0.0918 -0.0040 -0.0183
 8158W        W24232   1.958   4.975  15.106 -0.1412 -0.2280 -0.2841
 8159W        W24233   6.929  10.668   2.840  0.0926 -0.0616 -0.1835
 8160W        W24234   0.150   4.868   0.148 -0.1121  0.0096  0.0445
 8161W        W24235   6.941   9.289   0.711 -0.2161 -0.1837  0.1642
 8162W        W24236  16.354   6.101   3.699  0.0105  0.1576 -0.1412
 8163W        W24237   3.759  10.358  11.395 -0.1068 -0.0132  0.0515
 8164W        W24238  10.227  10.134   6.015  0.1783  0.3307 -0.0914
 8165W        W24239  13.296   1.332  13.173  0.1750  0.2320  0.4319
 8166W        W24240   2.045  10.949   1.306  0.0710 -0.1101  0.1656
 8167W        W24241   9.320  17.563  14.466  0.1266 -0.2781 -0.2626
 8168W        W24242   2.577   1.913   6.121  0.1886 -0.2165 -0.2746
 8169W        W24243   2.398  16.972   3.121 -0.1465  0.0885 -0.2139
 8170W        W24244   4.692   6.689  13.885  0.2420  0.0984 -0.4658
 8171W        W24245   6.882   8.939   0.357  0.2943  0.0068 -0.0012
 8172W        W24246  12.886  13.050  13.176 -0.2475  0.0113 -0.1432
 8173W        W24247   7.283   3.409   5.627  0.0953  0.0915 -0.0420
 8174W        W24248  17.196   5.661   3.970 -0.0700  0.1948  0.1846
 8175W        W24249   1.127   1.629   0.640 -0.0789  0.1232 -0.0902
 8176W        W24250   2.690  10.764   0.504  0.1444 -0.1806 -0.2027
 8177W        W24251   5.963   1.707  13.538 -0.5038 -0.1415 -0.3551
 8178W        W24252  16.818   3.999  13.735  0.3570 -0.0993 -0.1995
 8179W        W24253   9.281   8.574   3.892  0.2088  0.0500 -0.2040
 8180W        W24254   6.864  10.317   6.163 -0.0405 -0.3069  0.2102
 8181W        W24255  15.574   5.165  14.085 -0.0410 -0.1357  0.3115
 8182W        W24256   5.419   7.893   3.708  0.0302  0.0792 -0.2395
 8183W        W24257  10.013   2.260   5.271  0.2276 -0.1816  0.1109
 8184W        W24258   3.767   8.852  13.113  0.1278 -0.1545  0.3087
 8185W        W24259  15.363   9.145  14.596 -0.2801 -0.0951  0.0156
 8186W        W24260   6.452   2.280  15.277  0.0720  0.1067  0.0246
 8187W        W24261  15.102  13.195  16.935  0.2093  0.2188 -0.1630
 8188W        W24262   0.884   0.451  13.250 -0.1393 -0.3832 -0.1365
 8189W        W24263  11.146   9.388  12.339 -0.6866  0.0727  0.2032
 8190W        W24264  13.743  13.315   2.755 -0.1298  0.1635 -0.1273
 8191W        W24265   4.585   3.004  12.076  0.0929 -0.3380  0.0755
 8192W        W24266  16.491  13.114  12.325 -0.3848 -0.0997 -0.0610
 8193W        W24267  10.886   9.848  15.021 -0.1709 -0.1708  0.1443
 8194W        W24268  11.241   4.932   6.856  0.2891  0.0301  0.4560
 8195W        W24269   9.821  16.420  13.100  0.1540 -0.1671 -0.1670
 8196W        W24270   9.840  13.948   4.026  0.0984  0.1307  0.5555
 8197W        W24271   0.221   7.160  14.726  0.0638  0.1527  0.0562
 8198W        W24272  14.222   3.483  16.267  0.1262 -0.4439  0.1993
 8199W        W24273  11.921  16.643   0.184 -0.1895 -0.2660  0.3842
 8200W        W24274  11.239  10.527   5.690  0.3675  0.0842  0.0942
 8201W        W24275  17.283  10.822   5.843 -0.0540 -0.2965  0.0938
 8202W        W24276   7.239   5.249  13.501 -0.0566 -0.1042 -0.1190
 8203W        W24277   4.370   8.673   3.839 -0.1312  0.0869  0.2611
 8204W        W24278   8.305  14.553  11.565 -0.3742  0.1122 -0.2400
 8205W        W24279   6.138  10.286  12.421 -0.1099 -0.0663 -0.0790
 8206W        W24280  13.999   2.339   4.168 -0.0166 -0.2246  0.1310
 8207W        W24281   5.091   5.471  12.196 -0.1293  0.0273  0.1147
 8208W        W24282  11.138   6.456  15.413 -0.2703  0.1372  0.0943
 8209W        W24283  15.347  17.089  15.345 -0.0114  0.1061  0.1036
 8210W        W24284  10.981   9.879  15.570  0.2210 -0.0028 -0.0160
 8211W        W24285   1.885  13.572  16.784  0.0051  0.0429 -0.1169
 8212W        W24286   7.532   9.939   4.553  0.1383  0.2866 -0.1485
 8213W        W24287   8.258  11.056   3.556 -0.1650 -0.1891 -0.3662
 8214W        W24288   6.699  17.308   2.618 -0.0247 -0.0126  0.1402
 8215W        W24289  12.366   0.826   1.938  0.0369  0.2742  0.0454
 8216W        W24290   7.911  16.306  12.899  0.1609  0.0466 -0.3235
 8217W        W24291   1.283   7.262   0.785 -0.2720  0.2962  0.1596
 8218W        W24292   4.900  13.245  15.000  0.0398 -0.2203 -0.1688
 8219W        W24293   7.486  11.052  15.968 -0.0473 -0.0812 -0.0636
 8220W        W24294   5.435   6.018   5.214 -0.1314  0.0582 -0.0674
 8221W        W24295  11.561  16.307   0.150 -0.1095  0.2381  0.1721
 8222W        W24296  15.264   2.869   1.333 -0.0586  0.1274  0.1267
 8223W        W24297  16.249   8.986  16.086 -0.1039  0.0210  0.1613
 8224W        W24298  11.808  12.700   2.933  0.1826  0.1779  0.0186
 8225W        W24299  15.486   7.058  16.775  0.1779 -0.2006 -0.0764
 8226W        W24300   9.007  12.115   2.660  0.2749 -0.1245  0.0701
 8227W        W24301  11.161  15.039  13.292 -0.2244 -0.1009  0.0244
 8228W        W24302   1.596  13.586   4.449  0.2267  0.0525 -0.0905
 8229W        W24303  16.730   3.639   2.213 -0.2877 -0.0120  0.0763
 8230W        W24304  13.126   0.275  13.940  0.2432 -0.1723 -0.0077
 8231W        W24305  15.164   1.888  15.763  0.2228 -0.2459 -0.2036
 8232W        W24306   4.875  12.426   3.714 -0.2662 -0.2888 -0.0190
 8233W        W24307  13.119   9.601   1.169 -0.0481  0.2384  0.0874
 8234W        W24308  15.154   7.432  12.521 -0.0928  0.1155 -0.4193
 8235W        W24309   9.551  13.097   0.957 -0.1478  0.0177  0.2938
 8236W        W24310   9.757  16.422  15.410  0.1807 -0.3959 -0.2252
 8237W        W24311  16.406   9.902  10.544 -0.0745 -0.1187 -0.1944
 8238W        W24312   6.380   9.486   5.520  0.1756 -0.0996 -0.0395
 8239W        W24313  17.365  16.357   0.397 -0.2144 -0.0693  0.0683
 8240W        W24314   5.568  13.613   2.841 -0.0523 -0.0620 -0.0685
 8241W        W24315   9.702   6.680  12.857 -0.0474  0.0275 -0.1150
 8242W        W24316   9.418   3.236   0.537  0.0454  0.2004  0.0463
 8243W        W24317   0.322  10.854   3.153 -0.0395 -0.1264 -0.0877
 8244W        W24318  10.442   0.698   4.011  0.3063 -0.0355  0.2804
 8245W        W24319   2.438   9.528  16.146  0.1753  0.1304  0.1890
 8246W        W24320   0.512   2.059  16.907 -0.0051  0.0614 -0.1992
 8247W        W24321   6.684   8.647  12.086  0.2665 -0.2343 -0.1816
 8248W        W24322   6.295   3.361   1.561  0.0831 -0.2613  0.2238
 8249W        W24323   9.024  10.546   2.404  0.0133 -0.1312  0.1338
 8250W        W24324   0.209  16.093  16.760 -0.2143  0.0309  0.0962
 8251W        W24325  12.279   1.475   2.139  0.2354  0.3343 -0.0239
 8252W        W24326   5.761  11.582   4.259 -0.2949 -0.0293 -0.0594
 8253W        W24327   7.002   3.839   5.544  0.1366 -0.0308 -0.1614
 8254W        W24328   1.080   7.293  16.415 -0.1595  0.0211  0.2905
 8255W        W24329  16.705  14.212   0.124  0.0798  0.2648  0.0210
 8256W        W24330  17.339  15.180   4.248 -0.0304 -0.1153  0.2290
 8257W        W24331   2.647   1.609  14.242  0.3553  0.0839 -0.1962
 8258W        W24332   3.718   9.631   3.836 -0.0510 -0.0666 -0.2757
 8259W        W24333  13.333  15.032   2.267  0.2431  0.0504 -0.1529
 8260W        W24334  11.132  13.720  15.464 -0.1642  0.2008 -0.2022
 8261W        W24335   6.067  14.548  12.150 -0.0397  0.0471 -0.0264
 8262W        W24336   9.500   2.854   5.524  0.4731 -0.1084 -0.1577
 8263W        W24337   9.482   9.915   3.217 -0.1350 -0.1296  0.3192
 8264W        W24338   6.417   5.289   2.916  0.0150 -0.0142  0.1964
 8265W        W24339   5.286  14.688  16.968 -0.2695 -0.1524  0.0377
 8266W        W24340   7.774  12.763   5.573 -0.2870  0.0837 -0.1652
 8267W        W24341  11.078   5.936  13.149 -0.0517  0.2834  0.2088
 8268W        W24342   4.256  14.861   5.292 -0.1748 -0.2685  0.0841
 8269W        W24343   8.035   0.995  13.114  0.1632 -0.1014 -0.0541
 8270W        W24344   2.376  17.126  13.287 -0.0547 -0.3676 -0.0801
 8271W        W24345   8.390  15.209  16.205 -0.0159  0.0918  0.1528
 8272W        W24346  11.746  17.248  16.782  0.2354 -0.2389  0.0260
 8273W        W24347  16.159  11.741   3.983 -0.3845 -0.0585 -0.1944
 8274W        W24348  10.617  17.320   0.089 -0.2193  0.3276  0.0415
 8275W        W24349   3.945   8.772   0.177 -0.1340  0.1194 -0.2642
 8276W        W24350  15.850  12.405  12.348  0.0472  0.1204  0.1462
 8277W        W24351  11.426   5.480   0.682 -0.1903  0.2845 -0.1147
 8278W        W24352   8.825   8.750  12.146 -0.2365 -0.0895 -0.2486
 8279W        W24353   2.279   7.452  11.861 -0.1671 -0.2661  0.2124
 8280W        W24354   7.984  14.922  12.046  0.0271 -0.1013  0.0424
 8281W        W24355  17.397   4.077   0.033 -0.0482  0.2982  0.1661
 8282W        W24356   4.948  17.374   2.060  0.0744 -0.1192 -0.1295
 8283W        W24357   2.173   1.844   0.138 -0.0301 -0.1651 -0.2772
 8284W        W24358   0.141  10.275  15.808  0.2597  0.1749 -0.0490
 8285W        W24359   7.936   5.574   0.803 -0.2235 -0.0295  0.2931
 8286W        W24360   1.052   8.553  15.511 -0.1650 -0.2662 -0.3461
 8287W        W24361   8.715   9.479   5.457  0.0133  0.0976 -0.0579
 8288W        W24362  17.184  16.792  14.143  0.0677 -0.5645 -0.1308
 8289W        W24363   0.429  10.388  16.238 -0.2942  0.0403  0.0569
 8290W        W24364   8.518  16.972   4.757 -0.1162  0.1864  0.0258
 8291W        W24365  13.179   6.437  14.178 -0.0661  0.0525  0.5977
 8292W        W24366  14.533   4.241   0.561  0.1411 -0.1676  0.2304
 8293W        W24367  12.549  15.097  16.702  0.0582 -0.2404  0.3047
 8294W        W24368   0.618  12.145   5.169 -0.1558  0.1440  0.2710
 8295W        W24369   4.148  12.066   5.382  0.1828 -0.0924 -0.0606
 8296W        W24370  13.452   4.059   1.178  0.1373  0.1239 -0.3415
 8297W        W24371   7.806   4.445  13.975 -0.0765  0.1043 -0.2107
 8298W        W24372   9.325   5.596  15.991  0.2006 -0.0801 -0.0914
 8299W        W24373  10.165  10.042  14.771  0.3082 -0.1889  0.1773
 8300W        W24374  10.138   8.982  12.060  0.0540  0.1709 -0.2096
 8301W        W24375   5.165   0.764  16.203  0.0054  0.2387 -0.2197
 8302W        W24376   2.872   3.363   3.237 -0.2253 -0.1542  0.0854
 8303W        W24377   5.535  16.253  13.135  0.0791 -0.1411  0.0020
 8304W        W24378  14.557   0.975   1.417  0.2549  0.0724  0.0308
 8305W        W24379   1.496   8.755   1.728  0.1997 -0.2891 -0.0037
 8306W        W24380   1.630  11.275  12.856 -0.1252 -0.3248  0.2460
 8307W        W24381  12.444   6.057  12.837  0.1054 -0.1326  0.0896
 8308W        W24382  15.720  13.847   6.341  0.2397 -0.1029  0.0025
 8309W        W24383  14.225  16.388  15.876 -0.0634  0.4412 -0.2855
 8310W        W24384   5.785  13.187  17.065  0.1193 -0.1929  0.0923
 8311W        W24385   0.589  13.613  16.170  0.1481  0.2042 -0.2609
 8312W        W24386  17.726   6.651   1.188 -0.0364 -0.1327 -0.1151
 8313W        W24387  12.502  16.284   6.267 -0.2714 -0.0157 -0.1836
 8314W        W24388  13.911  16.413  12.422  0.2676 -0.2983  0.1147
 8315W        W24389  16.742   2.263   1.399 -0.1161 -0.3871 -0.1114
 8316W        W24390  12.850   9.999   2.175 -0.0497  0.0904 -0.0007
 8317W        W24391  13.687   1.876   0.588  0.1315 -0.1860  0.0446
 8318W        W24392  12.258   7.619  11.726  0.0993 -0.4790 -0.0476
 8319W        W24393   6.895   8.369  14.281 -0.3821 -0.3509 -0.0318
 8320W        W24394   9.228  15.019   3.404  0.1544 -0.1355  0.1761
 8321W        W24395   5.176   5.157  11.804 -0.0640 -0.0447 -0.1520
 8322W        W24396  12.303  11.061   3.201  0.1205  0.1767  0.0713
 8323W        W24397   1.763  11.340  12.346 -0.1535  0.1812 -0.0572
 8324W        W24398  13.223   2.923  13.751 -0.0106  0.1160 -0.3857
 8325W        W24399   1.961  16.770   5.815  0.0964 -0.1955 -0.1907
 8326W        W24400  13.625  11.787   1.099 -0.0870  0.0898 -0.2076
 8327W        W24401   2.356  15.307  15.672  0.1311 -0.2810 -0.0158
 8328W        W24402  16.641  10.762  11.751 -0.2699 -0.1213 -0.0742
 8329W        W24403   4.303  16.855   5.866  0.0599 -0.1193  0.0454
 8330W        W24404  14.421  17.292   4.044  0.0545 -0.1014 -0.2525
 8331W        W24405  11.721   4.186  13.243  0.1531 -0.1620 -0.3382
 8332W        W24406   4.544   2.087  12.201  0.0424 -0.1081  0.0510
 8333W        W24407  17.627  12.102  14.627 -0.1637  0.1796  0.0707
 8334W        W24408  17.420   7.025   0.984 -0.1758  0.1363 -0.4250
 8335W        W24409  10.677   5.806   5.317  0.2119  0.0539  0.0151
 8336W        W24410   2.012   6.545  15.026 -0.2155 -0.1143  0.0800
 8337W        W24411  14.165   5.521   2.845  0.0338 -0.1224  0.0182
 8338W        W24412   5.954   2.475   1.890  0.0530  0.4476  0.1102
 8339W        W24413   2.845  15.935   2.082 -0.1392 -0.0354 -0.2303
 8340W        W24414  15.170  10.804  17.111 -0.0434  0.0642  0.0228
 8341W        W24415  10.535   9.193   2.233  0.1420  0.0860 -0.2063
 8342W        W24416   3.628   9.621   5.430  0.0358  0.0860 -0.1511
 8343W        W24417   3.789   8.237   0.160  0.1799  0.1843  0.1548
 8344W        W24418   0.804  16.755   4.596 -0.0584 -0.3136  0.2419
 8345W        W24419  11.238  11.595  15.554  0.0168 -0.1907 -0.1369
 8346W        W24420   0.442  12.126   2.470 -0.2598 -0.0789  0.2091
 8347W        W24421   0.670  17.576  15.143 -0.0332 -0.0212  0.4848
 8348W        W24422   0.573   0.533  14.704 -0.0012  0.0227 -0.0979
 8349W        W24423   2.018  15.446  14.786 -0.2584  0.0522 -0.0732
 8350W        W24424  16.551  11.081   0.111 -0.1645 -0.0597  0.1624
 8351W        W24425   1.162   7.638  11.589  0.0467  0.2040 -0.0579
 8352W        W24426   2.218   9.200  11.847 -0.0429 -0.2130 -0.2725
 8353W        W24427   0.469  11.344   1.249 -0.1297 -0.0364 -0.1346
 8354W        W24428   8.183  12.329   2.922 -0.3222 -0.1105  0.0880
 8355W        W24429   7.008   3.270  12.822  0.0447 -0.4257 -0.1854
 8356W        W24430   6.439  11.888  13.132  0.2134  0.3337 -0.0448
 8357W        W24431  11.429   9.022  12.082  0.3206 -0.1743 -0.1592
 8358W        W24432  13.474   8.206   1.602 -0.2079 -0.4921 -0.1050
 8359W        W24433  13.198  10.229   5.847  0.0391  0.0046  0.1905
 8360W        W24434  13.597   4.666  11.624  0.3930 -0.3230  0.0816
 8361W        W24435  11.343  17.583  13.486  0.1914  0.2828  0.1786
 8362W        W24436   1.438   7.225  11.637 -0.1143 -0.0318  0.0168
 8363W        W24437   6.047  10.316   0.738  0.0978 -0.2745 -0.1619
 8364W        W24438   3.274  13.437  15.445 -0.1520 -0.1637 -0.0908
 8365W        W24439  17.371  15.175  13.337 -0.1773  0.0525 -0.0924
 8366W        W24440   4.503  17.219  11.992 -0.1543  0.0752 -0.2749
 8367W        W24441  15.838   8.331  14.949  0.1807 -0.1724  0.0173
 8368W        W24442  14.526  12.200   4.622  0.0983 -0.2738  0.2110
 8369W        W24443  15.530   8.096  13.368 -0.0479 -0.3215  0.0881
 8370W        W24444  10.418   0.712  13.989  0.2773  0.1979 -0.1176
 8371W        W24445   2.245   4.136  13.472 -0.2292  0.1606  0.2855
 8372W        W24446  10.946   8.978  16.043 -0.0812  0.0699 -0.2063
 8373W        W24447   9.571  16.796  12.741  0.3478 -0.3671 -0.1583
 8374W        W24448   6.545   8.015   3.128 -0.1281  0.2511 -0.4752
 8375W        W24449   9.716  12.730   3.322 -0.0622 -0.0004  0.4008
 8376W        W24450  17.480   0.036   5.263 -0.1001 -0.0721 -0.1574
 8377W        W24451   7.705   2.736   4.118 -0.4441  0.1520  0.1136
 8378W        W24452  14.490   9.814  15.109  0.1825 -0.2299 -0.1716
 8379W        W24453   4.645  15.915  14.095 -0.4363  0.3353  0.1951
 8380W        W24454  13.365  14.217   2.355 -0.0479 -0.0422  0.0684
 8381W        W24455  13.378  13.163  12.414 -0.1716 -0.1088 -0.2279
 8382W        W24456  12.202  15.960  14.782  0.0424 -0.2098  0.1643
 8383W        W24457  14.762  14.129   4.085  0.1103  0.1490 -0.0165
 8384W        W24458  13.179  11.624  17.065  0.1668 -0.0002  0.2507
 8385W        W24459   3.581   1.906  14.978  0.2317 -0.1168 -0.0235
 8386W        W24460   0.449   0.129  15.659 -0.0157 -0.0957  0.1082
 8387W        W24461   1.783  12.662   1.123  0.1760 -0.0352  0.0176
 8388W        W24462   6.845   6.195   1.857  0.1512  0.1158  0.0148
 8389W        W24463  17.529   7.728   3.639 -0.0935 -0.2870 -0.0175
 8390W        W24464   7.796   2.021  16.403  0.1393 -0.1499 -0.3545
 8391W        W24465  14.938   4.532   5.962  0.0444 -0.0286  0.1611
 8392W        W24466   4.948  12.814  14.731  0.0624  0.4670  0.2537
 8393W        W24467  16.043   7.132   5.170 -0.2052 -0.1670  0.2829
 8394W        W24468   2.320   7.008  16.267 -0.3557  0.1963 -0.0830
 8395W        W24469  11.596  14.784  14.138  0.0114  0.1392 -0.3477
 8396W        W24470   1.723  13.112   3.490  0.0217 -0.1171  0.1029
 8397W        W24471   3.042   3.332  13.749 -0.0894 -0.0260  0.0727
 8398W        W24472  10.988   4.987   2.145  0.1065 -0.1275 -0.2590
 8399W        W24473  11.182  17.073   4.121 -0.2116  0.1876 -0.0979
 8400W        W24474   3.255  16.341   5.356 -0.0367  0.1013  0.2503
 8401W        W24475  11.733  16.927  13.075 -0.2785 -0.4539  0.0880
 8402W        W24476  17.460   5.853  13.658  0.0084 -0.2569  0.1529
 8403W        W24477   3.700   4.670  11.771 -0.0443 -0.1146  0.2409
 8404W        W24478   2.401  15.390  13.615 -0.4261  0.1035  0.3405
 8405W        W24479   0.836   6.325   0.536 -0.1090 -0.1042  0.1353
 8406W        W24480  11.777  17.171   5.790 -0.1846  0.0515 -0.4265
 8407W        W24481   3.212   4.062   5.489  0.0077  0.0583 -0.0673
 8408W        W24482  15.291   1.897  13.027 -0.1002 -0.0064 -0.0287
 8409W        W24483   2.262   1.380   4.695  0.2034 -0.0375 -0.2902
 8410W        W24484   8.289   6.275   1.272 -0.2246  0.2876 -0.3327
 8411W        W24485  10.196   3.566  16.001  0.0536 -0.0094  0.1055
 8412W        W24486   1.478   6.559   2.297  0.1240  0.1588 -0.3484
 8413W        W24487   2.462   2.667  12.735 -0.1598  0.0731  0.0684
 8414W        W24488  11.547   0.154   2.928 -0.0162  0.0710 -0.0984
 8415W        W24489  14.884   1.678   3.852 -0.0792 -0.1988  0.4110
 8416W        W24490   3.501  12.212   3.599  0.0934 -0.0032 -0.2388
 8417W        W24491   0.242   1.655  12.238 -0.0256 -0.4158 -0.0108
 8418W        W24492   8.224   5.555  16.087  0.2870 -0.1474  0.4435
 8419W        W24493   4.567   7.394  14.850 -0.1663 -0.1597 -0.0928
 8420W        W24494  14.269   6.229   0.216  0.1999 -0.1092  0.2208
 8421W        W24495  16.321  13.755   3.034  0.3017  0.4450 -0.1019
 8422W        W24496   9.347   0.483   4.743  0.1607  0.1825  0.0087
 8423W        W24497   3.030  14.871  12.336 -0.0519 -0.0177 -0.1211
 8424W        W24498   9.026   8.414   4.446 -0.0297  0.1373  0.2301
 8425W        W24499  16.687   0.304  14.209  0.0858  0.1604  0.1108
 8426W        W24500  14.973   0.449   0.254 -0.0294  0.0328 -0.3553
 8427W        W24501   7.665  17.164   0.776  0.1523 -0.0348 -0.0625
 8428W        W24502   1.363  17.684  12.006 -0.2220 -0.0473  0.1259
 8429W        W24503   9.329  17.321   4.344  0.2264  0.2407  0.0220
 8430W        W24504  12.126  15.167   4.497 -0.4988 -0.1338 -0.0648
 8431W        W24505  14.897  16.671   2.112  0.1784  0.2283  0.0593
 8432W        W24506  15.104   3.001   2.819  0.0219 -0.0245 -0.2027
 8433W        W24507   3.361   1.635  12.144  0.3506 -0.2868  0.0654
 8434W        W24508   9.388   4.491   3.732  0.1960  0.2481  0.1921
 8435W        W24509  16.087   9.819  13.175  0.0864 -0.1542  0.0174
 8436W        W24510  17.690  15.148  16.285 -0.0274  0.2330  0.0349
 8437W        W24511   3.806   7.495   4.567 -0.0905  0.2043 -0.1076
 8438W        W24512  15.343  15.376  14.424  0.0351 -0.2419  0.0466
 8439W        W24513  13.075  17.322   5.148 -0.1500 -0.0826  0.2304
 8440W        W24514   1.528  10.958   3.176  0.0168 -0.1909  0.2889
 8441W        W24515   7.086   1.478  15.114  0.3122  0.1570  0.0263
 8442W        W24516  16.227  17.025  12.344 -0.0762 -0.0902  0.1721
 8443W        W24517   1.858  16.887  11.760  0.1960 -0.3433 -0.0480
 8444W        W24518  14.837  13.887   6.296  0.2945 -0.1082  0.2301
 8445W        W24519   4.327  14.076  14.581 -0.0912 -0.0392 -0.1271
 8446W        W24520   0.358  16.784   1.087  0.1941  0.1171 -0.0343
 8447W        W24521   4.881   7.704  15.092  0.2021 -0.1221 -0.0460
 8448W        W24522  15.506   9.372  17.145  0.1637 -0.0541 -0.0552
 8449W        W24523   5.580   8.707  14.535  0.0622 -0.3009 -0.0198
 8450W        W24524   7.743  16.219   0.773 -0.0550  0.0360  0.1001
 8451W        W24525  10.033  16.933  11.109  0.0338 -0.0595 -0.1996
 8452W        W24526   3.524   0.712  13.381 -0.0646 -0.0762  0.2143
 8453W        W24527   4.400   4.518   3.438  0.0103 -0.0464  0.0471
 8454W        W24528  11.131  14.329  16.807 -0.0649 -0.1512  0.0284
 8455W        W24529   0.831   8.727  13.251 -0.0381  0.0488  0.1580
 8456W        W24530  11.442   6.311  14.578 -0.0748 -0.3907  0.0824
 8457W        W24531  15.841   6.160   2.950 -0.0957  0.2818 -0.3055
 8458W        W24532   6.281   3.811   0.319 -0.0222  0.0537  0.0712
 8459W        W24533   9.177  15.772  14.162 -0.0126 -0.2046 -0.2183
 8460W        W24534  17.236   7.541   4.429 -0.3685 -0.0467 -0.1694
 8461W        W24535  17.336  14.966   0.502 -0.3348 -0.0473  0.1783
 8462W        W24536   2.863  11.377  14.637  0.1898  0.2090 -0.3212
 8463W        W24537  13.128   5.571   2.094 -0.0936 -0.0993  0.3522
 8464W        W24538  10.769  13.165  13.351 -0.1533 -0.3961 -0.0847
 8465W        W24539   2.516   0.391  13.361  0.0529  0.0275  0.0216
 8466W        W24540  13.074   3.262  17.013 -0.0014  0.0299  0.3428
 8467W        W24541  14.917   3.436   4.730 -0.0794  0.0996 -0.0399
 8468W        W24542  12.524  11.537   3.124  0.2404  0.0663  0.1065
 8469W        W24543   1.822   6.215   4.784  0.0688  0.1914  0.0502
 8470W        W24544  10.850  17.535  16.869 -0.0077  0.1824  0.0488
 8471W        W24545   1.319   8.977   2.157 -0.0846 -0.1187  0.1005
 8472W        W24546   7.013   0.954  12.905 -0.0045  0.1861  0.3024
 8473W        W24547  12.876   7.988  16.263 -0.2127  0.0501 -0.1352
 8474W        W24548  16.076   2.372  13.737  0.0840  0.3559 -0.0392
 8475W        W24549  10.709   2.771   2.728 -0.2736  0.2587  0.0572
 8476W        W24550  13.075   9.155  14.320 -0.3493 -0.1819  0.3424
 8477W        W24551   5.740   2.946  12.162 -0.1067 -0.0060 -0.0571
 8478W        W24552   0.585  13.631   3.989 -0.1065 -0.1250  0.2231
 8479W        W24553  11.874   5.825   1.371  0.1267  0.6029  0.0218
 8480W        W24554  16.761   5.566   1.082  0.3496 -0.0901  0.0734
 8481W        W24555   8.368   8.194   4.724 -0.0286 -0.3320 -0.0901
 8482W        W24556  13.402   1.101  16.282  0.3096  0.0175  0.2028
 8483W        W24557   8.537   5.071   4.262 -0.1616 -0.0235  0.4291
 8484W        W24558   9.357  10.255   0.629 -0.0110 -0.0807 -0.0202
 8485W        W24559  11.700   3.287  13.424  0.1504  0.2311 -0.0491
 8486W        W24560  17.474   1.790   2.622 -0.3436 -0.3476  0.1506
 8487W        W24561   4.247   8.773  13.258  0.0345  0.0002 -0.0390
 8488W        W24562   5.998  12.989   5.951 -0.1732  0.0344  0.2199
 8489W        W24563   8.926  12.011   5.686  0.1212 -0.0114 -0.4256
 8490W        W24564   5.412   0.661   0.050 -0.1166  0.2548  0.0345
 8491W        W24565  15.995   8.591  17.087 -0.0469  0.1764  0.2772
 8492W        W24566  11.670   4.407   0.136 -0.4167  0.3364  0.6043
 8493W        W24567  16.451  10.471  15.218 -0.3939 -0.1222 -0.1086
 8494W        W24568  12.974   7.544   2.030  0.3465  0.3548 -0.2816
 8495W        W24569  10.982   6.115  14.629 -0.2622  0.1088 -0.1852
 8496W        W24570  17.322  11.193  13.284  0.0191  0.1056 -0.3330
 8497W        W24571   9.076  15.185   5.475 -0.0579  0.2659  0.0782
 8498W        W24572   4.507   8.286   1.706 -0.1619 -0.0855  0.0267
 8499W        W24573   1.113   7.535  12.776 -0.1192 -0.0320  0.0959
 8500W        W24574  13.324  13.776   2.040 -0.1055 -0.0975 -0.0662
 8501W        W24575   6.746   4.847   1.928 -0.1753  0.0431  0.1201
 8502W        W24576  15.295  15.936  13.130 -0.1690  0.0287 -0.1208
 8503W        W24577   0.701   0.247   3.776 -0.1898 -0.0784  0.0929
 8504W        W24578   1.427   2.492   4.171  0.0102  0.1729 -0.2563
 8505W        W24579   8.176   3.852   2.566  0.2095 -0.0428  0.2277
 8506W        W24580   6.511  13.889  12.943  0.1272 -0.1966 -0.0770
 8507W        W24581   4.039  10.217  13.712  0.2576  0.2833  0.0870
 8508W        W24582   7.891   3.548   3.698  0.0274 -0.2713 -0.0197
 8509W        W24583   9.650   2.947   4.783  0.2205 -0.0092 -0.0200
 8510W        W24584   4.137   5.072   2.202 -0.1611  0.0304  0.0567
 8511W        W24585  12.255   5.832   0.342  0.1493  0.0549 -0.1354
 8512W        W24586  16.603  10.300  13.452  0.1574  0.1387  0.1786
 8513W        W24587  10.538   2.805  11.973 -0.1024  0.2169  0.3689
 8514W        W24588   8.827   8.887  16.037 -0.0707  0.0362 -0.2492
 8515W        W24589   7.863  15.985  16.568  0.2994 -0.2023  0.0531
 8516W        W24590  17.164  11.568   0.293 -0.0410  0.1468 -0.0404
 8517W        W24591   0.390  16.209  16.278 -0.2444  0.1754 -0.0674
 8518W        W24592   1.567   1.250  11.972  0.0527 -0.3942  0.0849
 8519W        W24593  11.534   7.397  14.625  0.0149  0.3396  0.0728
 8520W        W24594   0.340  12.375  15.874 -0.1255 -0.3351 -0.0001
 8521W        W24595   0.216   3.469  12.341 -0.2484  0.0121 -0.1344
 8522W        W24596  12.927   0.041   1.103 -0.1430  0.0010 -0.4307
 8523W        W24597  16.606   7.446  14.999 -0.0710  0.1446 -0.2964
 8524W        W24598   2.792   8.101  12.137  0.0740  0.2795  0.1782
 8525W        W24599   0.888   4.621  17.100 -0.0544  0.1010  0.0887
 8526W        W24600  11.501   8.767  17.087 -0.0261 -0.3924 -0.1075
 8527W        W24601  11.906  11.784   5.433  0.1395 -0.0491 -0.0402
 8528W        W24602   2.954  17.716   6.408  0.1350 -0.0946  0.3508
 8529W        W24603   3.675   1.816  12.711 -0.0427  0.3092 -0.0074
 8530W        W24604  10.309  10.551   5.184  0.3189  0.2023  0.2375
 8531W        W24605  10.885   8.416  16.787  0.4449 -0.1314 -0.2349
 8532W        W24606   2.325   9.415  14.764  0.0078  0.0993 -0.0081
 8533W        W24607  11.304   7.505  13.746  0.1734  0.0255  0.0550
 8534W        W24608   5.530  15.950   5.123  0.0504 -0.0831  0.2410
 8535W        W24609   7.319  16.456  14.214  0.2803 -0.0218 -0.0464
 8536W        W24610  10.047  10.894   4.964 -0.1203 -0.1029  0.2262
 8537W        W24611   2.469   3.035  14.526  0.3623 -0.1666 -0.2373
 8538W        W24612  14.903   2.273   1.685  0.1375  0.0987 -0.2727
 8539W        W24613  16.439  12.491  14.774  0.1085  0.1860  0.2491
 8540W        W24614   3.349   5.563   6.073 -0.0533 -0.0515 -0.1524
 8541W        W24615  13.960  11.509  17.073  0.1812 -0.1447 -0.2484
 8542W        W24616  12.049   1.140  13.658 -0.3428  0.1212 -0.0744
 8543W        W24617  10.877  17.205   3.735 -0.0387 -0.1171 -0.1464
 8544W        W24618   9.616   7.050   2.892 -0.2652  0.2041  0.1696
 8545W        W24619   5.006  14.396   0.537 -0.0515  0.1330  0.3030
 8546W        W24620   0.117   5.808  13.899 -0.0458 -0.2682  0.0144
 8547W        W24621  11.029  12.325  12.072 -0.0112 -0.3724 -0.0157
 8548W        W24622   9.298  10.972   3.308  0.0679  0.4499 -0.0195
 8549W        W24623  13.218   5.720   0.789 -0.1405  0.2821  0.0802
 8550W        W24624   7.080   4.213  14.376 -0.1140 -0.0801 -0.0235
 8551W        W24625   5.087  11.853   3.373  0.2837 -0.4355 -0.0567
 8552W        W24626  10.197  13.055  14.767  0.3297 -0.0051 -0.1469
 8553W        W24627  16.170   6.356   1.292  0.3221 -0.0790 -0.1299
 8554W        W24628  12.479   5.352   3.267  0.1207  0.1390  0.1028
 8555W        W24629  11.239   6.515   5.231 -0.0240  0.2358 -0.3876
 8556W        W24630  10.852   2.106   3.905  0.3438  0.0672 -0.0145
 8557W        W24631  10.344   1.007  15.022  0.1726  0.1572 -0.1376
 8558W        W24632  11.818   8.419   5.666  0.3250  0.0794 -0.2705
 8559W        W24633   4.890   3.401   1.249 -0.0471  0.1297 -0.1973
 8560W        W24634  14.796   4.380  15.049  0.1699 -0.1193 -0.0881
 8561W        W24635   0.469   7.581  13.787  0.0455 -0.0570 -0.0108
 8562W        W24636   2.282  12.567   1.109 -0.1396  0.0640 -0.0741
 8563W        W24637   2.037  16.474  12.715  0.0800 -0.2038  0.1220
 8564W        W24638   2.245   7.257  17.094  0.1600 -0.0990 -0.1344
 8565W        W24639   6.392   5.263   1.843  0.0323 -0.1978  0.2481
 8566W        W24640   6.518  12.063   1.756 -0.0043 -0.0606 -0.1045
 8567W        W24641   5.713   8.525  13.722  0.4210 -0.0520  0.0705
 8568W        W24642  12.495  17.031   3.916  0.0677  0.0133  0.0638
 8569W        W24643  11.400   5.529   2.931  0.2808 -0.2643  0.2036
 8570W        W24644   7.673  12.422  17.035 -0.1424  0.1445 -0.2731
 8571W        W24645  12.120   9.686   4.283 -0.0825 -0.1233  0.1604
 8572W        W24646   3.445   2.130   3.010 -0.0901  0.0844  0.2365
 8573W        W24647   6.898   4.340   4.205  0.1144  0.2948  0.3085
 8574W        W24648   3.928  12.096  14.157  0.0926  0.2841 -0.0902
 8575W        W24649   2.582  14.346  14.243  0.2886  0.1716  0.0977
 8576W        W24650   3.394   7.074  13.048 -0.2678 -0.1065 -0.1870
 8577W        W24651   0.449  16.450   0.703 -0.1046  0.0197 -0.3171
 8578W        W24652  10.191   3.259  13.246  0.1554  0.0149 -0.0558
 8579W        W24653   4.853   6.214  14.048 -0.0258 -0.0135 -0.0078
 8580W        W24654  10.112   2.913  14.567  0.1649  0.0095  0.2442
 8581W        W24655  14.611  10.702  16.829 -0.0129 -0.0392 -0.2333
 8582W        W24656  15.570   4.899   5.056 -0.0615 -0.1000 -0.2307
 8583W        W24657   5.181  11.541  14.551 -0.4474 -0.1431  0.0323
 8584W        W24658   4.695  15.159  13.210  0.0632 -0.0178  0.0081
 8585W        W24659  14.205  13.552  12.347  0.1851  0.1375 -0.0599
 8586W        W24660   9.550  15.654  13.197 -0.0853 -0.3392 -0.3633
 8587W        W24661  10.663  14.831   0.139  0.2510 -0.0579 -0.2532
 8588W        W24662   1.437   5.701  13.227  0.0033  0.4662  0.0326
 8589W        W24663   0.179  16.554   2.877  0.0891 -0.0355 -0.1867
 8590W        W24664  10.255   4.132   1.428 -0.1142  0.0389  0.1069
 8591W        W24665   1.283  17.108   0.118 -0.2309  0.0287 -0.0750
 8592W        W24666  17.380   5.720   0.021 -0.2194  0.1024  0.0156
 8593W        W24667   2.597   7.854  11.776  0.3590 -0.1713 -0.1302
 8594W        W24668  17.269   7.028   2.639  0.0060  0.1761  0.0504
 8595W        W24669   3.143   4.683  14.390  0.0218 -0.3071  0.1668
 8596W        W24670   4.887  16.035  16.880 -0.4567  0.1007  0.2205
 8597W        W24671  13.821   6.045   1.567  0.1342 -0.2842  0.0484
 8598W        W24672  12.238  11.450  13.431 -0.0485 -0.0009 -0.0461
 8599W        W24673  12.338   0.331   3.886 -0.0677  0.3039 -0.0825
 8600W        W24674  13.353   4.890   2.997  0.3343 -0.1318  0.3146
 8601W        W24675   9.013   8.002  12.785  0.1981  0.1675  0.1648
 8602W        W24676   5.711   2.890  14.069  0.0775 -0.3263 -0.0696
 8603W        W24677  10.957   2.413  16.635 -0.1607  0.0380 -0.5157
 8604W        W24678   1.176  14.975  15.596  0.0978  0.2402 -0.0790
 8605W        W24679  10.006   6.574   2.181  0.1458  0.1347 -0.0343
 8606W        W24680  14.178   4.830  15.672 -0.0255  0.0900  0.0297
 8607W        W24681   8.818   2.430  15.398  0.0127  0.0343 -0.0749
 8608W        W24682   5.281  16.365   1.183  0.2379 -0.0304 -0.0949
 8609W        W24683   5.836  11.539   4.779 -0.2492 -0.1660  0.0210
 8610W        W24684   3.471   6.429   2.427 -0.0030 -0.4531 -0.0681
 8611W        W24685   7.762  11.735   4.348  0.1400  0.4743 -0.0809
 8612W        W24686   0.404   1.371  16.245 -0.1396  0.0997  0.0445
 8613W        W24687   2.671   5.469  15.488 -0.0178  0.1345  0.0230
 8614W        W24688   8.762   6.582   0.823  0.0373 -0.2621  0.0949
 8615W        W24689  14.718   8.902  15.156 -0.0801  0.1477  0.1228
 8616W        W24690  16.646   8.791  10.694 -0.0086 -0.0448  0.4242
 8617W        W24691   5.216  16.541   3.625 -0.1930  0.0105 -0.1691
 8618W        W24692   5.887   8.477   3.178  0.0127  0.1661  0.0806
 8619W        W24693   4.771  12.189  16.845 -0.1943 -0.0157  0.3163
 8620W        W24694  17.062   4.168   1.441 -0.0303  0.0391 -0.1124
 8621W        W24695  10.260   5.506  15.663  0.0829  0.0950  0.0582
 8622W        W24696  13.952  16.278   5.529 -0.2574  0.1519 -0.0772
 8623W        W24697   4.213  11.075   4.671 -0.1537  0.0103 -0.1673
 8624W        W24698   1.718   0.622   3.326 -0.1320  0.3746  0.0893
 8625W        W24699  15.923  11.457  16.109 -0.0203  0.0815 -0.2928
 8626W        W24700  10.202  12.055  17.101  0.1364 -0.1811  0.3043
 8627W        W24701   8.996  10.984   2.861  0.0313  0.0602 -0.3654
 8628W        W24702   5.167   5.523   1.742  0.1608 -0.0590 -0.0247
 8629W        W24703  13.899   9.489  11.620  0.0071 -0.3241 -0.2337
 8630W        W24704   3.304  10.949  17.044  0.2143 -0.3013  0.1282
 8631W        W24705  14.091   7.470  17.028 -0.0341 -0.1414 -0.0286
 8632W        W24706   8.536   5.893   5.816 -0.0331  0.1089  0.1177
 8633W        W24707  10.028   5.159  13.868  0.0042  0.1257  0.0466
 8634W        W24708   8.559   2.965  13.534  0.0930  0.1716  0.2416
 8635W        W24709   2.516  11.731  12.718  0.5572 -0.3871  0.1077
 8636W        W24710   9.966   7.387  15.053  0.0375 -0.0135 -0.0721
 8637W        W24711   8.496   7.873   2.081  0.0008  0.2804  0.1475
 8638W        W24712   0.951  11.308   2.696  0.3854 -0.0966 -0.1709
 8639W        W24713   0.830   0.971  16.104  0.1744 -0.1176 -0.2531
 8640W        W24714  12.484   5.257   0.408  0.0446  0.0281 -0.2193
 8641W        W24715   7.372  16.531   0.916  0.1099  0.3096  0.2592
 8642W        W24716  14.920   6.976  13.100  0.0612  0.0702  0.0113
 8643W        W24717   2.414   1.877  16.423  0.0097  0.2292  0.1274
 8644W        W24718   3.614  11.789   5.919 -0.1043  0.3066  0.2110
 8645W        W24719  16.441   9.217  16.488 -0.0711  0.7519  0.0733
 8646W        W24720   8.614   0.315   0.432  0.0499 -0.0655 -0.0495
 8647W        W24721   4.041  10.370  15.875  0.0663 -0.1142 -0.0029
 8648W        W24722   4.083  13.785  13.738  0.3221  0.0016  0.0889
 8649W        W24723   5.092  16.833  16.470 -0.0214  0.0111  0.0150
 8650W        W24724   4.739   9.921  12.846 -0.2640 -0.1062 -0.1629
 8651W        W24725   6.205   0.154  16.870 -0.1640 -0.2553  0.1025
 8652W        W24726   0.773  15.833   4.172  0.1570 -0.2917 -0.0699
 8653W        W24727   7.713   7.119  15.343 -0.0104 -0.1267  0.0885
 8654W        W24728   8.830  14.996  16.034  0.0150  0.4402 -0.1074
 8655W        W24729   0.065  11.261  13.952 -0.0533  0.1250 -0.2445
 8656W        W24730   4.087   8.492   4.698  0.0816  0.1329 -0.1232
 8657W        W24731   3.638   1.434   5.335  0.3995 -0.0095  0.2368
 8658W        W24732   7.882   0.018  12.891  0.1545 -0.1246 -0.0923
 8659W        W24733   6.565   0.684   5.057 -0.3059 -0.0513 -0.0531
 8660W        W24734   8.998  10.653  16.745  0.0165 -0.2575  0.0841
 8661W        W24735   2.779  15.694   1.478  0.1061  0.1289 -0.0830
 8662W        W24736  16.280   5.729  11.642 -0.0711  0.0858 -0.1849
 8663W        W24737   8.509  14.283  12.421  0.3044 -0.2526 -0.3171
 8664W        W24738   6.589   7.533  16.458  0.2383  0.0430  0.1478
 8665W        W24739  15.004   3.575   5.235 -0.0441  0.0983 -0.2289
 8666W        W24740   4.486  13.445   5.786 -0.0958 -0.0803  0.2662
 8667W        W24741   3.257   3.795   1.915  0.1131  0.0741 -0.0074
 8668W        W24742   6.340   7.617  15.805 -0.1487 -0.2065  0.0288
 8669W        W24743  12.146   6.442   3.900 -0.0693  0.1244 -0.0350
 8670W        W24744   5.582  11.962   2.000  0.1083  0.1786  0.0933
 8671W        W24745  13.887   0.146   2.574 -0.1611  0.1552  0.0055
 8672W        W24746   9.229   5.432   3.478 -0.5977 -0.0918 -0.0118
 8673W        W24747   1.524  15.902   1.099 -0.0482  0.0724  0.1188
 8674W        W24748   0.875  14.588  15.401  0.1376  0.1246  0.1183
 8675W        W24749   8.222   3.336   0.466 -0.0037  0.0229 -0.5711
 8676W        W24750  10.360  13.904   4.070 -0.2017 -0.2698 -0.1363
 8677W        W24751   6.379  10.528   5.519 -0.1418 -0.0658  0.0987
 8678W        W24752   2.799  17.562  14.157  0.3735 -0.3450 -0.0966
 8679W        W24753  11.486  13.326  15.137  0.0715  0.0271 -0.2253
 8680W        W24754   5.391  12.330   2.923 -0.1476  0.3725  0.0982
 8681W        W24755   2.609  13.794   4.428  0.1398  0.0999 -0.2148
 8682W        W24756   5.322   3.158  17.017  0.1290 -0.0555  0.1755
 8683W        W24757   1.132   0.976   5.240 -0.0073  0.1155 -0.0216
 8684W        W24758   5.397  16.073   2.432 -0.0582 -0.1378 -0.3156
 8685W        W24759  12.800  13.998  15.603 -0.0671 -0.1985 -0.1605
 8686W        W24760  16.272   8.025   3.395  0.0244 -0.1167 -0.1152
 8687W        W24761  10.982   1.335   1.331  0.0439 -0.2848 -0.0349
 8688W        W24762   3.967   1.489   5.803  0.2775  0.0843  0.1012
 8689W        W24763   3.848   2.352   3.315  0.1070  0.1654 -0.0199
 8690W        W24764  12.294   9.154   0.172 -0.0089 -0.0348 -0.1133
 8691W        W24765  12.866   9.603   0.551 -0.2957  0.0562 -0.1201
 8692W        W24766  16.345  14.568   4.226  0.3637  0.1155  0.0193
 8693W        W24767  12.521   0.882  14.394  0.2280 -0.1107  0.2301
 8694W        W24768   4.783  17.719  16.267 -0.0410 -0.0762  0.1784
 8695W        W24769  11.283  11.205  17.140  0.2599  0.1027 -0.1265
 8696W        W24770   5.321  16.746  11.812  0.1492 -0.2955 -0.2566
 8697W        W24771  16.966  16.192   1.767  0.1567  0.0872  0.0311
 8698W        W24772   7.246   2.962  13.144 -0.2517 -0.3244  0.1843
 8699W        W24773  13.303   9.572  16.266 -0.0923 -0.3247  0.2287
 8700W        W24774   9.284  11.827   2.132 -0.1200  0.1010  0.0159
 8701W        W24775   6.223   1.783  16.037  0.0622  0.0693  0.0657
 8702W        W24776   8.084   0.742  15.465 -0.1225  0.0335 -0.3882
 8703W        W24777  14.465  13.039   4.787 -0.2053  0.0792  0.0751
 8704W        W24778   6.043   1.737  12.292  0.0991  0.1893 -0.0151
 8705W        W24779   6.272   8.773  10.969  0.0155 -0.2058  0.1556
 8706W        W24780  10.773  10.486   4.694  0.1702  0.1646  0.1166
 8707W        W24781   5.421  13.531  14.204 -0.0299 -0.3082 -0.2210
 8708W        W24782   0.325   9.522   4.284 -0.0423  0.1893  0.1168
 8709W        W24783  12.272  16.863  13.141 -0.1756 -0.0068  0.2297
 8710W        W24784   4.462  12.049   4.527  0.1448 -0.0515  0.2027
 8711W        W24785   0.467   4.151   3.173  0.2975  0.0427  0.0659
 8712W        W24786   4.653  11.620  12.197 -0.1575 -0.0488  0.0239
 8713W        W24787   3.934  13.177   0.693  0.1599 -0.0762 -0.1256
 8714W        W24788  14.104  14.253  16.480  0.1214 -0.0859  0.0029
 8715W        W24789   8.627   8.891   1.452  0.0592 -0.1235 -0.0341
 8716W        W24790   3.703  12.181   5.588  0.2520  0.2231  0.1593
 8717W        W24791   3.626  12.672   5.828  0.2128  0.1455  0.2534
 8718W        W24792  16.086   5.101  17.089  0.0183 -0.1693  0.2073
 8719W        W24793   0.794  11.327   0.301 -0.3974 -0.1618  0.3791
 8720W        W24794   3.276  10.680   3.953 -0.0328 -0.0981  0.1039
 8721W        W24795  12.759  13.968   2.992  0.1145 -0.3685  0.2020
 8722W        W24796  10.702  10.304   3.857 -0.0116  0.0967 -0.0702
 8723W        W24797  14.173  12.946   0.713  0.0847 -0.0645 -0.1394
 8724W        W24798  14.558   0.001  15.481 -0.1388 -0.1836 -0.0745
 8725W        W24799  11.636   6.948  16.554  0.3734 -0.0114 -0.0331
 8726W        W24800  17.058   4.476   3.631 -0.1928  0.1956  0.0155
 8727W        W24801  16.021  17.701  14.555  0.1475 -0.1346  0.0208
 8728W        W24802  14.777   1.812   2.593  0.0871 -0.3009 -0.0084
 8729W        W24803  16.443  10.140  14.801  0.0543  0.0663  0.1407
 8730W        W24804   6.279   5.854   0.875  0.0099  0.0947 -0.1577
 8731W        W24805   8.088  14.534   3.590 -0.2151  0.0199 -0.2560
 8732W        W24806  12.802   5.188   1.936  0.0181 -0.1387 -0.0568
 8733W        W24807  17.095  16.718  15.349 -0.2155  0.2041 -0.0450
 8734W        W24808   2.356   2.225   0.444 -0.1192 -0.2470 -0.2488
 8735W        W24809  14.835  17.477   4.952  0.0260 -0.0834  0.1631
 8736W        W24810  15.494  15.459  15.876 -0.1232  0.1194  0.1595
 8737W        W24811   5.206  14.885   4.741 -0.1883 -0.2298 -0.0462
 8738W        W24812  10.766  16.188   5.642  0.1554  0.1142  0.0976
 8739W        W24813   8.521   9.510   4.980 -0.0804 -0.3710  0.0327
 8740W        W24814  15.044  15.983   4.143 -0.3333  0.1080 -0.1102
 8741W        W24815  13.651  15.706   6.584  0.0245  0.2969 -0.3276
 8742W        W24816  15.154   9.024  15.903  0.0600 -0.2458 -0.0678
 8743W        W24817   7.760  12.772  15.867 -0.0946 -0.1357  0.1349
 8744W        W24818   2.708  14.271   1.374  0.1647  0.0349  0.0412
 8745W        W24819   9.268   9.132   0.766 -0.2588 -0.0868  0.0455
 8746W        W24820  17.292   2.557  13.042 -0.4311  0.3309 -0.0334
 8747W        W24821   7.711  15.681  14.045  0.1904  0.2496  0.0475
 8748W        W24822  16.690   7.768   4.801 -0.0776  0.0877  0.3764
 8749W        W24823  14.512   7.694  13.163  0.1402  0.3962 -0.2830
 8750W        W24824   3.266  10.664  14.653  0.2409 -0.0565 -0.0729
 8751W        W24825  10.092  15.421   3.565 -0.2645  0.2669 -0.0016
 8752W        W24826  16.647   8.986  12.250 -0.1195 -0.0400 -0.1250
 8753W        W24827  15.514   2.316  14.469  0.0790  0.0826  0.0328
 8754W        W24828  15.366   6.901   2.908  0.0555 -0.1500 -0.1740
 8755W        W24829   9.752   5.449  15.720  0.0777 -0.2435  0.4139
 8756W        W24830   1.820  15.210   4.094  0.2563 -0.0479  0.0338
 8757W        W24831  15.944  12.133  13.633 -0.0633 -0.3275  0.0685
 8758W        W24832  16.710  14.884   4.229 -0.1297  0.1141 -0.0838
 8759W        W24833   0.818   7.089   3.332  0.0404 -0.1634  0.3972
 8760W        W24834  14.160   1.887   5.591 -0.1467  0.0782 -0.1458
 8761W        W24835   4.683   3.010   5.030  0.2897  0.0886 -0.1489
 8762W        W24836   0.099   9.557   2.376  0.2200  0.0094 -0.0193
 8763W        W24837  12.702  10.163  15.299 -0.5100  0.0761 -0.2854
 8764W        W24838   2.288  16.589  16.109  0.0628  0.0553 -0.4363
 8765W        W24839   9.420   5.236   4.205 -0.0800 -0.0575 -0.1163
 8766W        W24840  10.863   9.813   2.190  0.2185 -0.3003 -0.0669
 8767W        W24841   9.688  14.436  15.520 -0.1049 -0.0134  0.2030
 8768W        W24842  15.416  12.554  16.973  0.2190  0.2379  0.1374
 8769W        W24843   3.725   0.615   4.104  0.0099 -0.1344 -0.0632
 8770W        W24844  15.657  11.351   3.409  0.2755  0.1000 -0.1484
 8771W        W24845   6.015   3.287   0.495 -0.1160 -0.1654 -0.0335
 8772W        W24846   1.505  10.959  17.085 -0.2398  0.1169 -0.1418
 8773W        W24847   3.369  12.826   3.599  0.1114  0.1406 -0.0539
 8774W        W24848  16.995   1.649   2.923  0.3467  0.0730 -0.0328
 8775W        W24849   1.947   9.826  14.673 -0.2108  0.1347  0.0020
 8776W        W24850   4.034   0.909  16.129 -0.2789 -0.0263  0.1270
 8777W        W24851  11.797   2.080  14.544 -0.2961  0.2649 -0.3268
 8778W        W24852   8.668   2.361  16.784 -0.2362  0.1097  0.2872
 8779W        W24853  14.150   3.337  16.782 -0.3013  0.3683  0.3483
 8780W        W24854  16.460   5.047  12.897  0.1384  0.3814 -0.0483
 8781W        W24855  12.878   0.629  16.992 -0.0353  0.1869 -0.2470
 8782W        W24856  10.903   4.650  12.175 -0.0840 -0.0558 -0.2404
 8783W        W24857  13.264   1.581   2.665 -0.0735 -0.2334  0.1899
 8784W        W24858   6.705   3.659  13.509 -0.1041  0.1564 -0.0699
 8785W        W24859  10.659   0.161  16.005 -0.0432 -0.2147 -0.0055
 8786W        W24860  10.129  16.776  16.517 -0.0422 -0.2763  0.1250
 8787W        W24861  15.108   2.023  15.048 -0.0332  0.1430 -0.2151
 8788W        W24862   4.683  12.218  12.526  0.2545 -0.0997  0.0586
 8789W        W24863   1.240  14.246  14.808  0.2279 -0.0543 -0.0590
 8790W        W24864   3.656   1.925   2.088  0.3354 -0.2792 -0.1229
 8791W        W24865   3.901   7.066   3.120 -0.0924  0.0459 -0.1396
 8792W        W24866   1.931  13.876   4.062 -0.3250 -0.0350 -0.0226
 8793W        W24867  14.316  14.817  13.502  0.1168  0.0192  0.2227
 8794W        W24868   2.897  13.960   1.721  0.1655 -0.0543 -0.2581
 8795W        W24869  14.755  15.740   1.687  0.2054  0.2868  0.1188
 8796W        W24870  11.843   5.164   0.624  0.0362  0.0003  0.0284
 8797W        W24871   0.928   0.720  13.806 -0.5816  0.0575  0.0625
 8798W        W24872  16.247  11.086  15.160 -0.2061  0.1351  0.0857
 8799W        W24873   8.637  13.741  16.217  0.1123  0.6714  0.2176
 8800W        W24874  16.318   6.646   3.214  0.0777 -0.1127  0.2041
 8801W        W24875   8.299  11.624   2.803  0.2349  0.4068 -0.0358
 8802W        W24876  17.392   3.139  10.903  0.4832 -0.0642 -0.2511
 8803W        W24877  16.162  12.065   4.989 -0.1340  0.0835  0.2251
 8804W        W24878   4.291  15.206  11.869 -0.2264  0.1293  0.1495
 8805W        W24879   0.041   6.246   4.975 -0.0788 -0.3193  0.0815
 8806W        W24880   9.254  10.154  12.926  0.2194  0.2655  0.1975
 8807W        W24881  14.201   6.348  16.474 -0.2575  0.0754 -0.0391
 8808W        W24882   8.415   9.546  16.654  0.1375 -0.2294  0.1070
 8809W        W24883   1.689  13.919   4.832 -0.0893  0.0457  0.0838
 8810W        W24884   9.692   9.821   3.649 -0.1341  0.3164  0.2002
 8811W        W24885   7.256   2.926   5.491 -0.2981 -0.0303 -0.0915
 8812W        W24886   5.661   9.248   1.961 -0.0650  0.1157 -0.1198
 8813W        W24887  14.645  12.428  14.515 -0.0216 -0.2558 -0.1573
 8814W        W24888   6.042   0.939  11.942 -0.0239 -0.2715  0.1020
 8815W        W24889   1.040   2.223   1.147 -0.1019  0.0784 -0.0472
 8816W        W24890  11.871  13.350   2.344  0.2185 -0.0086  0.0221
 8817W        W24891   9.147  10.913   1.920 -0.1786  0.2796 -0.3398
 8818W        W24892   7.954  15.809  12.095  0.0790 -0.0160  0.0643
 8819W        W24893   9.452  11.659  12.023  0.0696  0.1388 -0.1556
 8820W        W24894  17.303   6.767  12.390  0.3031 -0.1093 -0.1091
 8821W        W24895  12.008  12.630   3.578  0.0828 -0.2069 -0.2209
 8822W        W24896   9.361   7.355  16.219 -0.1425  0.0801 -0.2453
 8823W        W24897   6.640   1.831  13.033  0.4272 -0.1286  0.2506
 8824W        W24898  14.936  16.662  13.135  0.0662 -0.1333  0.3450
 8825W        W24899  12.562   3.164   1.593  0.1063  0.1118 -0.1440
 8826W        W24900   4.714  11.024  12.988  0.3647 -0.1766 -0.0088
 8827W        W24901   7.509  16.151   4.323 -0.2073  0.0069  0.2767
 8828W        W24902   3.337   3.240  12.431  0.2553  0.0813  0.0888
 8829W        W24903  15.481  17.210   1.455 -0.1169  0.0780 -0.1011
 8830W        W24904   3.402  16.298   0.385 -0.2689 -0.0931 -0.0182
 8831W        W24905  17.041  12.876  13.472  0.2652  0.6380  0.1449
 8832W        W24906  14.628   1.300  11.670 -0.1341 -0.1521  0.1496
 8833W        W24907   9.444   1.497  15.863 -0.2253 -0.0789 -0.0077
 8834W        W24908   5.779   6.857   0.120 -0.1799 -0.2392 -0.4214
 8835W        W24909   5.972  15.539   2.708 -0.1062 -0.3223  0.2217
 8836W        W24910  10.590  15.486   1.668 -0.0186  0.1508 -0.1209
 8837W        W24911  15.833   1.714  12.413  0.2671  0.0259  0.1310
 8838W        W24912   0.967   7.884   4.687 -0.2471  0.0927  0.0390
 8839W        W24913  11.244   8.610   4.739 -0.2696  0.0018  0.0448
 8840W        W24914  15.546   7.757  14.278 -0.0705  0.0132 -0.0277
 8841W        W24915  17.200   8.277   5.955 -0.1466  0.1058 -0.1480
 8842W        W24916  15.369   0.558  15.218  0.3874 -0.1430  0.1336
 8843W        W24917   9.488   9.372  13.864 -0.1606  0.1070 -0.2302
 8844W        W24918   4.951   9.655  14.783  0.2852 -0.1097 -0.0713
 8845W        W24919  17.179   8.891   2.333  0.0061  0.1128  0.1345
 8846W        W24920   3.017   7.704   5.667  0.0266 -0.2015 -0.1163
 8847W        W24921  15.827   2.798   0.507 -0.0937  0.2952  0.2840
 8848W        W24922  10.641   5.161   2.886 -0.2052 -0.0198 -0.2674
 8849W        W24923   7.614   1.956   3.481 -0.1989  0.0064 -0.0760
 8850W        W24924   1.204   3.929   4.186  0.3133  0.1193 -0.1609
 8851W        W24925   8.782  14.135  14.448 -0.0728 -0.0815 -0.0318
 8852W        W24926   6.856   6.911  12.647 -0.1211  0.1170 -0.0115
 8853W        W24927  15.524   1.024  13.103 -0.1796  0.2377  0.3628
 8854W        W24928  12.085   0.648  10.760  0.1186  0.3865  0.0185
 8855W        W24929   6.991   3.718  14.506 -0.1304  0.2074 -0.1524
 8856W        W24930   0.396  13.584  12.778 -0.2005 -0.0083  0.0289
 8857W        W24931  15.016  16.787   0.719 -0.1038 -0.0693  0.2035
 8858W        W24932   7.748   1.505   1.558  0.1144  0.1910 -0.0549
 8859W        W24933   1.985   8.931   3.279 -0.0254  0.2224  0.1562
 8860W        W24934   6.713  13.421  11.925 -0.1188 -0.0983  0.5964
 8861W        W24935  13.666   6.019  11.530 -0.0286  0.2436 -0.3906
 8862W        W24936  14.689   7.703   1.908  0.0790 -0.1380  0.0642
 8863W        W24937   4.139  11.072   1.971  0.1756 -0.0031 -0.1036
 8864W        W24938   1.515  16.330   2.093  0.0658 -0.0309  0.0347
 8865W        W24939   1.414   4.279  14.979 -0.1344 -0.1850  0.2909
 8866W        W24940  12.663   8.978  14.123 -0.0535 -0.1657 -0.2054
 8867W        W24941  12.078   0.320  13.076 -0.1103 -0.2177 -0.0599
 8868W        W24942  17.395  12.449   6.352 -0.3238  0.0926 -0.3206
 8869W        W24943   2.398  11.746   1.772 -0.0044 -0.4258 -0.1201
 8870W        W24944  14.958  11.432   5.115  0.4877  0.2147 -0.1116
 8871W        W24945  14.331  15.419  16.736 -0.2290 -0.3170  0.2355
 8872W        W24946  13.108   1.240  16.732 -0.0399  0.1112 -0.1521
 8873W        W24947   3.090   0.984   1.818 -0.3219 -0.0309  0.1258
 8874W        W24948  10.757  17.477  12.471  0.1973  0.1318 -0.0895
 8875W        W24949  16.588   3.147  12.042  0.2405 -0.1112 -0.2154
 8876W        W24950   5.945   0.844  16.389 -0.2933  0.0141  0.1044
 8877W        W24951   0.763  16.311   3.975  0.3951 -0.2696 -0.2273
 8878W        W24952   0.371  12.474  14.037 -0.4547 -0.1682  0.1832
 8879W        W24953   0.839  16.149  17.094  0.4317 -0.0599  0.1682
 8880W        W24954   7.934  12.231   1.517 -0.1461 -0.4108  0.1109
 8881W        W24955  14.103  15.288   5.801  0.1726  0.0488  0.0236
 8882W        W24956   2.219   1.024   0.867 -0.0914 -0.0142  0.3411
 8883W        W24957  17.724   4.333   4.063  0.0399 -0.0981  0.1679
 8884W        W24958  16.499  15.284  12.749  0.1730 -0.0272 -0.0514
 8885W        W24959  14.430   1.060  12.432  0.0515  0.0459  0.0282
 8886W        W24960  16.722   5.314   0.570 -0.0157 -0.2607 -0.1937
 8887W        W24961  14.760  14.164   1.694 -0.0638 -0.1108 -0.1744
 8888W        W24962  12.274   5.159  13.822 -0.1323 -0.1260 -0.0902
 8889W        W24963  14.404   0.580  12.431 -0.1175  0.0976 -0.3559
 8890W        W24964  11.319   9.272  13.232 -0.2815 -0.0485  0.0147
 8891W        W24965   2.034   7.375   2.511 -0.1265  0.0053 -0.1319
 8892W        W24966   6.639  17.495   3.698  0.4339  0.1405  0.0207
 8893W        W24967  17.161   1.911  12.323 -0.0105  0.0031 -0.0482
 8894W        W24968  14.757   1.127  14.236  0.1279 -0.0599 -0.1238
 8895W        W24969   0.531   5.761   5.831 -0.3407  0.2285 -0.3244
 8896W        W24970  15.109   1.209   3.721 -0.0859 -0.0344  0.3994
 8897W        W24971   1.529   3.002  14.492  0.1867 -0.1186 -0.0824
 8898W        W24972   1.278  16.785  14.177  0.2254  0.1537 -0.3496
 8899W        W24973   5.166   9.223  12.092  0.1535 -0.0336 -0.0807
 8900W        W24974   4.501   4.938   1.469 -0.0456  0.3306  0.3610
 8901W        W24975  17.722   4.889   0.941  0.0042 -0.1792 -0.3014
 8902W        W24976  15.894   8.116  16.957 -0.0118 -0.1163 -0.2460
 8903W        W24977  16.767   0.957   2.495  0.4429  0.0233  0.2740
 8904W        W24978  12.577  10.328   4.883  0.0076  0.1422 -0.0724
 8905W        W24979   3.233  14.960   1.568 -0.0954  0.0890  0.0368
 8906W        W24980  13.480  11.929   3.192  0.3286 -0.1759 -0.1274
 8907W        W24981   4.750  10.722  13.468 -0.1070  0.1632  0.1471
 8908W        W24982   2.893   0.984   5.066  0.1681  0.0746 -0.0863
 8909W        W24983  15.162  14.112  11.617  0.0714  0.1277 -0.1268
 8910W        W24984  11.570   2.805   3.299  0.0848  0.2470 -0.0163
 8911W        W24985   2.251  11.401  12.480  0.1261  0.3806 -0.2633
 8912W        W24986  12.177  13.607  13.012 -0.1133  0.2143 -0.0816
 8913W        W24987  10.512   5.709  12.976  0.0565 -0.0908 -0.1565
 8914W        W24988   4.567   1.586  11.999 -0.0030  0.1176  0.0307
 8915W        W24989  15.937   5.515  16.749 -0.2210  0.3109  0.0083
 8916W        W24990  13.940  16.386  13.537 -0.0844  0.2239 -0.0995
 8917W        W24991   0.064   6.747   0.207 -0.0460 -0.2299  0.0997
 8918W        W24992   1.981  12.082  17.085 -0.3798  0.2333 -0.0385
 8919W        W24993   2.637   3.632  16.944  0.2473 -0.0826  0.1277
 8920W        W24994   1.981   5.113   2.254 -0.0081  0.2042 -0.0137
 8921W        W24995  17.548  11.072   4.329  0.3032  0.0757 -0.1129
 8922W        W24996  15.071   5.928   3.230 -0.2255  0.1461  0.0597
 8923W        W24997   1.246  12.286  15.763 -0.3097  0.1025  0.1131
 8924W        W24998   3.362   7.062   3.025 -0.2589 -0.3121  0.3505
 8925W        W24999  13.703  15.934  12.734  0.0121  0.1391 -0.1892
 8926W        W25000   5.302   1.397  15.605 -0.0461  0.1086 -0.0341
 8927W        W25001  17.416  15.118  12.408  0.1851 -0.1660  0.0929
 8928W        W25002   5.554  17.541  16.317 -0.1698  0.1962 -0.0368
 8929W        W25003  14.709   7.896   3.430  0.1379  0.0311  0.2728
 8930W        W25004  16.916   2.091   0.480  0.1378 -0.0293  0.1749
 8931W        W25005   5.149  16.341   2.146  0.0066  0.2350  0.0507
 8932W        W25006  16.490  15.101  14.879 -0.0640 -0.1655 -0.3920
 8933W        W25007   3.157   9.830  11.894  0.0341  0.3064  0.1874
 8934W        W25008  10.390  15.613   3.252 -0.1063 -0.0986  0.3071
 8935W        W25009  17.025   1.043  14.382  0.0376  0.0629 -0.0767
 8936W        W25010   4.943  11.662   4.965 -0.0477 -0.0337 -0.3084
 8937W        W25011  16.101   6.598  16.332 -0.1092  0.2592 -0.1004
 8938W        W25012  13.516   1.686   4.835 -0.0304 -0.2349 -0.0463
 8939W        W25013   8.700  13.308  16.540 -0.1270 -0.0814  0.2300
 8940W        W25014  15.770   0.856   3.791  0.1117 -0.2155  0.0616
 8941W        W25015  14.943   1.391   2.388  0.2285 -0.2403 -0.3178
 8942W        W25016   5.223   1.287   5.708 -0.0400  0.2772 -0.0990
 8943W        W25017  12.404   7.554   5.016  0.0269 -0.2163 -0.3554
 8944W        W25018   8.766   9.451   3.522  0.1042 -0.2326  0.2763
 8945W        W25019  15.486   4.161   1.915 -0.0355  0.0540  0.3554
 8946W        W25020   5.324   7.559  15.366 -0.3088  0.5191  0.0775
 8947W        W25021  13.036  13.558  16.703  0.1877 -0.0909  0.5160
 8948W        W25022   7.618   8.882   4.041  0.1675 -0.2024 -0.1508
 8949W        W25023   2.351   9.109   1.017 -0.3022 -0.2773  0.2328
 8950W        W25024  10.733   9.677  12.257 -0.2760 -0.0392 -0.1782
 8951W        W25025  13.206   2.365   3.260 -0.0814  0.0302  0.0187
 8952W        W25026  16.459  12.947  17.092 -0.1617  0.0532  0.0497
 8953W        W25027   4.016   2.200   0.582 -0.0359  0.0216 -0.1091
 8954W        W25028   4.210   1.962   2.545  0.0092  0.1838 -0.0403
 8955W        W25029  14.112   9.205   5.360 -0.2073 -0.0835 -0.0829
 8956W        W25030   9.373   0.132  15.410  0.1078 -0.1160 -0.1521
 8957W        W25031   1.964   4.402  13.796 -0.0969  0.0056  0.3347
 8958W        W25032  13.475   8.289   1.088  0.0123 -0.0604 -0.2915
 8959W        W25033  11.889  12.649  14.880 -0.0041 -0.1909 -0.2097
 8960W        W25034   1.310   2.959  15.780 -0.4133  0.0684  0.1024
 8961W        W25035   0.012   3.770  11.946  0.0682  0.3442 -0.1139
 8962W        W25036  11.795   1.419  17.148 -0.3248 -0.0701 -0.0688
 8963W        W25037  12.134   4.515   3.270  0.0361  0.1846  0.0093
 8964W        W25038   5.094   6.393  11.832 -0.1973  0.1131 -0.0309
 8965W        W25039   2.389   4.131   4.076  0.1193 -0.1077  0.0781
 8966W        W25040   4.848  12.043   5.257 -0.0820 -0.0969  0.1886
 8967W        W25041   4.987   9.211  11.636  0.1694  0.1611 -0.4289
 8968W        W25042  12.042   7.430   0.525 -0.1990  0.0098  0.1737
 8969W        W25043  13.437   5.491  12.311  0.3730  0.3260 -0.0268
 8970W        W25044  16.920   9.806   3.122  0.0890  0.0800  0.0150
 8971W        W25045  14.513   1.460  16.283  0.2590  0.1166 -0.0342
 8972W        W25046   5.944   0.285  14.330 -0.1764 -0.1841 -0.0243
 8973W        W25047   1.873   3.374  13.302 -0.0033  0.2968  0.4201
 8974W        W25048  16.957  10.171   1.831  0.3476 -0.1874  0.2159
 8975W        W25049   8.260  13.121  14.210 -0.1061  0.3993 -0.1191
 8976W        W25050  15.108   9.514   2.652 -0.0170  0.1671  0.2888
 8977W        W25051   9.656  17.014  13.723 -0.1858 -0.0478  0.0644
 8978W        W25052  17.205  14.212  15.468 -0.1299  0.2939  0.1347
 8979W        W25053   6.811  15.516  15.019  0.1636 -0.0331 -0.2503
 8980W        W25054  15.875  14.785   4.170  0.1570  0.1416 -0.0335
 8981W        W25055  13.706   3.697  12.194 -0.0486 -0.0068 -0.2396
 8982W        W25056   4.692   6.224   4.996  0.0246  0.0052  0.1196
 8983W        W25057   9.734   4.833   2.974 -0.1508 -0.2990  0.2232
 8984W        W25058  15.064   3.660  16.168  0.0533  0.2087  0.0875
 8985W        W25059   8.489  10.586   4.460 -0.2300 -0.1432 -0.1359
 8986W        W25060  11.966   9.543  17.093 -0.0630 -0.0507  0.0942
 8987W        W25061   2.510  12.430  15.563  0.0288  0.2212  0.0168
 8988W        W25062  15.181  13.771  13.402  0.1861  0.1603  0.2197
 8989W        W25063  11.333   1.784  13.881  0.0678  0.1063  0.1133
 8990W        W25064  11.671  17.646   0.537  0.1188  0.3974  0.3547
 8991W        W25065   1.409   1.083  12.973  0.1053 -0.2866  0.2251
 8992W        W25066   5.066   1.698   2.877  0.0605  0.0195 -0.0642
 8993W        W25067   2.774   5.180   2.178 -0.0608  0.1724 -0.0633
 8994W        W25068  13.139  10.000  15.571 -0.0457  0.0731  0.0384
 8995W        W25069   4.177   9.449   2.399  0.2493  0.1645  0.2084
 8996W        W25070   5.931   8.539  16.669  0.0896  0.0433  0.0472
 8997W        W25071   0.865   7.546  16.830 -0.0855  0.0529  0.0640
 8998W        W25072  11.667   2.339   1.812  0.0500 -0.0695  0.0439
 8999W        W25073  10.391  15.463  16.801 -0.2765 -0.0250  0.0723
 9000W        W25074   8.094  17.330   6.494 -0.2491  0.2035 -0.1882
 9001W        W25075  14.166   3.898   0.640 -0.1463 -0.2121 -0.0287
 9002W        W25076   2.265   0.132  11.461 -0.0420 -0.1252  0.0209
 9003W        W25077   4.147  10.485   3.980  0.0264 -0.1495  0.3293
 9004W        W25078   8.237  13.922  12.294 -0.0224 -0.0683  0.2521
 9005W        W25079   7.845   7.488   3.558  0.1752  0.0824 -0.2019
 9006W        W25080   1.315  12.639   5.883  0.2239  0.0491 -0.2182
 9007W        W25081   6.526   7.596  13.850  0.0354 -0.1659 -0.0841
 9008W        W25082   6.795   0.949   2.933 -0.0584  0.0798 -0.1723
 9009W        W25083   5.576  10.642  14.433  0.1033 -0.0762 -0.0521
 9010W        W25084  16.602  12.622   5.650  0.1070 -0.0349 -0.0642
 9011W        W25085   6.026  11.198  13.130  0.1614 -0.0223  0.0551
 9012W        W25086   2.517   0.338  12.377  0.0231 -0.0169  0.1895
 9013W        W25087  12.715   1.406  11.872  0.0758 -0.1848 -0.1283
 9014W        W25088   3.641  15.807   5.741  0.2990 -0.2261 -0.3962
 9015W        W25089  13.904   9.333  13.112  0.0081  0.0821 -0.0750
 9016W        W25090   1.258   4.744   0.925  0.1091  0.0959 -0.2495
 9017W        W25091   2.793   1.175  14.070  0.0615 -0.1197 -0.1189
 9018W        W25092   5.093   0.796  12.332  0.0750  0.1463 -0.0815
 9019W        W25093  10.235   1.239   5.005  0.4497 -0.3420  0.0891
 9020W        W25094   0.013   2.803  13.291 -0.3162 -0.0655  0.0644
 9021W        W25095  11.621   8.396   0.333 -0.0033  0.2881 -0.3281
 9022W        W25096  10.079  13.266   5.471  0.1205 -0.5149  0.1997
 9023W        W25097   8.587   1.142  12.128 -0.0833  0.0585 -0.0519
 9024W        W25098   8.237  16.786   3.500  0.2860  0.0129 -0.0913
 9025W        W25099   0.703  10.697   3.496 -0.0311 -0.3328  0.1620
 9026W        W25100  16.577   8.600   1.087 -0.5612 -0.2030 -0.2330
 9027W        W25101   6.250   3.666  16.591  0.0888 -0.0580 -0.3999
 9028W        W25102  10.264   5.675   4.564 -0.2406 -0.4783 -0.2113
 9029W        W25103   8.655   1.880  13.777  0.3647  0.3506  0.1158
 9030W        W25104  13.713   7.690   3.259  0.2218  0.1680  0.1613
 9031W        W25105  14.304   5.375   0.555 -0.0704 -0.0535 -0.0551
 9032W        W25106  16.080  15.712   2.286  0.2841 -0.0794  0.0642
 9033W        W25107  15.913  12.962   5.245 -0.0558 -0.0895 -0.1390
 9034W        W25108   0.393  14.665  15.308  0.3058  0.2591 -0.0124
 9035W        W25109   9.737   3.285   5.341  0.0578  0.0344  0.3044
 9036W        W25110   9.867  11.370   5.949 -0.1900  0.0181  0.3734
 9037W        W25111  17.502   9.046   1.013 -0.0638  0.1639 -0.1460
 9038W        W25112  11.333  11.474   4.658 -0.1141 -0.0997  0.1226
 9039W        W25113  12.035   3.133   5.395  0.3246  0.3112 -0.0513
 9040W        W25114   5.545  15.434  13.151 -0.3468  0.1770 -0.0328
 9041W        W25115   8.682   7.521  14.330  0.0070 -0.2147 -0.0741
 9042W        W25116  14.724   8.046  13.955 -0.0937  0.1406 -0.2695
 9043W        W25117   5.313   0.480   1.698  0.1331 -0.0548  0.0968
 9044W        W25118   7.248  16.666  16.836  0.1914  0.0009  0.0245
 9045W        W25119   7.339   5.527  12.328  0.0137 -0.3475 -0.0160
 9046W        W25120  15.957  17.617  16.336  0.1365 -0.1271 -0.2675
 9047W        W25121  13.697  10.589  15.338  0.4144  0.3730 -0.0827
 9048W        W25122  10.872  13.277  15.609 -0.0256  0.2835 -0.0286
 9049W        W25123  14.215   4.013   0.178  0.0310  0.1768  0.1035
 9050W        W25124  11.480   8.294  12.601  0.1221 -0.1609 -0.0871
 9051W        W25125   2.981   2.882  14.606  0.0991  0.1283  0.3468
 9052W        W25126  10.021   2.201   2.190 -0.0389 -0.3365 -0.1827
 9053W        W25127   1.191   8.832   4.635  0.1112  0.0310 -0.0436
 9054W        W25128   9.662  16.398   4.581 -0.0106 -0.0324  0.1951
 9055W        W25129  12.781  13.459  13.543  0.0239  0.1741  0.1030
 9056W        W25130   0.115  13.275   4.512  0.1255 -0.2738  0.2565
 9057W        W25131  12.305   0.346   1.701  0.3239 -0.0529  0.0278
 9058W        W25132   2.708   4.276   0.903  0.0189  0.1823 -0.0126
 9059W        W25133  12.918  14.790  16.972 -0.3269 -0.0055 -0.4393
 9060W        W25134  17.446   2.251  12.683  0.1765  0.2797  0.1383
 9061W        W25135  12.242   3.726  16.816  0.3157  0.1730  0.1047
 9062W        W25136   9.307  17.646   0.070 -0.0298  0.1053 -0.0023
 9063W        W25137   3.476  15.028  12.549 -0.1658  0.0509  0.2065
 9064W        W25138  17.125  12.762   4.007 -0.0069  0.0267  0.0190
 9065W        W25139   3.242   5.676  14.387 -0.1541  0.1566 -0.0489
 9066W        W25140  10.541   0.121   1.952 -0.0073 -0.1149 -0.2091
 9067W        W25141  16.897  13.226  17.131  0.2064 -0.1851  0.0037
 9068W        W25142   3.954   4.679  15.122  0.1654  0.0737  0.1609
 9069W        W25143  16.868   2.655  11.833  0.2225  0.0582 -0.1313
 9070W        W25144   2.328   6.045   0.120  0.1620  0.1190  0.0753
 9071W        W25145  15.939   3.229   4.812 -0.3041  0.1638  0.0981
 9072W        W25146  10.219   9.555   4.301  0.0998 -0.1089 -0.2214
 9073W        W25147   9.161   9.385  13.453 -0.2758 -0.0466 -0.1228
 9074W        W25148  10.772  14.450  13.037 -0.1398 -0.0509 -0.2054
 9075W        W25149  14.509   7.285   2.265  0.1646  0.3427 -0.4464
 9076W        W25150   4.470  15.957   4.862  0.1077 -0.2008  0.0007
 9077W        W25151   6.624  13.394  13.029 -0.2396  0.1998 -0.0252
 9078W        W25152  14.843  10.197  16.580 -0.2229  0.1466 -0.2011
 9079W        W25153   3.721   7.391  11.910  0.1838  0.0676  0.0257
 9080W        W25154  13.079   7.949   3.152 -0.1382  0.2185 -0.3058
 9081W        W25155  13.335  16.419   5.305  0.1810  0.0758 -0.1615
 9082W        W25156   8.656  16.971  12.520  0.2552  0.0490 -0.0394
 9083W        W25157   9.509  13.501   1.192 -0.1089 -0.0714  0.1024
 9084W        W25158   7.274   6.464   3.353  0.0968  0.3508  0.1058
 9085W        W25159  10.634   7.167  13.922  0.2885 -0.0657  0.0303
 9086W        W25160   4.618  14.210  16.392  0.2769  0.1344  0.0428
 9087W        W25161   5.825   6.041  16.943  0.0157 -0.0868 -0.0786
 9088W        W25162   2.886   7.685   2.500 -0.3032 -0.1680  0.1352
 9089W        W25163   6.912   6.392   1.156  0.1289  0.3399  0.1617
 9090W        W25164  14.271  17.396   3.253 -0.0194  0.2215 -0.0693
 9091W        W25165   7.938   1.460   5.948 -0.1231  0.0663  0.0957
 9092W        W25166   4.551  12.212   5.695 -0.1970 -0.1583  0.0525
 9093W        W25167   7.009  11.711   2.879  0.2355  0.2283 -0.0643
 9094W        W25168   3.616  10.121   1.251  0.1533 -0.1012 -0.1048
 9095W        W25169  16.770   9.781  11.540 -0.2572  0.1388 -0.1393
 9096W        W25170  17.130   7.954   5.554 -0.1638 -0.0649 -0.1019
 9097W        W25171  13.588  10.989   5.146 -0.1122 -0.0293 -0.1729
 9098W        W25172  16.833   8.689   2.103  0.2209 -0.3205 -0.1627
 9099W        W25173  15.960   7.146  15.510  0.0150 -0.0483  0.0216
 9100W        W25174  14.728  15.408   0.892  0.0080  0.0994 -0.3656
 9101W        W25175  15.490  14.366   1.811  0.3392  0.4137 -0.3559
 9102W        W25176  13.179  14.812  14.569  0.1062 -0.0993 -0.3180
 9103W        W25177   4.356   7.777  14.487 -0.0210 -0.1289  0.1016
 9104W        W25178   2.724   8.812  15.820 -0.0541 -0.0166  0.0783
 9105W        W25179  11.253  14.631   5.525 -0.1131  0.0407 -0.0823
 9106W        W25180   8.686  10.474  13.356 -0.1141  0.0630 -0.0611
 9107W        W25181   7.915   7.394   5.326 -0.1171 -0.3178  0.2715
 9108W        W25182  13.302   2.474   6.168  0.1291 -0.1863 -0.1360
 9109W        W25183   1.217  16.974  15.834 -0.0306  0.0706 -0.1190
 9110W        W25184  10.163   9.449  13.666 -0.0245  0.1776  0.1488
 9111W        W25185  13.456   2.998  15.109 -0.2677 -0.2050 -0.0045
 9112W        W25186   1.146   6.185   0.138 -0.2531 -0.1911  0.1079
 9113W        W25187  11.256   3.376   2.805  0.0060 -0.2356  0.1387
 9114W        W25188   4.990   3.847   1.205  0.0153 -0.0375 -0.0683
 9115W        W25189   6.588   6.604  16.001 -0.1153  0.0937  0.2860
 9116W        W25190   2.097  13.018   3.878  0.1803 -0.0804 -0.1123
 9117W        W25191  14.930  13.051   1.525  0.1069  0.2728 -0.0766
 9118W        W25192   9.930   8.540   4.159 -0.0180 -0.0272  0.2912
 9119W        W25193   3.620   1.844   3.368  0.0632 -0.3851 -0.1383
 9120W        W25194   0.998   1.258  13.646  0.0415  0.0633  0.2463
 9121W        W25195   8.729   6.211   3.597  0.1491  0.1251 -0.1912
 9122W        W25196  10.547   5.905   1.082  0.2081 -0.0631 -0.0604
 9123W        W25197  16.298   5.019   3.714  0.2030 -0.0537  0.1011
 9124W        W25198   4.666  10.695   6.241 -0.1031 -0.1063  0.1880
 9125W        W25199  14.115   5.126   5.055  0.1470  0.2348  0.1808
 9126W        W25200  13.386   7.097   0.535 -0.1041 -0.2576 -0.1597
 9127W        W25201   6.045  16.416  15.888  0.2073  0.0107 -0.2170
 9128W        W25202  14.091   5.147  13.144  0.0661  0.1662  0.1955
 9129W        W25203   4.870  10.479  13.011  0.0483 -0.1196  0.0845
 9130W        W25204  16.890   7.182  11.695 -0.0421  0.4562 -0.3599
 9131W        W25205  10.288  12.994  12.498 -0.0332 -0.2611 -0.0499
 9132W        W25206   2.431   9.042  16.271  0.0219 -0.1495 -0.4384
 9133W        W25207   0.585   7.457  16.298  0.0294  0.1783 -0.2420
 9134W        W25208   7.312   2.949  12.589  0.2338  0.1966  0.0579
 9135W        W25209   9.220   0.351   3.790  0.0553  0.0263  0.0486
 9136W        W25210  17.070   5.986   1.115  0.0299 -0.3143 -0.0218
 9137W        W25211   2.613   5.880   4.818  0.0249  0.1158  0.1862
 9138W        W25212  13.768   2.710  16.127 -0.0458 -0.0358 -0.0059
 9139W        W25213   2.618   1.639  14.741  0.0407 -0.1640  0.4300
 9140W        W25214  12.321  17.155  13.993  0.4889 -0.2417  0.0472
 9141W        W25215  17.453   4.768   2.412 -0.1084 -0.0199  0.0974
 9142W        W25216   0.886  12.035   0.894  0.2265  0.1095  0.3093
 9143W        W25217   3.139   3.683  15.286 -0.1316  0.4761  0.0660
 9144W        W25218  12.220  12.975   3.936 -0.2212  0.1659  0.2172
 9145W        W25219   9.745   9.282  13.417 -0.2823 -0.0735  0.2014
 9146W        W25220  12.828   3.258   3.670  0.0579 -0.0547 -0.5163
 9147W        W25221   2.235  14.407  15.856  0.2312  0.2054 -0.1958
 9148W        W25222   9.335  13.288  11.467  0.0831 -0.3096 -0.1049
 9149W        W25223  15.839   6.672  16.767 -0.1069 -0.1274 -0.1429
 9150W        W25224  12.879   9.542  16.905 -0.2686  0.0414  0.0777
 9151W        W25225  14.725   6.854  14.357  0.0810 -0.3390 -0.0409
 9152W        W25226   4.073  13.668   2.832  0.0146 -0.0292  0.1443
 9153W        W25227  12.048   0.591   4.803  0.0471  0.0713  0.0651
 9154W        W25228   7.706   0.023   1.760  0.1074 -0.0351  0.2629
 9155W        W25229  15.410  11.399  13.211  0.1237 -0.0545 -0.1475
 9156W        W25230  10.892  13.604   1.560  0.1468 -0.0878  0.0657
 9157W        W25231   3.432  13.106   2.695 -0.3766  0.1733  0.1214
 9158W        W25232   6.481  15.054   2.718 -0.3578 -0.1375 -0.1356
 9159W        W25233  16.055  13.270  14.516  0.0601 -0.1171  0.2201
 9160W        W25234  15.738   5.210  15.951 -0.0742 -0.0912  0.0936
 9161W        W25235   1.847   0.111  12.626  0.0009  0.1956 -0.2056
 9162W        W25236   6.405  16.876   4.288 -0.1910  0.0547  0.0585
 9163W        W25237  11.570   0.978  13.448 -0.1307  0.0402  0.0691
 9164W        W25238   0.761   8.487   6.051 -0.0926 -0.0227 -0.0962
 9165W        W25239  12.682   4.098  15.563 -0.0452  0.0869  0.0386
 9166W        W25240  10.461   9.752  11.725  0.1095  0.2343  0.3012
 9167W        W25241  16.613   0.066  12.141 -0.4463  0.0352  0.0985
 9168W        W25242   9.736   0.696  16.157  0.0592  0.0619  0.0396
 9169W        W25243   1.710   4.109   2.639 -0.2493 -0.0924 -0.0690
 9170W        W25244   0.488   6.077  15.205 -0.2577  0.2081 -0.0131
 9171W        W25245  17.499  16.567  17.058  0.0587 -0.1816 -0.1238
 9172W        W25246   6.651   4.157  13.527  0.0181  0.2184  0.1227
 9173W        W25247   7.913   6.906  13.448 -0.0655  0.0414 -0.0255
 9174W        W25248   9.356  10.410   3.206  0.0696  0.2456 -0.2117
 9175W        W25249   8.886   1.701  12.650  0.2349  0.1810  0.0973
 9176W        W25250   6.870   7.704   1.149 -0.1927  0.3584  0.1543
 9177W        W25251  10.174   5.324  12.143  0.0450 -0.1076  0.1921
 9178W        W25252   0.269   3.033   5.482  0.1069  0.4263  0.0679
 9179W        W25253  16.428  15.654  15.567 -0.0165  0.0334 -0.0130
 9180W        W25254  11.593   2.686  15.493 -0.0156  0.1502  0.1196
 9181W        W25255   4.442   8.273  16.662 -0.1452 -0.0433 -0.0412
 9182W        W25256  15.515  17.696   1.588 -0.2289  0.2309 -0.0303
 9183W        W25257   3.358   9.442   1.166 -0.0042 -0.1459 -0.0465
 9184W        W25258   3.462   0.417   5.663 -0.1528  0.0088  0.2398
 9185W        W25259   9.154  11.588   1.671 -0.2134  0.0892  0.1766
 9186W        W25260   1.278   9.308  17.095  0.1156  0.2002  0.3553
 9187W        W25261   3.493   6.107   1.111 -0.1165 -0.3758  0.0773
 9188W        W25262  17.480   4.045   2.891 -0.1114 -0.0564  0.0267
 9189W        W25263  14.417   7.200   4.359  0.2291  0.1612 -0.0799
 9190W        W25264   9.672  16.056  11.429 -0.2703 -0.0345 -0.1610
 9191W        W25265   0.719   3.110   3.015  0.1606  0.0522  0.1933
 9192W        W25266   3.442   2.030  14.468 -0.0348  0.2205 -0.1097
 9193W        W25267  13.111   8.325   2.494  0.1447  0.2261 -0.1350
 9194W        W25268  10.571  16.401  11.517 -0.1363  0.0192 -0.0956
 9195W        W25269   2.550  13.029  16.584 -0.0399 -0.1444 -0.3312
 9196W        W25270  14.572  13.649  16.338  0.0747  0.0921  0.0950
 9197W        W25271   1.479  11.767  12.833 -0.1524 -0.1188  0.0484
 9198W        W25272   2.322   6.291   5.049 -0.1499 -0.3185  0.1318
 9199W        W25273  17.160   4.185  12.768 -0.1135 -0.1253 -0.0768
 9200W        W25274   3.513   1.384  16.145 -0.0084  0.2641 -0.0648
 9201W        W25275  13.568  11.980   4.987  0.0887 -0.1365 -0.1444
 9202W        W25276  15.853  17.028  13.752  0.0235  0.0913 -0.1908
 9203W        W25277  16.886  10.211   0.695  0.1478 -0.0367 -0.0119
 9204W        W25278   5.079   2.190   0.303 -0.0394 -0.0122  0.0528
 9205W        W25279  13.160  14.304   1.215 -0.0361 -0.1421 -0.1831
 9206W        W25280   3.255  17.301  12.408 -0.0118  0.1827  0.0037
 9207W        W25281   5.419  15.184  14.392 -0.0395  0.0659 -0.1581
 9208W        W25282  16.248   9.065  14.095 -0.0937 -0.1736  0.0470
 9209W        W25283   7.278   2.509  13.840  0.2936  0.2225 -0.0128
 9210W        W25284   5.271   2.558  11.632 -0.1817  0.3466  0.2236
 9211W        W25285  17.449  13.821  16.633  0.1038  0.0345  0.0216
 9212W        W25286   0.601  17.050  15.001  0.1753 -0.3123 -0.1169
 9213W        W25287   5.496  12.118  12.228  0.0887 -0.1448  0.0943
 9214W        W25288   1.103  16.586   4.201  0.0699 -0.0719  0.1217
 9215W        W25289  15.612  14.138   3.399 -0.2101 -0.1842 -0.0762
 9216W        W25290   5.045  17.648   1.069 -0.0968  0.1148 -0.2003
 9217W        W25291  13.615   8.998   2.654 -0.0010  0.4016 -0.3281
 9218W        W25292   0.960   3.559  11.753 -0.3660 -0.0230  0.1945
 9219W        W25293  14.049   8.033   3.802  0.0120  0.3682  0.0259
 9220W        W25294  16.336  16.815   3.823  0.1507 -0.0446  0.0109
 9221W        W25295   4.386   4.924   2.657 -0.1775  0.2322  0.0253
 9222W        W25296  10.923  10.404  15.798 -0.0026 -0.2981 -0.2244
 9223W        W25297   9.744  13.762  13.185 -0.3103  0.0044  0.0706
 9224W        W25298  11.100   0.297  11.793  0.1880 -0.0051  0.0814
 9225W        W25299   6.017   8.514  15.966 -0.1176 -0.1775  0.1522
 9226W        W25300   8.097  17.602   3.024 -0.2300 -0.1207 -0.2361
 9227W        W25301   9.458   6.369   5.696 -0.1066  0.2507  0.3101
 9228W        W25302   3.481   0.655   2.952  0.1763  0.1038 -0.1218
 9229W        W25303   1.204  14.626   6.328 -0.2363  0.1429 -0.0421
 9230W        W25304   1.260  11.615   0.718 -0.2059  0.1905 -0.2204
 9231W        W25305  13.327   5.317   5.514 -0.3944 -0.2505  0.2815
 9232W        W25306  16.135  11.361   0.168  0.4401  0.1714  0.0483
 9233W        W25307   8.292   4.386   2.485 -0.0113  0.0027  0.0535
 9234W        W25308   2.890  11.353  11.995  0.0441  0.0914 -0.0875
 9235W        W25309   3.568   6.920   0.802 -0.0290 -0.2069 -0.2134
 9236W        W25310   7.766  16.179  12.452  0.0293  0.0521 -0.0683
 9237W        W25311   4.827  16.893   2.309  0.1313  0.0138 -0.0668
 9238W        W25312  14.833   4.836   4.700 -0.1011  0.0692 -0.0909
 9239W        W25313  12.105  10.108   2.150  0.0005  0.0420  0.1899
 9240W        W25314  13.911   4.979   0.665 -0.0686  0.0577  0.1805
 9241W        W25315   0.990  13.318   2.524 -0.0774  0.0769  0.0672
 9242W        W25316   8.420   8.445   1.272 -0.2381 -0.0130 -0.4619
 9243W        W25317  16.710  14.517   3.864 -0.1873  0.0183  0.2250
 9244W        W25318   3.799  16.125   2.749 -0.0168  0.2248 -0.1319
 9245W        W25319   1.674  12.356   1.891  0.1289  0.0253  0.1375
 9246W        W25320   8.945   1.798   3.309 -0.1393  0.1984  0.2848
 9247W        W25321  11.445   9.837   0.692  0.0421 -0.0762  0.2303
 9248W        W25322   6.989   6.254  16.118  0.4068  0.3566  0.2118
 9249W        W25323  14.627  13.216   5.253 -0.0202  0.3118 -0.4158
 9250W        W25324  16.925   0.043   6.505 -0.1934  0.1752 -0.0914
 9251W        W25325  12.095  14.407  16.382  0.1782  0.2156 -0.1756
 9252W        W25326   9.993   9.880   2.771 -0.1284  0.0519 -0.0015
 9253W        W25327   5.133   2.007   3.239  0.1604 -0.0823  0.0242
 9254W        W25328  14.327   2.989  14.203  0.0171  0.0989  0.0056
 9255W        W25329  12.040  10.072   0.073  0.0298 -0.1261  0.2701
 9256W        W25330   7.087  16.317   3.786 -0.1062 -0.1174  0.2952
 9257W        W25331  12.136   2.007  15.951 -0.0165 -0.2754 -0.0299
 9258W        W25332   7.139  12.512  16.514  0.1230 -0.2660 -0.2684
 9259W        W25333   9.204   9.510  17.032  0.2430 -0.0212 -0.2050
 9260W        W25334   4.583   7.067   4.754  0.1456 -0.4107 -0.2029
 9261W        W25335  15.236   1.411  12.513 -0.0221 -0.1555  0.1682
 9262W        W25336   0.195   7.874   4.934  0.2373 -0.1150  0.2865
 9263W        W25337   6.080  10.536   6.048 -0.4567 -0.0646 -0.1299
 9264W        W25338  12.132  14.774  14.113 -0.0006  0.1755 -0.0696
 9265W        W25339   8.033  11.971  16.968  0.1065 -0.0701  0.1877
 9266W        W25340   6.493  13.162   5.909  0.0436 -0.1121 -0.1355
 9267W        W25341   4.822   0.427  16.028  0.2570 -0.1999  0.0220
 9268W        W25342   4.964   3.563   3.376  0.1115  0.0954  0.1010
 9269W        W25343   1.237  13.514   4.807 -0.2077 -0.1316 -0.1771
 9270W        W25344   0.520  14.493   4.677 -0.1293  0.2801  0.0996
 9271W        W25345  17.679  16.170  13.815  0.1801  0.1313  0.1621
 9272W        W25346   2.818   3.281  14.234 -0.0462  0.2995 -0.2700
 9273W        W25347  13.172   4.421   4.348 -0.1226  0.2047 -0.0666
 9274W        W25348   2.469  10.389   4.275  0.0401 -0.1422  0.1302
 9275W        W25349  11.075   0.768   2.876 -0.3689 -0.0884 -0.2442
 9276W        W25350  16.281   8.490  12.168  0.0525 -0.1248 -0.1274
 9277W        W25351  11.749  12.056  12.121  0.1820  0.0417  0.2210
 9278W        W25352   4.486   4.517   4.681 -0.0500 -0.1895 -0.1264
 9279W        W25353   8.132  15.359  13.232 -0.0347 -0.3309  0.0232
 9280W        W25354  17.052   0.678  16.201  0.0959  0.0531 -0.2261
 9281W        W25355   7.109  14.467  15.065 -0.1723  0.3410 -0.0777
 9282W        W25356   8.071  12.473  16.636 -0.1799  0.2236 -0.1151
 9283W        W25357  14.193   0.233  16.834  0.0301 -0.0269  0.0879
 9284W        W25358  16.715   8.772  16.769  0.1014 -0.0511 -0.0002
 9285W        W25359   3.376   9.220   5.638 -0.0122 -0.1042  0.1863
 9286W        W25360   1.560   3.850  16.895  0.1606  0.1482 -0.0552
 9287W        W25361   7.422  13.572  14.042 -0.0867  0.0304 -0.5080
 9288W        W25362   0.038  12.795   4.100  0.0135 -0.0435 -0.0081
 9289W        W25363   7.979   8.663  13.679 -0.0763  0.3245 -0.0863
 9290W        W25364   2.262  17.349  17.103  0.3849  0.1132 -0.1933
 9291W        W25365  15.651   5.233  16.432 -0.0028 -0.0900 -0.3624
 9292W        W25366   7.524  15.296   4.758  0.0422 -0.6944  0.2024
 9293W        W25367   9.582  12.724   1.723 -0.1963 -0.2406 -0.0907
 9294W        W25368   4.846  14.948  13.722 -0.0229 -0.0104 -0.1372
 9295W        W25369  17.596   4.707   6.207 -0.1137 -0.2258  0.0110
 9296W        W25370   6.284   5.736   2.901 -0.0840  0.1007  0.2179
 9297W        W25371  12.425  15.431   2.302 -0.2336 -0.0057  0.2481
 9298W        W25372  14.673  17.186   0.466  0.0281  0.0195  0.0998
 9299W        W25373   3.531   0.433  17.031 -0.0919 -0.0302 -0.0076
 9300W        W25374   4.890   5.802  12.682  0.3030 -0.1835 -0.0751
 9301W        W25375  12.556   6.689   4.677 -0.0544 -0.0421  0.1798
 9302W        W25376  11.575  10.519   3.464 -0.1483 -0.2091 -0.2333
 9303W        W25377   3.490   1.196  13.303 -0.1318 -0.0350 -0.0769
 9304W        W25378  14.049   4.103  15.762 -0.0488  0.1558  0.1682
 9305W        W25379  15.685   9.364  14.985  0.1639 -0.3960  0.1324
 9306W        W25380   0.180   6.672   5.940  0.4938 -0.2179  0.0987
 9307W        W25381   5.832  14.397  12.743 -0.2027 -0.0813  0.0383
 9308W        W25382   6.214   1.025   3.005  0.0279 -0.1255  0.1201
 9309W        W25383  15.652  13.927   3.862  0.1532  0.1130  0.0738
 9310W        W25384   5.236  15.044   1.662  0.3171 -0.2157 -0.0334
 9311W        W25385   6.718   7.947   5.464  0.0342 -0.2380  0.0472
 9312W        W25386   6.708   5.758   4.649  0.1329  0.0341  0.0417
 9313W        W25387   0.611  17.569  12.417  0.0775  0.1935  0.1727
 9314W        W25388   6.745   4.994  13.323  0.1290  0.0596 -0.2147
 9315W        W25389  13.859   6.076  12.855  0.2531 -0.0037  0.0200
 9316W        W25390  12.008   8.685  13.442  0.0378 -0.0533 -0.1584
 9317W        W25391   9.475   1.896  16.260  0.0782  0.0165 -0.0982
 9318W        W25392   6.492  15.945  15.214 -0.0521 -0.0942  0.0581
 9319W        W25393  12.821  11.512  16.649  0.1005  0.0910  0.1373
 9320W        W25394  15.936  13.705  11.631  0.0667 -0.2075 -0.2221
 9321W        W25395   4.648  14.244  16.887 -0.0562  0.0782  0.1429
 9322W        W25396   4.281   7.826   1.696 -0.0029 -0.0627  0.2892
 9323W        W25397   3.754   5.249   2.483 -0.1264  0.3292 -0.1428
 9324W        W25398  14.240  14.355   1.604  0.3217  0.0497 -0.1247
 9325W        W25399   2.723  13.127  12.722 -0.1445 -0.0876 -0.0495
 9326W        W25400   1.298  16.276  15.210  0.0082  0.0668 -0.2295
 9327W        W25401   8.269   0.228   1.803 -0.1159 -0.1464 -0.0655
 9328W        W25402   4.241  12.450  13.965 -0.0702  0.4457  0.2386
 9329W        W25403   7.470   1.860   0.071  0.2121 -0.0292  0.2533
 9330W        W25404  14.434   6.014  16.862  0.0073  0.1581 -0.1208
 9331W        W25405  15.052  10.734  16.653  0.3235 -0.3047 -0.2411
 9332W        W25406  15.245   7.687   0.320 -0.1833  0.3430  0.2301
 9333W        W25407  14.169  17.039   0.935 -0.1297 -0.0495 -0.0644
 9334W        W25408  13.219   0.356  11.712  0.1559  0.0500 -0.0184
 9335W        W25409   1.380  17.034  16.809  0.2744 -0.3333 -0.0813
 9336W        W25410   3.458  11.463  13.072 -0.0227  0.2949 -0.3790
 9337W        W25411   4.457   9.762   2.695 -0.1506 -0.0162 -0.2130
 9338W        W25412  11.947  11.691  16.634 -0.1351  0.0391  0.1241
 9339W        W25413   1.211  10.145   3.967 -0.1009  0.0644  0.0464
 9340W        W25414   8.951  11.170  16.792 -0.1752 -0.0760 -0.1242
 9341W        W25415   1.757   3.507  15.068 -0.4974  0.3436 -0.0565
 9342W        W25416   1.859  12.457   2.712  0.3296 -0.2356 -0.3252
 9343W        W25417   2.676  16.541  12.013 -0.2039  0.2643  0.0175
 9344W        W25418  15.480   5.694   3.806  0.2278 -0.2384  0.3419
 9345W        W25419   9.694  13.840  12.128  0.1489 -0.2256  0.0051
 9346W        W25420   6.899   0.536  11.888  0.2180  0.3251  0.1039
 9347W        W25421  12.842   2.453   2.110  0.2033  0.1999  0.3127
 9348W        W25422   9.125   6.889  11.971 -0.2317  0.2643  0.0980
 9349W        W25423   8.041   6.424  17.000  0.1124 -0.3053 -0.1737
 9350W        W25424   8.556  17.051   2.737  0.0451  0.1630 -0.0362
 9351W        W25425  14.370   9.873   3.328  0.1147  0.3128 -0.1178
 9352W        W25426  17.429  13.007   4.343  0.2104 -0.0460  0.0088
 9353W        W25427  13.774  11.632   4.321  0.0837 -0.0073  0.0602
 9354W        W25428   2.645   8.634  13.788  0.2838 -0.0882 -0.0909
 9355W        W25429   1.988   1.131  15.159 -0.0855 -0.1942  0.1399
 9356W        W25430  14.706   9.809   0.662 -0.0041  0.1431 -0.2215
 9357W        W25431  15.156   6.458   3.002 -0.2744  0.4054  0.1007
 9358W        W25432   3.449   0.603   4.648  0.1162  0.3055 -0.0757
 9359W        W25433  14.523  15.389  13.502  0.0359  0.1132  0.0206
 9360W        W25434   4.206  17.263   5.383 -0.2396  0.0406  0.0002
 9361W        W25435  14.912  14.618   3.048  0.1920 -0.0731 -0.3626
 9362W        W25436  14.695   4.679   0.938 -0.1792 -0.2305 -0.0283
 9363W        W25437   3.225   5.489   5.557  0.4389 -0.2275  0.2128
 9364W        W25438   5.776  17.447   0.525 -0.0568  0.0806 -0.3264
 9365W        W25439   3.179  14.126  14.776  0.0375  0.0519 -0.2044
 9366W        W25440   8.643   2.504   0.166 -0.3421 -0.0136 -0.1502
 9367W        W25441   4.021  11.939  16.031  0.2258  0.2816  0.1320
 9368W        W25442  10.499   9.541   3.374 -0.0498  0.0099 -0.0277
 9369W        W25443  11.848   2.061   0.446  0.0738  0.1125  0.1955
 9370W        W25444   7.511   7.794   3.343 -0.4457  0.0670 -0.2980
 9371W        W25445   6.112   0.787  15.819 -0.0157 -0.0246 -0.0673
 9372W        W25446  16.710  16.919  16.466  0.1262  0.0550 -0.1728
 9373W        W25447   8.732  16.463  16.419 -0.0591  0.2023  0.0636
 9374W        W25448  17.122  11.076   2.610  0.1357 -0.0239 -0.1751
 9375W        W25449  10.962   3.890   3.593 -0.0286  0.3279 -0.0012
 9376W        W25450   3.484   4.549   0.542 -0.1829  0.5065 -0.3032
 9377W        W25451   3.143   8.760  12.413  0.2608 -0.0531 -0.0414
 9378W        W25452   1.342   8.226  16.385 -0.1199  0.1633 -0.1314
 9379W        W25453   2.961   6.901   1.659 -0.1564  0.0581 -0.2701
 9380W        W25454  11.761   4.527   2.878 -0.2380  0.1437 -0.1370
 9381W        W25455   0.184   7.379   4.414 -0.0526  0.2811  0.0792
 9382W        W25456  15.941  15.372  16.201 -0.0746  0.1327 -0.2148
 9383W        W25457  11.412  12.533   2.094  0.3348  0.0868  0.1933
 9384W        W25458   1.907   8.330   4.747  0.2920 -0.0394  0.2303
 9385W        W25459   9.431  17.715  16.540  0.1481  0.0789 -0.3260
 9386W        W25460  14.653   8.773   1.742 -0.0822  0.0510  0.1327
 9387W        W25461   2.215  11.363   4.380 -0.1789 -0.0640  0.0197
 9388W        W25462   8.600   0.003  12.126 -0.0099  0.0754  0.1297
 9389W        W25463  10.185   8.615   5.518 -0.0716 -0.0272  0.0175
 9390W        W25464  12.153  11.975  13.442  0.2894  0.4546 -0.0365
 9391W        W25465   8.188  13.817   1.765  0.3891 -0.1294 -0.2209
 9392W        W25466   8.778  11.032  13.515 -0.1356 -0.2262 -0.0951
 9393W        W25467  17.019   0.590   0.756  0.0932 -0.1207 -0.0777
 9394W        W25468   3.467   7.780   0.424 -0.1551 -0.0469 -0.0855
 9395W        W25469  15.262   6.647   5.354 -0.2077  0.2506  0.3750
 9396W        W25470   9.109   2.807   1.832 -0.1748  0.0744  0.2176
 9397W        W25471   9.467   6.653   3.728  0.2892 -0.1828  0.3597
 9398W        W25472   8.838   5.116   0.547  0.1230  0.0434 -0.2302
 9399W        W25473   2.948   8.531  17.095 -0.2546 -0.1354 -0.1080
 9400W        W25474   0.805   7.121  15.962 -0.0011  0.0273  0.1590
 9401W        W25475   6.956   6.543  15.640  0.0797 -0.0185 -0.1153
 9402W        W25476  16.910   9.063   3.387  0.1756 -0.0527 -0.0543
 9403W        W25477  13.782  13.323   4.378  0.0648 -0.0317 -0.0337
 9404W        W25478   2.824  16.141  12.704 -0.3656 -0.0154 -0.0008
 9405W        W25479   3.679   1.280   2.380 -0.0726 -0.3001  0.0745
 9406W        W25480  16.290  17.451   2.472  0.1102  0.0113 -0.1765
 9407W        W25481  15.313   3.380   2.549 -0.1512  0.1979 -0.0409
 9408W        W25482   3.249   0.475  15.202 -0.0101  0.1822  0.1258
 9409W        W25483  12.760   4.288  12.004  0.0911  0.3665 -0.2792
 9410W        W25484  11.562   5.943   4.415  0.1512  0.0886 -0.0898
 9411W        W25485  15.003   7.765   3.813 -0.1148 -0.3730  0.2186
 9412W        W25486  16.577   0.714   3.622  0.0578 -0.1376  0.1177
 9413W        W25487  13.912  13.780   4.755 -0.0281 -0.0944  0.2661
 9414W        W25488  13.830  11.602  11.883  0.1461  0.1591 -0.1075
 9415W        W25489   2.280  17.059   0.913  0.0375 -0.0483 -0.1267
 9416W        W25490  15.220   0.536  11.943  0.4186 -0.2868  0.0429
 9417W        W25491  15.051  13.825   0.082  0.1648 -0.0733  0.3530
 9418W        W25492  16.384   7.794   2.921 -0.0999  0.1006  0.4266
 9419W        W25493   5.468   1.207   0.071  0.0854  0.0665 -0.3106
 9420W        W25494   8.816   8.512  16.892 -0.1731 -0.0529  0.2426
 9421W        W25495   8.013  10.256  10.851 -0.2361 -0.0040  0.0551
 9422W        W25496  12.956   8.565  14.160 -0.0821  0.0160  0.1400
 9423W        W25497   9.019   7.066   4.875 -0.1186 -0.0089  0.0795
 9424W        W25498  17.000  12.424   3.175  0.1742 -0.0984  0.2669
 9425W        W25499  16.743  11.214   1.199  0.0040 -0.5018 -0.0405
 9426W        W25500   1.883   4.242   2.006 -0.0432 -0.1780  0.0881
 9427W        W25501  13.319   2.301   2.103  0.0679  0.0235  0.1329
 9428W        W25502  11.842   6.646   1.746  0.0641 -0.2703  0.0484
 9429W        W25503  14.622  13.108  13.602  0.0349 -0.0723  0.1703
 9430W        W25504   1.363  11.989   3.141  0.0699 -0.0896 -0.2310
 9431W        W25505   8.259  11.721   4.201  0.1187  0.2418 -0.2260
 9432W        W25506   0.097  12.219   5.380  0.0545 -0.1766  0.0142
 9433W        W25507   8.707   2.142  11.972 -0.1897  0.1951  0.1125
 9434W        W25508  13.417   2.934  12.106  0.2738 -0.0830  0.2034
 9435W        W25509   2.133   7.229   0.432 -0.1332  0.1493  0.1269
 9436W        W25510  15.989   4.156   2.114 -0.2085 -0.0545  0.1382
 9437W        W25511  12.941  14.987   4.037  0.1679  0.1238 -0.0541
 9438W        W25512   5.079   1.380  13.382 -0.0952 -0.2709 -0.0925
 9439W        W25513   8.463  14.683  12.068 -0.1300  0.0531  0.2759
 9440W        W25514   7.304  13.193  14.443  0.1677 -0.0835 -0.1087
 9441W        W25515   7.404   4.157  13.989 -0.1204  0.1663 -0.1338
 9442W        W25516   9.748  11.134   3.714 -0.1458  0.1600 -0.2007
 9443W        W25517   9.503   3.008  16.780 -0.1735  0.2502 -0.1057
 9444W        W25518   6.173   7.843  11.738 -0.1025 -0.1931 -0.3827
 9445W        W25519   9.511   6.186  12.959 -0.1710  0.0450  0.1868
 9446W        W25520  12.154   7.796  12.647 -0.3007 -0.3607  0.1243
 9447W        W25521   7.422   9.629   5.174 -0.0008  0.3060  0.1792
 9448W        W25522   1.080  10.317   4.488 -0.2123 -0.0819  0.2949
 9449W        W25523   9.425   7.033   1.507 -0.1954 -0.0773 -0.0341
 9450W        W25524  12.078  10.267  12.728  0.0964  0.0685 -0.2241
 9451W        W25525   3.565  15.515  15.699 -0.1182  0.1411  0.1381
 9452W        W25526   6.667   0.349  13.312  0.1055  0.4760 -0.1119
 9453W        W25527   7.033  11.579  15.515  0.0272 -0.0441  0.1028
 9454W        W25528  17.518   7.276   0.524 -0.0659  0.0152  0.0220
 9455W        W25529   2.100  17.472   2.819  0.0775  0.1466  0.3160
 9456W        W25530  13.651  15.838   2.407  0.0032 -0.1795  0.0260
 9457W        W25531   0.620  13.366   4.391  0.2485  0.1131 -0.1161
 9458W        W25532  12.698   8.114   2.764  0.1154  0.0789  0.1128
 9459W        W25533  15.263  10.416   3.211 -0.0250 -0.0620  0.1003
 9460W        W25534  10.297   8.651  12.886  0.0437 -0.0457 -0.0423
 9461W        W25535  12.617  10.885   3.571  0.2373 -0.1622 -0.2514
 9462W        W25536   1.004   9.586  16.751  0.3161 -0.3979 -0.0393
 9463W        W25537  15.245   9.444   2.188  0.0559 -0.0693  0.2335
 9464W        W25538   9.583  12.497  12.631 -0.0664  0.1517  0.0905
 9465W        W25539   9.197   4.293  16.391 -0.0220  0.1029  0.1713
 9466W        W25540   8.451   6.286   0.068 -0.2221  0.0987  0.1193
 9467W        W25541   6.735   2.124   2.978 -0.0459  0.1028  0.0576
 9468W        W25542  14.820   1.862  12.746 -0.0088 -0.3387  0.0689
 9469W        W25543  15.855  11.518   4.821  0.0983  0.1878 -0.0650
 9470W        W25544   5.889   8.950  13.480 -0.1179 -0.3273 -0.1457
 9471W        W25545  10.048   2.476   3.389 -0.0835 -0.2583  0.2655
 9472W        W25546   8.814   3.012  13.022  0.2776 -0.1764  0.1738
 9473W        W25547  14.392  15.762  15.607  0.1375  0.2047  0.2519
 9474W        W25548  15.703   0.549  13.823 -0.0210 -0.1994 -0.0889
 9475W        W25549   4.262   7.604  13.972  0.1377 -0.0799 -0.3612
 9476W        W25550   8.233   8.296   3.390 -0.1194 -0.1460  0.0125
 9477W        W25551   1.258  15.923   1.782  0.2617 -0.0114 -0.0187
 9478W        W25552   6.695  17.442   3.170  0.0293 -0.3154 -0.1673
 9479W        W25553   7.389  14.005  15.908 -0.2859 -0.0085  0.0581
 9480W        W25554  15.614  16.258  14.317 -0.0132  0.1185 -0.0626
 9481W        W25555  13.452   0.994   4.498  0.0983  0.1087  0.1051
 9482W        W25556   2.723  16.140   1.620 -0.0608 -0.0738 -0.0395
 9483W        W25557   8.126  11.979   1.135 -0.3901  0.1470 -0.1219
 9484W        W25558  15.251  16.625  11.344  0.0899 -0.1028 -0.0237
 9485W        W25559  10.918  12.471  15.236  0.2956 -0.0030 -0.0063
 9486W        W25560  13.992   1.695   4.273  0.1105 -0.0479 -0.0627
 9487W        W25561   5.880  12.369  14.874  0.0378  0.0625 -0.0568
 9488W        W25562   5.262  10.049  14.946 -0.2162  0.1498 -0.1227
 9489W        W25563   7.907   0.305   5.323  0.0137 -0.1533 -0.0978
 9490W        W25564  17.068  13.953   5.261  0.1188  0.0266  0.2319
 9491W        W25565   8.586  17.147  17.000 -0.3134 -0.0547 -0.2122
 9492W        W25566   0.775   6.764   4.140  0.0796  0.1375 -0.0784
 9493W        W25567  10.902  16.934   2.946  0.1858 -0.2198  0.0217
 9494W        W25568  12.841   0.920  13.932  0.1169 -0.2599 -0.0886
 9495W        W25569  16.751   6.824  15.704  0.1023  0.3201  0.3148
 9496W        W25570   8.227  13.812   2.591  0.5152 -0.0520  0.2891
 9497W        W25571   7.208  10.499   5.218 -0.2011 -0.2038 -0.1938
 9498W        W25572   9.216   7.276  14.953 -0.0630 -0.1360 -0.1727
 9499W        W25573   0.748  10.057  13.204  0.1266  0.0880 -0.2752
 9500W        W25574   5.176   9.624  11.854  0.3748 -0.0087  0.0128
 9501W        W25575   1.275   7.994   6.028 -0.2332 -0.2864 -0.0608
 9502W        W25576   7.695   0.152  13.404 -0.1224 -0.0925 -0.2582
 9503W        W25577  16.617  11.929  13.509 -0.0892 -0.2023  0.0215
 9504W        W25578   0.978   0.416  12.068 -0.0926 -0.1447  0.1629
 9505W        W25579  11.605   4.292   4.347 -0.0024 -0.1134 -0.1963
 9506W        W25580   1.501   9.006  14.862  0.0773  0.0022 -0.2514
 9507W        W25581   2.070  16.094   3.688 -0.0626  0.3305 -0.1582
 9508W        W25582  11.155  11.354  16.345 -0.1611  0.2006  0.1378
 9509W        W25583   9.406  10.905   2.363  0.0059  0.1860 -0.3222
 9510W        W25584   3.291  17.479   1.520 -0.1996  0.1071 -0.0553
 9511W        W25585   0.250   9.253   3.499  0.0108 -0.0631 -0.0718
 9512W        W25586   2.850  11.047  16.373  0.3800 -0.1546  0.2227
 9513W        W25587   0.792   9.077   2.238 -0.2764  0.1997 -0.0311
 9514W        W25588   3.058  17.107  14.821 -0.1804  0.1456  0.0915
 9515W        W25589  12.397  13.523  14.019 -0.0579  0.0335  0.1560
 9516W        W25590   6.756   3.759   0.305 -0.1463 -0.0978 -0.0959
 9517W        W25591  11.477  11.249  15.820  0.1280  0.3075 -0.2783
 9518W        W25592  13.057  16.356  14.428 -0.0812  0.1186  0.0414
 9519W        W25593   6.586  14.095  16.704  0.2239 -0.2471  0.1294
 9520W        W25594   1.935   4.870   0.525  0.1534 -0.0491 -0.0060
 9521W        W25595  13.202  16.746  15.818 -0.0863  0.3474 -0.0031
 9522W        W25596  16.251   8.644  13.549  0.0916 -0.1892  0.2143
 9523W        W25597   0.737  10.391  14.035 -0.1068 -0.0010 -0.2400
 9524W        W25598  11.764  16.454   4.584  0.1010  0.1215 -0.1021
 9525W        W25599  15.946  10.308  12.969  0.0467 -0.1376  0.2667
 9526W        W25600  13.404  11.027   2.954 -0.3190 -0.0859 -0.3421
 9527W        W25601   9.463   1.932  13.474  0.1449  0.3294  0.3088
 9528W        W25602   8.126  11.034   1.077 -0.0045 -0.1979 -0.3417
 9529W        W25603  15.744   4.674   4.512 -0.0027 -0.1224  0.1888
 9530W        W25604  16.664   8.138   2.271 -0.1041  0.0399 -0.2634
 9531W        W25605  13.454  16.140  13.100 -0.2646 -0.1476 -0.1919
 9532W        W25606   4.154   7.886   0.211  0.0162  0.4855  0.1396
 9533W        W25607   7.782   4.698  14.485  0.0216 -0.1594 -0.0793
 9534W        W25608   2.289   2.778   1.895 -0.1730  0.1562 -0.2886
 9535W        W25609   3.826   3.620  14.003 -0.3404  0.3172 -0.3446
 9536W        W25610  12.712   7.360   5.371 -0.0402 -0.1307  0.0844
 9537W        W25611  10.552  14.999  16.840  0.4900  0.2654  0.2137
 9538W        W25612   3.665   4.383   2.851 -0.0727  0.0517  0.0324
 9539W        W25613  14.564   2.214   5.518 -0.3876  0.2669 -0.1304
 9540W        W25614   2.794   8.615   4.239  0.2784 -0.0694  0.1828
 9541W        W25615   4.796  12.379  13.934 -0.2734  0.1510  0.1468
 9542W        W25616   8.515  13.827  16.665  0.1742 -0.0749  0.1113
 9543W        W25617   7.560  14.376  13.326 -0.3275 -0.0893 -0.2452
 9544W        W25618   6.509  15.775  16.506 -0.2183 -0.1199  0.0444
 9545W        W25619  14.546  11.009  13.075 -0.1648 -0.0643  0.1524
 9546W        W25620   1.377  15.197  14.511  0.1449 -0.1649 -0.0557
 9547W        W25621   1.338  17.424  16.034 -0.2047 -0.2795 -0.2438
 9548W        W25622  15.904  16.686  14.202 -0.1536 -0.1089 -0.1899
 9549W        W25623   0.009   2.011   3.330  0.0087 -0.0316  0.2562
 9550W        W25624   2.432  12.468   5.369 -0.0622  0.0698  0.0746
 9551W        W25625  10.497  15.554   3.804  0.0872  0.0605 -0.0131
 9552W        W25626  15.431   9.776   5.492  0.0926 -0.0522  0.4215
 9553W        W25627  12.874   0.813  12.185 -0.1277 -0.0251  0.2099
 9554W        W25628  12.513  14.131   1.701  0.0182  0.0622  0.2365
 9555W        W25629   4.761  17.129  15.277 -0.1354  0.1095 -0.0762
 9556W        W25630  11.534  10.874   5.513  0.2655 -0.2652 -0.6161
 9557W        W25631  12.427   4.023   1.229 -0.0612 -0.2535 -0.1659
 9558W        W25632   3.157   6.538   2.840 -0.4504  0.1324 -0.1928
 9559W        W25633  13.562   3.257   2.766  0.1334 -0.0957 -0.3596
 9560W        W25634  10.352  15.409  13.821  0.0876 -0.2784  0.0069
 9561W        W25635   8.748  17.179  14.328  0.0306 -0.0790 -0.2241
 9562W        W25636  10.045  11.619   3.517  0.1879 -0.1116 -0.2503
 9563W        W25637  11.184   5.862   3.995  0.2265  0.0100 -0.0822
 9564W        W25638   6.920   0.464   4.518  0.0972  0.0212  0.1964
 9565W        W25639   4.325  16.244   1.559 -0.0039 -0.1602  0.3023
 9566W        W25640   8.187  15.106   3.455 -0.2354  0.1631 -0.1020
 9567W        W25641  11.845   8.103   3.230 -0.1828  0.0118  0.2629
 9568W        W25642  10.332   4.984  13.288 -0.0596  0.2938  0.2552
 9569W        W25643   6.600   7.880  17.027  0.4342 -0.1080  0.1833
 9570W        W25644  17.672   9.863  13.751 -0.0269 -0.2521 -0.0978
 9571W        W25645   2.435   6.857   0.640 -0.1276 -0.3824 -0.2505
 9572W        W25646  14.926   5.118   4.007  0.1871 -0.1544 -0.0266
 9573W        W25647  13.721   6.704   4.606 -0.1102  0.1436 -0.0080
 9574W        W25648  11.041   9.656   0.371 -0.0644  0.1348  0.2073
 9575W        W25649  15.234  16.033   0.807  0.0918  0.1890  0.0356
 9576W        W25650   6.111   7.020   2.168 -0.2567  0.0367 -0.2738
 9577W        W25651   8.807  15.542   1.387  0.0133  0.0858 -0.0410
 9578W        W25652   4.629   6.706  11.001 -0.0669 -0.0611 -0.2544
 9579W        W25653   0.532   8.395  12.535  0.0635 -0.3295  0.3035
 9580W        W25654   9.061   1.008   1.804 -0.1597 -0.2202  0.1951
 9581W        W25655   0.384  14.614  16.616 -0.0818  0.2756  0.3202
 9582W        W25656  10.090  16.674   1.168 -0.1605  0.1703 -0.1087
 9583W        W25657  17.070  12.187   1.429  0.1723 -0.1021 -0.3611
 9584W        W25658   2.073  11.449   2.705 -0.0318  0.0890  0.1487
 9585W        W25659   0.081   9.620   3.861  0.1265  0.0759  0.2161
 9586W        W25660  12.511   9.583   0.192 -0.2100 -0.0027  0.2896
 9587W        W25661  17.412  11.853  17.009  0.3190 -0.2513  0.2090
 9588W        W25662   8.811  11.056   3.384  0.2145  0.0857  0.0428
 9589W        W25663   6.890  14.369  15.514  0.4530  0.2420 -0.3050
 9590W        W25664   4.764   9.445   4.790 -0.1158  0.3176 -0.3149
 9591W        W25665   3.627  17.240  12.971 -0.0955  0.0941 -0.0240
 9592W        W25666  16.984  11.643   2.683 -0.0020 -0.1104 -0.3690
 9593W        W25667  15.829  17.078  14.604  0.2272 -0.0389 -0.0213
 9594W        W25668  11.107  14.845  16.866 -0.0647 -0.0965  0.1752
 9595W        W25669   8.033  14.046   2.201  0.2019 -0.0170 -0.0649
 9596W        W25670  11.083   5.698  14.324  0.0129 -0.2085 -0.3942
 9597W        W25671   3.037  12.739  16.676  0.0046  0.1018  0.0549
 9598W        W25672   7.031   7.559   5.675 -0.1643  0.0825  0.1243
 9599W        W25673  10.299  12.309  13.186 -0.0546  0.1981  0.1077
 9600W        W25674   2.402  16.438   2.499 -0.2229 -0.1533  0.0827
 9601W        W25675  16.750   4.779  11.841  0.1040  0.1231  0.0473
 9602W        W25676  13.339  17.012  15.405  0.1427 -0.0085 -0.1992
 9603W        W25677   9.012   9.087  12.503  0.0802 -0.1055  0.2192
 9604W        W25678  14.131  13.246   6.029 -0.0345 -0.1929  0.1079
 9605W        W25679   4.830   2.514  16.208 -0.1142  0.1010 -0.0686
 9606W        W25680  12.395   0.391  13.432 -0.2083  0.1089  0.0047
 9607W        W25681  14.930   0.137  14.408  0.0580  0.0484 -0.0680
 9608W        W25682  10.319   1.676   5.800 -0.1266 -0.0461 -0.1875
 9609W        W25683  14.913   9.562   4.164 -0.2748  0.0546  0.0444
 9610W        W25684   4.242  10.203   1.913  0.0162  0.2115 -0.1211
 9611W        W25685   7.227   9.489   1.097 -0.0363 -0.0126  0.1727
 9612W        W25686   1.437   4.849  16.141 -0.1791 -0.1804 -0.2933
 9613W        W25687   2.796   9.845   1.837  0.0586  0.1788 -0.0972
 9614W        W25688   7.515  13.334  15.439  0.2279  0.3421 -0.0704
 9615W        W25689   1.450   3.380  15.936  0.1713 -0.0401 -0.1198
 9616W        W25690  16.279   4.874  13.665 -0.3807 -0.1815 -0.1557
 9617W        W25691   6.289   2.162  14.311  0.1856  0.0210  0.1290
 9618W        W25692   2.989  16.492   1.305 -0.0573  0.1733  0.0468
 9619W        W25693   8.024  11.633  11.473  0.2779  0.0654 -0.0607
 9620W        W25694  17.660   4.763   1.844 -0.0768  0.2397 -0.1161
 9621W        W25695  16.495  12.829   1.883 -0.0519 -0.0307 -0.0493
 9622W        W25696   9.398  14.219   3.232 -0.3266 -0.0426 -0.1405
 9623W        W25697  14.556   9.334   0.481 -0.0961  0.4494  0.0773
 9624W        W25698   7.043   3.588   2.038 -0.0905 -0.0612 -0.1242
 9625W        W25699  15.782   3.141   3.369  0.2263  0.1295  0.1679
 9626W        W25700  17.315   2.807   1.592  0.2294  0.1495  0.1042
 9627W        W25701   1.457  15.687  14.662 -0.0356 -0.0285 -0.3434
 9628W        W25702   3.630   6.910  14.584  0.2474  0.0143 -0.0489
 9629W        W25703  16.855  15.162  15.336 -0.0922 -0.1662 -0.1869
 9630W        W25704   9.235   8.662  13.953  0.1819  0.1147 -0.1043
 9631W        W25705   6.688  13.520  15.993  0.1483  0.0819  0.1878
 9632W        W25706   9.444   4.958   2.015 -0.0640 -0.0048  0.1421
 9633W        W25707  14.707  11.771   5.306  0.1597  0.0545 -0.3299
 9634W        W25708  14.142   2.645   5.583 -0.3484  0.3141  0.0260
 9635W        W25709  12.506  15.760   4.256 -0.0759 -0.2499  0.0551
 9636W        W25710  13.034   3.131   0.995 -0.2177 -0.0431  0.3987
 9637W        W25711   7.146   4.042  14.834 -0.0190  0.2017 -0.2484
 9638W        W25712  14.441   2.479   2.888  0.0539  0.2563 -0.1392
 9639W        W25713   9.924  11.974  14.698 -0.2564 -0.2624 -0.0496
 9640W        W25714  15.185  16.661  15.040 -0.0644 -0.0620  0.0862
 9641W        W25715  12.574  17.243  13.324  0.1150  0.1974  0.0306
 9642W        W25716  13.451  12.781  13.484 -0.0097 -0.0191 -0.0066
 9643W        W25717  17.416   0.798   3.773  0.0240  0.0120 -0.2108
 9644W        W25718   1.391   9.106   4.953  0.1361 -0.1374  0.2616
 9645W        W25719   9.003  14.595  15.167  0.3057  0.3628  0.0642
 9646W        W25720   9.913  14.335  17.091 -0.4742 -0.0780 -0.1802
 9647W        W25721  16.937   0.972  12.544 -0.0103 -0.4046  0.2172
 9648W        W25722   7.957  17.160   0.403 -0.1405  0.2621  0.3749
 9649W        W25723   8.867  10.046   5.553 -0.0965  0.2104 -0.1339
 9650W        W25724   8.313   0.711   2.040 -0.0655  0.1093  0.1298
 9651W        W25725   9.769   5.580  12.286 -0.0414  0.2110  0.1288
 9652W        W25726  16.239   2.782  14.022 -0.1245 -0.1502 -0.3680
 9653W        W25727  13.078  11.687   0.410  0.0593 -0.2804 -0.0518
 9654W        W25728   8.823   6.285   1.410  0.0436  0.3309  0.1545
 9655W        W25729  10.456   5.172  15.207 -0.2151  0.1049 -0.0583
 9656W        W25730  15.598  16.234   4.107 -0.0131 -0.0023 -0.1180
 9657W        W25731  15.618  13.224  16.566  0.1184 -0.1483 -0.0520
 9658W        W25732   7.739  13.981  12.168 -0.2010 -0.0816  0.0460
 9659W        W25733  13.318   0.846  15.183 -0.0660 -0.0141 -0.1224
 9660W        W25734   0.075   9.507  15.185  0.2319  0.0749 -0.0696
 9661W        W25735  13.544   9.032   5.144  0.1840  0.1202  0.2423
 9662W        W25736   8.265  11.415  13.288  0.1407  0.1332  0.1820
 9663W        W25737  16.274  17.021   0.127 -0.0977  0.2259 -0.0121
 9664W        W25738   4.396   3.067  13.523  0.0074 -0.0008  0.0031
 9665W        W25739   4.997  12.075   4.624  0.0767  0.1507 -0.0035
 9666W        W25740  16.861   8.587   1.586  0.0600  0.1715 -0.0386
 9667W        W25741   1.008  14.469   0.270  0.3796  0.2785 -0.1231
 9668W        W25742   2.297   8.600   4.530 -0.0561  0.1025 -0.0907
 9669W        W25743  13.711  17.314  12.520 -0.2311  0.0752  0.2508
 9670W        W25744  14.601  12.424  15.400  0.1600 -0.1308 -0.0350
 9671W        W25745  14.967   9.167  13.189 -0.3065 -0.2832 -0.1569
 9672W        W25746   0.821  13.298  16.562  0.1990 -0.2528 -0.1943
 9673W        W25747   1.230  14.606  16.682  0.1035 -0.3211 -0.0368
 9674W        W25748   1.568  16.572  12.597 -0.0077 -0.1136 -0.0712
 9675W        W25749  10.419   2.992   1.268 -0.1704 -0.0563 -0.1388
 9676W        W25750   5.376   1.771  13.813  0.0435  0.0788  0.0174
 9677W        W25751   6.144  10.934   5.705  0.1260  0.1661 -0.1341
 9678W        W25752   8.225  15.627   1.998  0.3092  0.4348 -0.1865
 9679W        W25753  15.097   9.544   0.172  0.2044  0.2218 -0.1226
 9680W        W25754   7.304  14.534  13.723  0.3813  0.0249 -0.2055
 9681W        W25755   9.721   5.978   1.481 -0.0934  0.3037 -0.0611
 9682W        W25756   8.482  17.661  15.382 -0.1465  0.1113 -0.0923
 9683W        W25757  13.297   0.513   6.155 -0.1665  0.1077 -0.0556
 9684W        W25758   7.206   8.818  14.906 -0.1692 -0.2093 -0.1163
 9685W        W25759  12.081  15.092   5.198 -0.0939  0.0803 -0.4711
 9686W        W25760  15.113  17.366   1.826 -0.2053  0.3381 -0.2823
 9687W        W25761   0.738   9.836   0.679  0.0310  0.1124  0.0915
 9688W        W25762   9.975   0.671  14.325  0.0362  0.1430  0.0097
 9689W        W25763   1.274  15.974  15.607 -0.4140 -0.1662  0.1506
 9690W        W25764   5.929   6.389  11.887  0.2831 -0.1258 -0.3351
 9691W        W25765   0.536   2.410  13.264  0.0458  0.2046 -0.3186
 9692W        W25766  11.671   9.413  14.648  0.0370  0.0810  0.0922
 9693W        W25767  14.911   0.431   1.354  0.1017 -0.5054 -0.1450
 9694W        W25768   8.239   5.851  13.151  0.3111 -0.2850  0.1684
 9695W        W25769  16.010   2.774   4.510  0.0513 -0.0088 -0.0627
 9696W        W25770   9.927   6.425   2.719 -0.0994  0.0850  0.1818
 9697W        W25771  10.733   6.313   5.445  0.2829 -0.2705  0.0173
 9698W        W25772   3.373  14.662  13.862 -0.0294  0.2884 -0.1528
 9699W        W25773   8.103  15.225   4.615  0.0534 -0.3543 -0.0966
 9700W        W25774  13.198   0.613   0.269  0.1062  0.0719  0.0742
 9701W        W25775   6.544  10.888  16.962 -0.1939 -0.0539 -0.2019
 9702W        W25776   8.278  10.954   5.221  0.0663 -0.1188  0.3088
 9703W        W25777  17.504  15.511   1.347  0.4065 -0.2024 -0.1345
 9704W        W25778   4.695  17.438  11.637  0.3269  0.1457  0.0908
 9705W        W25779  15.417  13.659  11.637  0.1194 -0.1449 -0.0166
 9706W        W25780  11.908   0.917  16.212  0.0561 -0.0240  0.0432
 9707W        W25781   6.124  14.875  12.963  0.1206  0.0765 -0.1158
 9708W        W25782   2.636  10.711  16.060  0.1000 -0.1230 -0.3128
 9709W        W25783   9.632  16.879   4.346 -0.0609 -0.1430  0.1360
 9710W        W25784  12.498   8.138  14.906  0.1248  0.2574  0.0366
 9711W        W25785   1.962  17.180   1.626 -0.0240  0.1430 -0.2644
 9712W        W25786   9.701   8.736  11.853 -0.1888  0.4161 -0.1283
 9713W        W25787  10.981   2.411  11.872 -0.1233  0.1179  0.2728
 9714W        W25788   4.317   6.570   1.340 -0.0321  0.0282 -0.2398
 9715W        W25789  12.848   0.124  14.384  0.3488 -0.0008  0.0607
 9716W        W25790   2.723  13.161   2.600  0.0709  0.1122  0.3298
 9717W        W25791   9.888   9.179  16.202 -0.1251 -0.1615  0.1204
 9718W        W25792  16.264  11.661   4.625 -0.2834  0.1909 -0.2749
 9719W        W25793  16.716   6.434  13.385  0.0523  0.0836  0.2023
 9720W        W25794   4.408   9.791   5.147 -0.1421  0.1436 -0.0925
 9721W        W25795  11.322  15.538  16.521 -0.3209 -0.0316 -0.1124
 9722W        W25796   4.312   1.017  14.103  0.2559  0.0549  0.0181
 9723W        W25797   2.050  17.638   3.786  0.2254  0.2402  0.1814
 9724W        W25798  12.357   9.548  15.357  0.2007 -0.2208 -0.1558
 9725W        W25799  13.234   1.361  14.960  0.0506 -0.1367  0.3887
 9726W        W25800  16.975   8.388   4.155 -0.2164 -0.2145  0.1960
 9727W        W25801   3.617   3.428   0.554 -0.1743 -0.3580 -0.0918
 9728W        W25802  17.300   6.709  16.458 -0.0130  0.1685 -0.1150
 9729W        W25803   4.861   5.480  15.715  0.2726  0.1731 -0.1137
 9730W        W25804   6.470   6.489  15.555 -0.1275  0.1358  0.1316
 9731W        W25805  15.648  12.645  15.548  0.3235 -0.2542 -0.0490
 9732W        W25806  12.221   7.188   4.615 -0.1052 -0.0750  0.0280
 9733W        W25807  12.195  13.466  16.305  0.0850  0.2656  0.1374
 9734W        W25808   2.807  13.137   5.975  0.0879  0.1145 -0.0456
 9735W        W25809  13.179   5.001   1.119  0.6302 -0.0847 -0.0856
 9736W        W25810  14.449   3.646   4.566  0.1540 -0.1465 -0.2398
 9737W        W25811   5.334   2.187  12.605  0.1770  0.1193  0.1301
 9738W        W25812  15.505   2.848   3.716  0.0272 -0.0995  0.1039
 9739W        W25813  15.657   3.892   0.252 -0.0586  0.0833  0.1896
 9740W        W25814  10.663   9.186  12.395 -0.1453  0.2070 -0.1437
 9741W        W25815  12.018  11.839   3.705  0.1286 -0.2848  0.3137
 9742W        W25816  11.576   3.332   3.708 -0.0218 -0.1306  0.0627
 9743W        W25817   3.601  11.375  13.646 -0.1309  0.1660  0.1956
 9744W        W25818   6.615   2.542  14.410 -0.3649  0.1016  0.2230
 9745W        W25819   0.632   5.378  13.569 -0.0461 -0.0354  0.0115
 9746W        W25820  15.738   1.280   4.010  0.1412 -0.0038  0.2530
 9747W        W25821   7.007  15.045  15.013 -0.0438  0.3293 -0.2995
 9748W        W25822  17.233   4.595   1.588  0.1131  0.1468  0.2084
 9749W        W25823   5.423  14.151  13.576  0.0934 -0.0138 -0.1093
 9750W        W25824  15.619  13.983  14.136  0.2366  0.1823  0.1143
 9751W        W25825   4.534   8.649   5.010  0.4390  0.1897 -0.1964
 9752W        W25826  17.281  11.356  12.003  0.0731  0.1785  0.1402
 9753W        W25827   8.955   1.450  15.985 -0.0243  0.1356  0.0970
 9754W        W25828   8.772  15.874   1.008  0.1185 -0.1152  0.1594
 9755W        W25829   5.524   4.723   4.108 -0.0729  0.2663  0.0315
 9756W        W25830   6.382  16.673  16.757 -0.3353  0.0652 -0.0368
 9757W        W25831  16.287   3.558   4.976  0.1124  0.1009  0.0653
 9758W        W25832  17.125   3.923   1.919  0.3011 -0.0532  0.1400
 9759W        W25833   6.531   6.661  13.622  0.1791  0.0255 -0.0773
 9760W        W25834  12.629   6.475   1.051 -0.1921 -0.0255 -0.2367
 9761W        W25835   1.621  14.973   0.763 -0.0557  0.1537 -0.1221
 9762W        W25836  11.099   4.910   5.185 -0.1325  0.1811  0.1978
 9763W        W25837   6.536   6.755   4.929 -0.0773  0.0203  0.0833
 9764W        W25838   1.806  13.648   0.177  0.1180 -0.0286  0.3363
 9765W        W25839  14.652   0.201  16.595  0.1221  0.4839  0.1202
 9766W        W25840   3.893   9.950  12.444  0.1379 -0.1398 -0.0735
 9767W        W25841   9.015   5.215  16.166  0.5472  0.4641  0.1686
 9768W        W25842   6.425  10.970   1.270 -0.5010  0.2767  0.0199
 9769W        W25843  12.902   8.492  12.896 -0.2234 -0.1192 -0.0229
 9770W        W25844   1.951  12.487   5.199  0.1916 -0.0325  0.0401
 9771W        W25845   0.482   8.855   5.860 -0.0053  0.1861  0.0193
 9772W        W25846   3.420  15.453   0.509  0.1191 -0.0188 -0.0746
 9773W        W25847  14.976   5.103   3.423  0.0145 -0.1423  0.2755
 9774W        W25848  10.723   8.143  15.944  0.0882 -0.3296 -0.2502
 9775W        W25849   7.021   1.634  12.703  0.3056  0.1211 -0.0588
 9776W        W25850   8.315   2.924   4.121  0.1227  0.0390 -0.1259
 9777W        W25851   1.428   6.917   3.703 -0.3677  0.0763  0.0399
 9778W        W25852   2.726   8.657   4.741 -0.1574  0.1205 -0.2671
 9779W        W25853   3.494   2.288  15.827 -0.1550  0.1539 -0.1504
 9780W        W25854  12.952   8.785  13.723 -0.1562  0.2100 -0.0590
 9781W        W25855  12.788   8.204  12.020 -0.1361  0.2352 -0.0363
 9782W        W25856  13.521  14.051  13.477  0.3224 -0.3537  0.1127
 9783W        W25857   5.384  12.994  14.933  0.0782  0.5700 -0.1270
 9784W        W25858   8.972  13.627   2.090  0.1753  0.0709  0.0171
 9785W        W25859   3.229   7.008   2.567 -0.2041 -0.0008  0.1010
 9786W        W25860   0.537  10.521   4.396  0.1276  0.1736 -0.0016
 9787W        W25861   6.490   9.306  14.755 -0.0464  0.1993  0.0876
 9788W        W25862  10.662   2.937   2.271 -0.0068 -0.0275  0.2376
 9789W        W25863   9.954  16.341  14.436  0.2118  0.2186  0.0782
 9790W        W25864   6.658  13.022   5.377 -0.0190 -0.1132 -0.1420
 9791W        W25865  17.111   9.561  15.172 -0.1617 -0.1839 -0.1022
 9792W        W25866   7.290   6.187   4.928  0.0119 -0.0952  0.1027
 9793W        W25867   7.539   8.367  14.433  0.1951  0.0303 -0.0576
 9794W        W25868   2.577   0.784  13.763 -0.0488  0.1755  0.0953
 9795W        W25869  17.051  14.229  13.418 -0.1423 -0.2569  0.2323
 9796W        W25870  15.030  15.529  13.291 -0.0123  0.0897 -0.0484
 9797W        W25871   1.622   2.401   2.405 -0.1086  0.1398 -0.0158
 9798W        W25872   8.319   6.767   4.328  0.2766 -0.2669  0.1026
 9799W        W25873  11.386   2.583  16.473  0.1888 -0.3935 -0.2090
 9800W        W25874  12.594  13.459   1.753  0.2017  0.4147 -0.0968
 9801W        W25875   5.226   1.300   1.107 -0.3009  0.2871 -0.1803
 9802W        W25876  10.987  10.521   6.133 -0.1972 -0.0965  0.1162
 9803W        W25877   8.074  13.902   4.979  0.0186 -0.1855 -0.3127
 9804W        W25878  13.170  15.820   2.155  0.0465  0.1723  0.3393
 9805W        W25879  15.547   9.690   1.843 -0.1628 -0.0277 -0.1450
 9806W        W25880   2.080   2.385  15.007  0.1420  0.1304  0.1589
 9807W        W25881  12.842   7.543   4.040  0.0753 -0.0088 -0.2247
 9808W        W25882   6.752  16.480  11.646  0.0202 -0.0957  0.0301
 9809W        W25883  15.600   3.624  16.901  0.0111  0.0066  0.0518
 9810W        W25884  13.557  17.331  17.148 -0.1097 -0.1216 -0.1316
 9811W        W25885   9.356   8.039   3.751 -0.0669 -0.2640 -0.0093
 9812W        W25886   5.710   6.905  15.361  0.1535 -0.1205  0.0672
 9813W        W25887   1.943   5.322   4.804  0.1422  0.0832 -0.1640
 9814W        W25888  12.566   0.184  13.010 -0.0635  0.0490 -0.0226
 9815W        W25889   4.319  16.809   2.230  0.1852  0.1292  0.2934
 9816W        W25890  13.813   9.417  15.113  0.2151  0.2165  0.0846
 9817W        W25891  11.990   3.208  11.943  0.0925 -0.2806 -0.1582
 9818W        W25892  10.091  12.402   2.487 -0.0526 -0.2668 -0.2213
 9819W        W25893  11.354   0.195  16.556 -0.3852  0.3535 -0.0421
 9820W        W25894   5.004   0.295   1.344 -0.1089  0.0531 -0.1206
 9821W        W25895   4.279   7.471   4.492 -0.1614 -0.1419 -0.1399
 9822W        W25896  12.014  11.478   1.301 -0.0096  0.0247 -0.1103
 9823W        W25897  16.841  10.199  16.870  0.2918 -0.3366  0.1653
 9824W        W25898   9.512  14.252  12.488 -0.0084  0.3648  0.0513
 9825W        W25899   1.395   3.961   2.036  0.0933 -0.0272  0.1387
 9826W        W25900   6.633  12.594  14.317  0.3023  0.2147 -0.2724
 9827W        W25901  15.582   2.007   2.617 -0.0853 -0.2495  0.1941
 9828W        W25902  14.253   7.615   2.600  0.0229  0.1961  0.0005
 9829W        W25903   9.260  14.083  14.210 -0.1279 -0.2580 -0.1871
 9830W        W25904  15.245  11.116  14.288  0.3505  0.0849  0.3369
 9831W        W25905   7.124   5.348   6.231 -0.0961  0.0614 -0.1154
 9832W        W25906   5.133  17.210   5.214 -0.0431  0.0471  0.1621
 9833W        W25907   3.376   9.038  16.281 -0.1581 -0.1764  0.1428
 9834W        W25908  17.330  12.015   5.332 -0.0641 -0.5119  0.1182
 9835W        W25909   7.067  12.039   1.849  0.1391 -0.3310 -0.1260
 9836W        W25910  11.919  15.273  15.130 -0.0674 -0.4712  0.0102
 9837W        W25911  16.874   0.251   2.455  0.5473  0.1669  0.1037
 9838W        W25912  16.849  13.214  13.201 -0.3856  0.0683 -0.1502
 9839W        W25913  11.762   8.781  15.689  0.2794 -0.2423  0.1089
 9840W        W25914   3.700  10.567   3.689  0.0615  0.2133  0.1950
 9841W        W25915   7.332   9.467   1.660  0.4209 -0.1365 -0.0373
 9842W        W25916   8.859   3.314  14.671  0.0446 -0.0245 -0.0675
 9843W        W25917  13.107   2.974   2.722 -0.0999 -0.2713  0.2770
 9844W        W25918   7.932  11.809  14.565  0.0376 -0.0261 -0.0122
 9845W        W25919  16.233   0.827  14.042  0.1813 -0.0326  0.1313
 9846W        W25920  14.764   8.746  15.631 -0.1457 -0.0698  0.0686
 9847W        W25921   2.501   3.361   1.033 -0.1150 -0.3621 -0.0195
 9848W        W25922  13.071  12.031  13.277 -0.0629 -0.1356  0.1127
 9849W        W25923   2.108  11.113   3.909  0.1628  0.2992  0.2407
 9850W        W25924  15.260   5.939  12.447 -0.4076 -0.1233  0.0213
 9851W        W25925  15.976   3.946  16.915  0.0982  0.1558 -0.0507
 9852W        W25926   1.746  16.384   5.530 -0.0443  0.2238 -0.4212
 9853W        W25927   4.664  15.052  16.344  0.0259 -0.0982  0.1331
 9854W        W25928   8.156  11.749  12.677 -0.0320 -0.0326  0.2294
 9855W        W25929  11.566   3.713  13.134  0.0609  0.0087  0.2568
 9856W        W25930   1.020  12.793   2.894 -0.2408 -0.2565  0.1754
 9857W        W25931  15.870   7.905  12.308 -0.1819  0.0403  0.1083
 9858W        W25932   5.318   0.857   2.898  0.0225 -0.1490 -0.0626
 9859W        W25933   5.396   0.212   4.898 -0.1868 -0.0331 -0.3640
 9860W        W25934  11.983  10.476  16.725  0.1365  0.3881  0.1583
 9861W        W25935   5.359   7.460   4.601 -0.2111  0.1484  0.0142
 9862W        W25936  14.477  10.145  16.174  0.0739  0.1179 -0.0314
 9863W        W25937  15.523   3.359   6.017 -0.1139  0.1398 -0.3241
 9864W        W25938   7.795  15.349   6.706 -0.1993 -0.2037 -0.0517
 9865W        W25939   5.010   6.508  14.663  0.0720  0.1581 -0.0543
 9866W        W25940  16.004  10.767  12.816 -0.0010  0.0601 -0.0592
 9867W        W25941  11.057  16.553   5.760 -0.1683  0.2602 -0.3489
 9868W        W25942   4.943   1.316   5.259 -0.0889 -0.0891 -0.0355
 9869W        W25943   5.735   7.096   4.788 -0.3823  0.0208 -0.1146
 9870W        W25944  16.176   5.718  13.693 -0.0912  0.0838 -0.0434
 9871W        W25945  11.915   3.581   0.034  0.1158  0.0025  0.0798
 9872W        W25946  10.702   4.773   5.953  0.1723  0.1204 -0.3051
 9873W        W25947  12.038  11.304  11.753 -0.2880  0.3210 -0.1550
 9874W        W25948  12.681  16.619  16.427 -0.0811 -0.1345 -0.2006
 9875W        W25949   5.229   0.159   0.626  0.2405 -0.1323  0.0191
 9876W        W25950  11.224  17.399   0.729 -0.0356  0.0683  0.0583
 9877W        W25951   6.753   5.251   4.711  0.0014  0.2619 -0.0836
 9878W        W25952  10.341  17.418   3.142  0.0081 -0.0193  0.0236
 9879W        W25953  11.226  15.674  17.009  0.0137  0.1959  0.0864
 9880W        W25954  12.072   8.400  13.929  0.1332 -0.1994 -0.0004
 9881W        W25955   7.270   6.459   2.070  0.1249  0.1698 -0.1367
 9882W        W25956  14.461   1.842  16.654 -0.0963 -0.2549 -0.1544
 9883W        W25957   0.537   1.956   5.618  0.2186  0.3755  0.0354
 9884W        W25958  16.294   8.578   2.347 -0.2394 -0.3099 -0.1793
 9885W        W25959   9.646   0.253   3.521 -0.2057  0.4143 -0.0545
 9886W        W25960  12.743   4.334   1.881 -0.2862  0.0902 -0.0780
 9887W        W25961   5.302  10.145   3.460  0.1234 -0.0001 -0.1665
 9888W        W25962   2.725   0.423  12.906  0.1570  0.0747  0.0474
 9889W        W25963   0.874   3.251   4.942 -0.3909 -0.3088 -0.0767
 9890W        W25964  12.346  16.909  16.109 -0.0293  0.0695 -0.1646
 9891W        W25965   9.391   3.578  14.224 -0.1181 -0.0321  0.0584
 9892W        W25966  17.227   3.569  16.481 -0.0725  0.4809 -0.0617
 9893W        W25967   0.090   5.835   0.481  0.2971  0.1535  0.0418
 9894W        W25968  15.470   7.337   0.605 -0.0703  0.0022 -0.2946
 9895W        W25969   0.759   7.913  14.920 -0.1184 -0.2281 -0.2801
 9896W        W25970  10.429  14.294   2.548  0.2810  0.0950  0.0858
 9897W        W25971   4.729   2.286  17.146  0.1001  0.2072  0.2810
 9898W        W25972  14.244   9.298   3.177 -0.0042  0.0797 -0.0541
 9899W        W25973  14.023   1.901   1.534 -0.0124  0.0670 -0.0165
 9900W        W25974  15.869   6.193  12.415 -0.1650 -0.1404 -0.3367
 9901W        W25975   8.322   0.477  12.360  0.0604  0.6704  0.0656
 9902W        W25976  16.080   2.813   0.996  0.2394 -0.3455  0.0159
 9903W        W25977  11.741  15.100  11.952 -0.2972  0.1616 -0.1533
 9904W        W25978   9.131   2.885  14.545  0.2128 -0.1350 -0.3880
 9905W        W25979   8.434  11.228   4.267  0.0558  0.1639  0.1509
 9906W        W25980  16.450   7.143   1.563  0.0509  0.0679 -0.1289
 9907W        W25981  11.136   0.269  14.037 -0.0101  0.3171 -0.0796
 9908W        W25982   9.006  12.224  15.737  0.1579  0.0629 -0.3152
 9909W        W25983   9.321  15.267   4.452 -0.1436  0.0851 -0.1658
 9910W        W25984  11.882   9.170   3.503  0.2136 -0.3227 -0.0221
 9911W        W25985   8.043  10.041  16.604  0.2377 -0.1634  0.1866
 9912W        W25986  10.082  14.780   3.562  0.2893 -0.0780  0.2634
 9913W        W25987   9.355   2.736  13.406  0.4712  0.0730  0.0377
 9914W        W25988  17.314   8.606  12.726 -0.2826  0.2003 -0.0008
 9915W        W25989  10.723   1.193  12.762 -0.1059 -0.1643 -0.0132
 9916W        W25990   3.718  17.210   5.327  0.0189 -0.1362  0.1988
 9917W        W25991   8.213   5.446  11.897  0.1157 -0.0659  0.2290
 9918W        W25992  13.756   9.431  17.035 -0.0904 -0.0105  0.0216
 9919W        W25993  16.408  15.534   4.474 -0.1134  0.3023  0.1677
 9920W        W25994  12.962   5.505   4.494 -0.2109 -0.4265  0.2415
 9921W        W25995   9.875   8.815  15.914 -0.1536 -0.1570  0.4100
 9922W        W25996   4.013   4.152   1.650 -0.2973  0.0263 -0.2240
 9923W        W25997   3.701  14.024  14.690  0.1991  0.1428 -0.3182
 9924W        W25998   0.274   6.031  12.385 -0.0716  0.0154  0.0399
 9925W        W25999   2.045  14.038   3.520 -0.0558 -0.0904 -0.1282
 9926W        W26000  17.692  10.047  15.382 -0.0787 -0.0857 -0.1874
 9927W        W26001  13.817  13.948  16.787 -0.1030 -0.0108 -0.0968
 9928W        W26002   3.158  14.490   3.970  0.1474  0.0011 -0.0816
 9929W        W26003   6.484   4.821  12.378 -0.1905  0.1262  0.0227
 9930W        W26004   0.308  16.695   4.501  0.2499  0.0512 -0.0162
 9931W        W26005   6.704   2.632   0.047  0.1721  0.1058 -0.2024
 9932W        W26006  12.949   2.891  15.259 -0.1400 -0.0430 -0.0838
 9933W        W26007  10.053  17.349   4.960  0.1319  0.1012 -0.0908
 9934W        W26008  12.235   4.602   2.620  0.1971 -0.0246  0.1238
 9935W        W26009  17.678  10.802  11.363  0.0323 -0.0528 -0.2732
 9936W        W26010   5.020  13.113   2.654 -0.0167 -0.0053  0.0133
 9937W        W26011  14.065  11.651   0.381  0.0028 -0.0335  0.2357
 9938W        W26012  10.950   0.546   3.297  0.0248  0.0438  0.0506
 9939W        W26013   9.410  12.142  17.087  0.0650  0.1568  0.1679
 9940W        W26014   1.216   3.608   0.221 -0.2439 -0.1877 -0.2495
 9941W        W26015   0.034   5.452  16.237 -0.0585  0.0324  0.1149
 9942W        W26016  12.047   7.189  15.409 -0.1719  0.0952  0.2180
 9943W        W26017  10.348  11.159  15.158 -0.3563  0.0308 -0.2359
 9944W        W26018   0.070   5.708  11.507 -0.0143 -0.1136  0.1513
 9945W        W26019   5.762  16.565  13.504  0.0528  0.4202  0.1858
 9946W        W26020   9.893   7.939  13.831 -0.1912  0.2156 -0.1836
 9947W        W26021  14.287   1.344   4.448  0.1768 -0.1375  0.0849
 9948W        W26022   8.239   9.896   3.366  0.0394 -0.3298  0.1300
 9949W        W26023   1.074  17.307  12.297 -0.1128 -0.1933 -0.0411
 9950W        W26024   5.074   2.854   6.594  0.0550 -0.0164  0.0704
 9951W        W26025   0.355   3.992   4.212 -0.2487 -0.0406  0.0992
 9952W        W26026   1.268   1.845  12.546  0.3237 -0.1326 -0.1203
 9953W        W26027   5.617  16.293   3.322 -0.3483 -0.1755  0.2892
 9954W        W26028   3.491  16.180  13.397 -0.1069 -0.3170 -0.0329
 9955W        W26029   7.762  16.620  17.152 -0.0644  0.1109  0.2680
 9956W        W26030  10.008  10.141  16.075 -0.0303  0.0777  0.2991
 9957W        W26031   4.192   5.463   1.046  0.2976  0.0713  0.1008
 9958W        W26032   3.267   1.203  16.634 -0.0537  0.0010  0.0909
 9959W        W26033  11.471   3.154   0.829  0.0650  0.0241  0.1600
 9960W        W26034   5.083   8.375   0.499 -0.0407 -0.0953 -0.0868
 9961W        W26035   8.148   8.023  12.836  0.0826  0.0804 -0.0375
 9962W        W26036   6.306  12.176  12.633  0.0403  0.1244 -0.2181
 9963W        W26037   2.742   9.378   2.977  0.0412  0.0713  0.0993
 9964W        W26038   8.356  12.812   0.630 -0.0026  0.0292  0.3656
 9965W        W26039  11.211   9.575  14.757 -0.1335 -0.0992 -0.0825
 9966W        W26040  16.726   0.888  11.509  0.1148  0.2545  0.0672
 9967W        W26041   6.689  16.568   3.892 -0.2878 -0.3844 -0.2503
 9968W        W26042   4.987   4.786  16.959 -0.0644 -0.0787 -0.0319
 9969W        W26043   4.681  12.466   1.919 -0.2092 -0.3157 -0.0507
 9970W        W26044   6.646   3.682  14.920  0.0357 -0.0840  0.0332
 9971W        W26045   8.486   6.973  13.457  0.0430  0.0152 -0.1778
 9972W        W26046   1.723   2.357  14.515 -0.0228  0.1595 -0.0621
 9973W        W26047   8.893  12.192   6.257  0.2988 -0.2962  0.2072
 9974W        W26048   7.791   7.001   0.093  0.2844  0.1924 -0.0140
 9975W        W26049  11.595   3.603   4.754 -0.1009 -0.2083 -0.2023
 9976W        W26050   0.190   1.185   3.773  0.2505  0.1724 -0.2169
 9977W        W26051  16.377  16.158  13.846 -0.0531 -0.0301 -0.3316
 9978W        W26052   5.857  14.198  14.555 -0.1341 -0.1769  0.0240
 9979W        W26053   6.094   2.467   2.470 -0.2196  0.0941 -0.0531
 9980W        W26054   3.979   3.544  13.544  0.0614  0.1054 -0.1870
 9981W        W26055   3.327   6.606   3.632 -0.0476  0.0753 -0.0391
 9982W        W26056   9.504   7.118  15.781 -0.1229 -0.0299 -0.0885
 9983W        W26057   8.741   3.525   0.027  0.0965  0.3706 -0.1189
 9984W        W26058  16.113  14.043  17.054  0.0346 -0.0449  0.0471
 9985W        W26059  17.647  17.021  13.667  0.0883 -0.2127 -0.3210
 9986W        W26060   5.302   5.225   4.668  0.2199 -0.0262 -0.4805
 9987W        W26061   7.305   7.376   5.169 -0.1125 -0.2053  0.2887
 9988W        W26062  14.433   7.255  14.408 -0.1027  0.0207 -0.0050
 9989W        W26063   3.280   0.233   0.817  0.1684  0.0495  0.0816
 9990W        W26064   5.762  14.863   4.165 -0.1704 -0.1095  0.0374
 9991W        W26065   2.916   0.447   5.115  0.1185 -0.2766 -0.2661
 9992W        W26066   1.772   3.162   4.980  0.0394  0.1936 -0.0616
 9993W        W26067  13.571  12.040   5.846  0.0798  0.4083 -0.1229
 9994W        W26068   3.668   9.033   4.226 -0.1493 -0.3638 -0.1680
 9995W        W26069   0.968   7.619  15.914  0.1418  0.1255  0.1520
 9996W        W26070  12.727  11.502   1.361  0.0510 -0.3022 -0.2192
 9997W        W26071  14.270  14.789  12.385  0.0289 -0.0214  0.3208
 9998W        W26072   0.775  11.922   6.158 -0.2112  0.0663 -0.2601
 9999W        W26073   8.376  13.830   6.163  0.0646 -0.0949 -0.0184
10000W        W26074   5.432  16.698   3.030  0.0251  0.1970  0.2400
10001W        W26075   4.263  14.644  12.010 -0.1622 -0.1429  0.1704
10002W        W26076   8.204  17.406   2.592  0.1510  0.0986  0.0356
10003W        W26077   6.349   9.756  15.016  0.1861  0.0256 -0.1209
10004W        W26078  15.698  12.480  11.796  0.1904 -0.1796  0.0056
10005W        W26079  16.872  10.429   4.349 -0.1038  0.0155 -0.0287
10006W        W26080   2.002   7.193   3.019 -0.1507  0.0825 -0.0555
10007W        W26081   4.108   3.327   3.029  0.1689 -0.2650 -0.2659
10008W        W26082   8.896  15.923   3.700  0.2726 -0.0053 -0.2208
10009W        W26083  17.407   5.317   2.712  0.3052 -0.0991 -0.1022
10010W        W26084  13.063   6.701   5.259 -0.1598  0.0382 -0.1248
10011W        W26085   2.403   2.335   3.575 -0.0486 -0.4072  0.0054
10012W        W26086  12.956   6.384  13.635  0.0105  0.0933 -0.1611
10013W        W26087   0.077  13.545  14.918  0.0726 -0.3348 -0.1867
10014W        W26088   5.779  11.667  11.845  0.2314 -0.1451 -0.3649
10015W        W26089   5.375  15.360   3.820 -0.0692  0.1764 -0.0433
10016W        W26090   8.709   8.468   3.138  0.2815 -0.1982  0.2016
10017W        W26091   8.588  17.644  15.877 -0.1407 -0.0509 -0.2514
10018W        W26092  16.370   7.848  12.114 -0.3278 -0.0650  0.0534
10019W        W26093  14.933   8.669   3.300  0.1038  0.0095 -0.1979
10020W        W26094   7.318  15.330  16.234  0.0968  0.0697 -0.1318
10021W        W26095  17.177  12.482  15.635  0.2060 -0.1200  0.0095
10022W        W26096   4.082  17.136  16.500 -0.2246 -0.3539  0.3211
10023W        W26097  11.952   0.017  14.415  0.0812 -0.2405  0.2044
10024W        W26098   3.379  12.580  12.873 -0.2806 -0.2679  0.2634
10025W        W26099  16.176   6.106  12.828  0.0070 -0.0461  0.1093
10026W        W26100  16.558   5.558   2.473  0.1987 -0.4440  0.0501
10027W        W26101  15.138   2.044  14.190 -0.1217  0.2472  0.2570
10028W        W26102   5.139   0.485   4.520  0.1076 -0.0882 -0.2266
10029W        W26103  14.975   7.417  15.650  0.1299  0.1954 -0.1192
10030W        W26104   4.529   7.812   4.281  0.0332  0.0919 -0.3395
10031W        W26105  10.289  10.692   0.713  0.1898  0.2714  0.1084
10032W        W26106   8.110  16.148   5.372 -0.2608  0.1393 -0.2802
10033W        W26107   0.763  15.757   0.241 -0.1546 -0.2365  0.0604
10034W        W26108   5.404  16.210  17.082  0.1493 -0.1030  0.0694
10035W        W26109   1.911  14.836  12.693  0.2217 -0.0682  0.1411
10036W        W26110   1.858   2.290   0.822  0.2021  0.1444 -0.0031
10037W        W26111   3.682  17.247  16.883  0.1620 -0.0094 -0.0800
10038W        W26112  16.823  12.666  12.330 -0.1319  0.1509  0.1546
10039W        W26113   1.207  11.119  15.849  0.2136 -0.0636 -0.1258
10040W        W26114   1.305  11.578  13.765 -0.2458 -0.0501  0.0257
10041W        W26115  13.280  16.304  14.882  0.3131  0.2399  0.0644
10042W        W26116  12.810  15.215  12.635 -0.1157  0.1404 -0.2745
10043W        W26117   0.291   3.829   2.303  0.2052  0.1180  0.3399
10044W        W26118  10.171   6.181  16.302 -0.1338  0.0592  0.0473
10045W        W26119   4.592   7.490  11.399 -0.1509  0.2404  0.1031
10046W        W26120  14.433   8.461   0.888 -0.3087 -0.1292  0.1502
10047W        W26121   4.914  15.940   4.376  0.1354 -0.0239  0.2033
10048W        W26122   1.449   3.735  11.644 -0.0002 -0.2315 -0.1733
10049W        W26123  16.128   7.250  11.699 -0.0261 -0.0351 -0.2579
10050W        W26124  15.738   3.573   0.710 -0.2090 -0.0482  0.1359
10051W        W26125   9.973  10.961   0.311 -0.3488 -0.1380 -0.0817
10052W        W26126  12.963  14.605   4.831 -0.0318 -0.1474 -0.2541
10053W        W26127   5.755   8.765   6.646 -0.0720 -0.3147  0.0456
10054W        W26128   8.620   5.673   2.523 -0.0921  0.0666 -0.1045
10055W        W26129  11.369   1.835  15.292  0.0508  0.0087  0.1396
10056W        W26130  14.926   6.485  12.890  0.0143  0.0326 -0.3148
10057W        W26131   6.499   1.194  11.737 -0.1375  0.2111 -0.0016
10058W        W26132   0.820   0.128  13.636  0.2147 -0.0046  0.2732
10059W        W26133   1.095   1.538  14.455  0.0298 -0.0267  0.1672
10060W        W26134   5.852  16.717  17.144 -0.1208  0.1150 -0.0649
10061W        W26135   9.692   4.494   1.984 -0.0767 -0.1495  0.0803
10062W        W26136   2.050   6.900  13.097 -0.0848  0.1298 -0.2413
10063W        W26137  16.089  13.414  16.541  0.0570 -0.1785  0.2505
10064W        W26138   7.389  13.049   3.830 -0.0394  0.1311  0.0265
10065W        W26139  13.073  10.155  12.384 -0.0883 -0.2297  0.0356
10066W        W26140   5.011   4.944   1.193  0.0052  0.0456 -0.0651
10067W        W26141  10.014  15.908   2.680  0.4821  0.1843  0.0926
10068W        W26142   0.068  14.102  14.288  0.0471 -0.0160 -0.3206
10069W        W26143   1.445  15.429  15.611 -0.0123 -0.1516 -0.1311
10070W        W26144   7.625   8.393   2.690 -0.1045  0.5173  0.0354
10071W        W26145   6.232  14.450  13.721 -0.1620 -0.3436  0.1525
10072W        W26146   5.657  14.313  11.656  0.0986 -0.0684 -0.3014
10073W        W26147   5.574  13.166  13.350  0.0971  0.1147 -0.2873
10074W        W26148   2.164   9.104   3.787  0.0155 -0.1720 -0.1381
10075W        W26149  15.656   6.452   1.215 -0.0949 -0.0778 -0.4131
10076W        W26150  10.397   9.195   4.649 -0.0611 -0.0621 -0.2565
10077W        W26151   2.487  15.026  15.245  0.0632  0.0721 -0.3560
10078W        W26152   9.030   5.890   2.721 -0.3063 -0.0654 -0.0024
10079W        W26153   0.526  13.336   2.586  0.3901 -0.2980 -0.1422
10080W        W26154  12.259   8.189   3.570  0.2691 -0.0243  0.0003
10081W        W26155   0.106   4.926   5.375 -0.1190 -0.1945 -0.0343
10082W        W26156  13.168   8.325   3.463 -0.1704  0.1370 -0.2584
10083W        W26157  13.955   8.793   5.515  0.2075  0.0984 -0.0991
10084W        W26158  10.570  13.727   3.063 -0.1962  0.3678 -0.2717
10085W        W26159  11.312  17.054   4.614  0.1257  0.1237  0.3232
10086W        W26160  12.464   9.272  16.357 -0.2108  0.0349 -0.0224
10087W        W26161   8.686   9.336  17.032 -0.1711 -0.1836  0.0506
10088W        W26162  13.480   1.946  16.176  0.0418  0.0944  0.1112
10089W        W26163   7.699   1.263  16.612  0.0875  0.0723 -0.2995
10090W        W26164  16.462   1.042  12.717 -0.2256  0.2735  0.1968
10091W        W26165   2.994  16.158  16.611  0.0050  0.0087  0.2522
10092W        W26166   2.522   8.057  14.500 -0.1214  0.1397 -0.3528
10093W        W26167  16.281  10.847  12.405  0.2135  0.2428 -0.1890
10094W        W26168   5.924  11.704  13.204  0.1277 -0.2176 -0.0020
10095W        W26169   2.508  14.289  12.903  0.0610 -0.0810  0.1673
10096W        W26170   1.076   6.099  12.446  0.1864 -0.1387 -0.0138
10097W        W26171   1.511  15.360  16.174  0.1709  0.2104  0.1800
10098W        W26172  11.148  14.087   0.737  0.0983  0.1208 -0.3846
10099W        W26173   5.991   8.860   2.237  0.2116  0.0706  0.0961
10100W        W26174   0.013  13.403  13.961 -0.3920 -0.1808 -0.3859
10101W        W26175   7.173  12.354  11.687 -0.0553  0.0433 -0.0567
10102W        W26176   5.039   7.274   1.028 -0.3056  0.1832 -0.1923
10103W        W26177   7.368   7.413   6.181 -0.2833 -0.0873 -0.0547
10104W        W26178  14.408  10.209   0.800  0.2478  0.2828  0.1432
10105W        W26179   8.941   3.270   3.382 -0.0037 -0.1183 -0.0636
10106W        W26180   3.978  17.404   4.116 -0.1268  0.2138  0.0263
10107W        W26181  15.630   2.247  15.779 -0.2519  0.2348  0.1784
10108W        W26182   7.387   0.115   2.540 -0.2336  0.0126  0.1920
10109W        W26183  17.021  14.676  16.960  0.1783  0.3276  0.0951
10110W        W26184   0.892  10.144  16.262  0.0043  0.1953 -0.1984
10111W        W26185  15.885  10.400  16.461 -0.3105 -0.0726  0.1771
10112W        W26186   9.020  12.959   4.390 -0.0722  0.2599  0.1239
10113W        W26187   6.022   9.715  14.504  0.2023 -0.2500  0.0849
10114W        W26188  11.398  13.683   1.070  0.2206 -0.4135 -0.1133
10115W        W26189   5.943   6.129  12.609 -0.1632 -0.0299 -0.1360
10116W        W26190  15.418  16.317   4.625 -0.0467 -0.0342 -0.0284
10117W        W26191  11.964   2.433  14.855  0.0392 -0.0760  0.2326
10118W        W26192   5.025   3.674   4.679  0.1627 -0.2723  0.2153
10119W        W26193  12.927   8.784  17.086  0.1300 -0.0371 -0.1064
10120W        W26194  16.731   4.104   2.809 -0.0456  0.0750 -0.2516
10121W        W26195  13.627  15.002   1.218 -0.1366 -0.1935  0.0400
10122W        W26196   2.191  10.561  16.353  0.3552  0.0837  0.0034
10123W        W26197   9.860  11.530  16.490  0.0670 -0.1051  0.0083
10124W        W26198  16.563  14.516   0.707 -0.0450  0.0267  0.1151
10125W        W26199  12.946  11.819   3.132  0.0137  0.1273 -0.1905
10126W        W26200  12.728  17.017   5.679 -0.1283  0.0635 -0.1406
10127W        W26201   1.462   6.031   2.591  0.1579 -0.2010 -0.1922
10128W        W26202  13.350   5.120  14.772  0.0839 -0.0833 -0.2028
10129W        W26203   1.245   0.128  12.859  0.0914 -0.0607  0.2830
10130W        W26204  13.934   4.921   5.916 -0.0869 -0.1769 -0.1772
10131W        W26205   0.347   8.243   2.651 -0.1438 -0.4171  0.1485
10132W        W26206   2.786  15.533   5.223  0.0580  0.2289  0.0163
10133W        W26207  11.742  14.047   4.007  0.1947 -0.2109  0.1127
10134W        W26208   5.305  15.382   0.267  0.2146 -0.0909 -0.3174
10135W        W26209   8.510  16.320  13.700  0.1910 -0.0748 -0.0221
10136W        W26210   9.099  13.029  14.896 -0.0694 -0.2444 -0.2143
10137W        W26211   5.037   3.629   0.792  0.0467 -0.0019  0.2058
10138W        W26212   3.682  11.402   0.622  0.2684 -0.2464  0.1917
10139W        W26213  12.019   4.736   0.848 -0.0176  0.2195 -0.0873
10140W        W26214   0.881  12.527  14.314 -0.1210  0.1844  0.1484
10141W        W26215  11.338  17.546   3.701 -0.3332 -0.0354  0.1855
10142W        W26216   4.357   6.228   4.608 -0.0873 -0.1604  0.0483
10143W        W26217   7.522   3.642   0.015 -0.0051  0.1968  0.0166
10144W        W26218   0.916  15.405  15.411  0.1946  0.2041  0.0390
10145W        W26219   3.091  17.607  14.693 -0.0517  0.1847  0.2403
10146W        W26220   5.965  16.389   3.678  0.0167 -0.4181 -0.0619
10147W        W26221   0.388  11.989   3.219 -0.1791 -0.2345 -0.0747
10148W        W26222   6.007   6.690  11.498  0.1394 -0.0289 -0.1865
10149W        W26223   0.586   9.142   4.541  0.0538  0.1240 -0.2519
10150W        W26224  17.338  17.308   4.893 -0.0895 -0.0711  0.1969
10151W        W26225   0.418   6.046   6.254 -0.0260  0.1293 -0.2939
10152W        W26226   6.125  16.817   3.892  0.0836  0.3133 -0.1519
10153W        W26227   6.683  12.451   5.360 -0.3010 -0.0311  0.1881
10154W        W26228   6.298  15.455  14.967 -0.1350  0.3310 -0.4399
10155W        W26229  10.450   6.721  14.862  0.5390 -0.0171  0.0479
10156W        W26230  14.172   7.249   3.904  0.0099  0.0032 -0.1580
10157W        W26231  14.338   4.418  13.076 -0.0017  0.0488 -0.1456
10158W        W26232   1.102  15.716   0.662 -0.0505 -0.1566 -0.2678
10159W        W26233   0.609   7.144  14.301  0.1465  0.2414  0.4030
10160W        W26234  14.490  16.879  15.798 -0.0203  0.1761 -0.0374
10161W        W26235   0.421  14.246   2.524  0.1793  0.0607  0.1388
10162W        W26236   5.224   9.467  13.137 -0.0140  0.0599 -0.2580
10163W        W26237  11.060  10.393   3.481 -0.4427  0.1023 -0.0584
10164W        W26238  12.256   9.050   1.548  0.1193  0.2766  0.0173
10165W        W26239  10.784   3.965  14.179  0.2131  0.1818  0.1040
10166W        W26240  16.797   6.315   0.813  0.1307  0.2579  0.0298
10167W        W26241   3.336   8.467   1.487  0.1426 -0.1131  0.1193
10168W        W26242   8.247   4.351   0.286 -0.5368  0.4336 -0.1421
10169W        W26243   3.894  14.427   4.375 -0.3254  0.2079 -0.1740
10170W        W26244   5.018  14.311   0.015 -0.1041  0.0207 -0.1765
10171W        W26245  15.934  16.201  10.783  0.0104 -0.0462  0.0914
10172W        W26246  16.990   7.207  15.340 -0.1061  0.1198  0.0880
10173W        W26247   2.859   3.658   1.482 -0.0806  0.5487 -0.0965
10174W        W26248  10.202   4.757   5.069  0.0566 -0.2880  0.0111
10175W        W26249   5.995  15.140   2.923 -0.1929 -0.2223 -0.0726
10176W        W26250   8.533  13.846   5.695 -0.2466 -0.1908 -0.2606
10177W        W26251   7.297   5.495   0.385 -0.6053 -0.2804  0.2296
10178W        W26252  10.934   9.851   0.797 -0.1961 -0.0143  0.1731
10179W        W26253   5.949  16.234   4.776  0.1035  0.1028 -0.0943
10180W        W26254  14.110  17.301  16.144  0.0023  0.1439  0.2020
10181W        W26255   5.394   5.500   3.668  0.0095  0.2364  0.1438
10182W        W26256   7.886   1.720  14.889  0.2635  0.0493 -0.2002
10183W        W26257  14.193   5.856  16.312  0.0917  0.1146  0.1572
10184W        W26258  10.507   8.504   5.962  0.1372 -0.1137 -0.1634
10185W        W26259   9.778  16.280   3.505  0.2853  0.1366 -0.1960
10186W        W26260  14.241  11.892   4.284  0.0097 -0.1926  0.1212
10187W        W26261   2.455  17.233   0.410 -0.0541 -0.0387  0.2719
10188W        W26262  17.627  15.485  14.222 -0.1184 -0.2427 -0.0196
10189W        W26263   2.762   9.293  11.910  0.0658 -0.2278  0.1970
10190W        W26264   3.060   8.812   5.516  0.0925  0.2306 -0.0213
10191W        W26265   4.371  11.175  12.225 -0.1738 -0.0579 -0.0067
10192W        W26266   0.813   2.536   0.772 -0.1045 -0.1655  0.2490
10193W        W26267   7.669   8.521  14.902 -0.3217 -0.2720 -0.1985
10194W        W26268   2.882   7.076  16.233 -0.2239  0.0317  0.0869
10195W        W26269   8.985   2.811   2.295  0.2325 -0.0711 -0.1424
10196W        W26270   0.370  10.152   2.372  0.0684 -0.1129 -0.0277
10197W        W26271   7.256  11.472   3.340 -0.0220 -0.0481 -0.0344
10198W        W26272  16.876   8.248  16.916 -0.2417 -0.2887 -0.0980
10199W        W26273   1.622  14.887  16.391 -0.3319  0.3226  0.2214
10200W        W26274   9.153   9.476   3.178  0.0623  0.0131 -0.2705
10201W        W26275  14.465   8.851   5.628  0.2078  0.0939 -0.0280
10202W        W26276   3.410  13.990  12.138 -0.0640  0.2409  0.1806
10203W        W26277  14.470   3.793  16.947  0.0322 -0.1407 -0.1439
10204W        W26278   5.044  17.573  15.401  0.0818  0.2456 -0.1667
10205W        W26279  16.540  14.216   2.880  0.1578  0.0904  0.0300
10206W        W26280   3.761  11.625   4.169 -0.1348 -0.1717 -0.0654
10207W        W26281  10.117  11.828   1.671 -0.1112  0.5017  0.0379
10208W        W26282   2.048  10.401   1.888 -0.1229 -0.1320  0.0440
10209W        W26283  11.074  10.446  14.354  0.2022  0.3801  0.0172
10210W        W26284  14.076  11.120   3.583 -0.2786  0.0570 -0.1075
10211W        W26285  12.630  12.644  13.461  0.0289  0.2315  0.1601
10212W        W26286  12.187   2.414  16.297  0.2296  0.1395  0.0089
10213W        W26287   2.130  17.122  14.146  0.3739 -0.0894 -0.1823
10214W        W26288   1.900   4.808   5.698  0.0475  0.3659  0.1910
10215W        W26289   4.641   3.336  14.992 -0.0540  0.1042  0.2176
10216W        W26290   6.107  13.756  15.384 -0.1416 -0.1563 -0.0768
10217W        W26291  12.908   6.836  12.920 -0.0821  0.2082 -0.0579
10218W        W26292  10.257   0.554  12.204  0.2257  0.0194  0.0602
10219W        W26293   8.022  15.173   1.877 -0.2439  0.0481  0.0761
10220W        W26294  15.637   2.952  12.641  0.1309  0.0459  0.1230
10221W        W26295   6.764   4.458   2.281 -0.0066 -0.3050 -0.1679
10222W        W26296   6.253  16.205  14.816 -0.0126  0.1983 -0.1197
10223W        W26297  10.974  13.222  16.189  0.2351  0.2375  0.1946
10224W        W26298   0.978   9.331  15.502  0.1023  0.1476 -0.5854
10225W        W26299   7.476  12.430   1.734  0.0077 -0.1397  0.1038
10226W        W26300   0.505   2.028   2.395  0.0373 -0.0071 -0.0055
10227W        W26301   7.233   0.856   0.128  0.2670  0.2373  0.2924
10228W        W26302   8.173  14.954  12.534  0.1214  0.0642 -0.1044
10229W        W26303  16.444   2.730  12.966 -0.0450  0.1074 -0.2049
10230W        W26304   1.497  15.428   0.992 -0.0184  0.3169  0.0226
10231W        W26305   0.807   5.850   3.728 -0.0881 -0.1778  0.0951
10232W        W26306  17.168   3.458  15.148 -0.0243 -0.0937 -0.1423
10233W        W26307  14.951   8.546   5.005  0.0625  0.0304  0.1090
10234W        W26308  17.360   1.352  14.441 -0.0865 -0.1835  0.1432
10235W        W26309   4.279   2.737  14.301  0.5419  0.3921 -0.2545
10236W        W26310   3.772   4.622   0.992  0.5371  0.2261 -0.1192
10237W        W26311   2.008  10.927   2.837 -0.1156 -0.0177  0.0751
10238W        W26312   0.549  14.386   5.727  0.0814  0.0063  0.0460
10239W        W26313   8.696  12.988   1.527 -0.0013  0.2124  0.0077
10240W        W26314   1.513  14.326   6.036  0.0606  0.1224  0.0445
10241W        W26315  14.811  12.955  16.547 -0.0046 -0.1723 -0.0909
10242W        W26316   2.268  11.716   0.577 -0.0228  0.0313  0.1670
10243W        W26317   3.317   1.546  15.144  0.2278 -0.2304  0.0608
10244W        W26318  11.702  10.180   1.019  0.0691 -0.0205  0.0940
10245W        W26319   7.464  17.073   2.906  0.2104  0.0749 -0.1131
10246W        W26320   8.606  15.814  14.536  0.1380  0.1458 -0.0814
10247W        W26321   1.927   8.204  12.801  0.0969 -0.1785 -0.0558
10248W        W26322  14.143   6.066  15.162  0.0090  0.1957  0.0065
10249W        W26323  11.225  13.830  14.314  0.0074 -0.1781 -0.2268
10250W        W26324   6.371   8.431   3.384  0.2966 -0.0290  0.0995
10251W        W26325  15.498  16.648  14.572 -0.3122 -0.0729  0.1096
10252W        W26326   0.134  16.289   1.071 -0.1962  0.0249  0.0227
10253W        W26327   2.817  16.956   0.871  0.0658 -0.0160 -0.1283
10254W        W26328   4.271   1.650   4.150 -0.0474 -0.0318 -0.1544
10255W        W26329   1.982  12.747  15.773 -0.1443  0.0065 -0.0305
10256W        W26330  11.770   2.668   0.730  0.0428 -0.1051 -0.1060
10257W        W26331  12.620   5.176   4.694  0.0358  0.3217  0.1166
10258W        W26332   8.178   6.243   2.236  0.3033 -0.1988 -0.2935
10259W        W26333  16.424   2.763   4.167  0.2245 -0.1618  0.1024
10260W        W26334  13.900   9.282   4.894  0.1346 -0.2789 -0.0656
10261W        W26335   0.258  13.794   2.717  0.0222 -0.3294 -0.0920
10262W        W26336   3.029  12.943   0.954  0.3095  0.0911  0.2108
10263W        W26337   0.901   4.943  16.594  0.1582  0.3094  0.0340
10264W        W26338  11.128  10.774  15.439 -0.0611 -0.1384 -0.0908
10265W        W26339  14.914  10.185  15.121 -0.0169 -0.0144  0.0171
10266W        W26340   9.723   8.781   6.781  0.0811 -0.1898  0.1455
10267W        W26341   4.951  12.722   5.104  0.0137 -0.0950 -0.0198
10268W        W26342   5.026  14.312   1.009 -0.0815 -0.2023  0.0782
10269W        W26343  14.196   0.935   5.251 -0.0116  0.2427 -0.3204
10270W        W26344  14.490   1.009   2.644  0.0424  0.1484 -0.1564
10271W        W26345  12.293   2.245   0.204  0.2926 -0.0958  0.3831
10272W        W26346   1.745  16.503  16.087  0.0753  0.0384 -0.0679
10273W        W26347   1.857   8.462   5.347 -0.1893 -0.3817 -0.2156
10274W        W26348  15.868  17.246  16.854 -0.2604 -0.0725 -0.0079
10275W        W26349  13.114  14.428  14.926 -0.1090  0.0181  0.1265
10276W        W26350   0.221  10.303   5.165  0.2127  0.1067 -0.3092
10277W        W26351   1.747   3.741  13.650  0.2362  0.1819  0.0921
10278W        W26352  17.421   2.802  12.603  0.3704 -0.0715 -0.1369
10279W        W26353  15.720   6.930  14.153 -0.1948  0.1380 -0.2001
10280W        W26354  13.105  11.816   2.299 -0.1148 -0.0855  0.0548
10281W        W26355  13.904   4.815  14.792 -0.1389  0.0271  0.1110
10282W        W26356  14.628   4.844  11.757 -0.0827 -0.1615 -0.0549
10283W        W26357   4.810  10.602  12.140 -0.1988  0.0287 -0.1314
10284W        W26358   8.397   8.574   3.798 -0.1527 -0.0004  0.0593
10285W        W26359   6.937   2.531   2.721 -0.0414 -0.2236 -0.0656
10286W        W26360   2.536   6.732  13.111  0.2531  0.0610 -0.0157
10287W        W26361   2.906   9.089  16.448  0.1738  0.1119  0.0570
10288W        W26362  10.460  17.293   4.103  0.1554 -0.0470 -0.2735
10289W        W26363  12.570  12.807  15.613  0.0973  0.1955  0.3574
10290W        W26364   1.742  11.674  13.311 -0.1850 -0.0387  0.0036
10291W        W26365   5.893  12.645  11.459  0.4825 -0.0935  0.0646
10292W        W26366  11.546   4.202  14.774  0.2058  0.2901  0.0183
10293W        W26367   8.110  15.388  11.861  0.0754  0.4450 -0.0239
10294W        W26368   0.422  17.630   1.221 -0.0541 -0.1574  0.5423
10295W        W26369  11.833   7.951   0.512  0.1644  0.3107 -0.0237
10296W        W26370  16.872   5.557   0.110  0.0225  0.1964  0.2358
10297W        W26371   5.536   8.550  15.036  0.1860 -0.0800  0.0773
10298W        W26372   9.816   0.263   0.923  0.1257 -0.1933  0.1164
10299W        W26373   9.079  13.761   3.365  0.1607  0.0585 -0.2316
10300W        W26374   4.893   8.994   5.217  0.1134 -0.0032 -0.0619
10301W        W26375  10.241   9.641  16.004  0.0291  0.0495  0.2895
10302W        W26376  12.791   1.451  13.070  0.0449 -0.0502 -0.2262
10303W        W26377   0.120   7.982   0.896  0.2025 -0.1705 -0.0202
10304W        W26378   3.327   3.813   4.022  0.0464  0.3344  0.2034
10305W        W26379  10.674  12.615   4.631 -0.0249 -0.1500 -0.1435
10306W        W26380   7.964  11.010  14.687 -0.0302 -0.1711 -0.2017
10307W        W26381   1.086   0.705  14.912  0.0338  0.2522 -0.1005
10308W        W26382   1.568  16.191  16.490 -0.3039 -0.2085  0.2174
10309W        W26383   8.410   8.995   0.046 -0.0996 -0.1122  0.0458
10310W        W26384   0.835  11.906   2.860  0.4334 -0.5094  0.1071
10311W        W26385   1.360  11.432  16.894  0.1062 -0.0118 -0.0703
10312W        W26386   9.558  16.442  13.648 -0.1952 -0.0730 -0.2583
10313W        W26387  15.030   9.390  13.731 -0.1541  0.3742  0.1589
10314W        W26388   2.936  11.830  12.418 -0.1183 -0.0663  0.2924
10315W        W26389   7.677   8.147   6.470 -0.3937 -0.0925 -0.0989
10316W        W26390  10.066   1.706   5.357  0.1588 -0.0019 -0.0647
10317W        W26391  13.480  17.725   4.805 -0.1848  0.3559 -0.0927
10318W        W26392   3.235   6.183  11.913 -0.1812  0.0519  0.0917
10319W        W26393   0.429   5.302  14.580 -0.1818 -0.1526  0.0260
10320W        W26394  10.244  14.651   1.884 -0.0457  0.0788 -0.1032
10321W        W26395   0.065   3.344   2.282  0.3329 -0.0873  0.2882
10322W        W26396   6.596  16.084  11.973 -0.1973 -0.0138 -0.0796
10323W        W26397   1.555   8.929   2.997 -0.0001 -0.2597  0.0795
10324W        W26398   0.458   4.803  12.730  0.1452 -0.3137  0.1095
10325W        W26399  11.358   4.474  15.891  0.0306  0.1987  0.0112
10326W        W26400   3.165  11.307   2.224 -0.2020  0.0751  0.2032
10327W        W26401  15.923   3.003   1.488  0.1395 -0.2357  0.1366
10328W        W26402   8.150   0.905  12.144 -0.1251  0.4866 -0.2062
10329W        W26403   3.655   5.977   2.382 -0.2909 -0.1662  0.5027
10330W        W26404   3.081   7.202  15.795  0.1737 -0.1122  0.0864
10331W        W26405   9.044   3.876  12.446  0.0648 -0.1868  0.1334
10332W        W26406   2.974  15.526   2.298 -0.0370  0.0197 -0.1587
10333W        W26407  15.309  14.830   0.311  0.0604  0.3083  0.0555
10334W        W26408   6.680   9.895   5.290 -0.1624  0.1228 -0.0844
10335W        W26409   1.826   3.975   4.130  0.0886  0.2249 -0.2250
10336W        W26410  10.147  11.058   2.865 -0.1804  0.2429 -0.0272
10337W        W26411   2.068   5.988   0.647 -0.0137 -0.0648  0.3923
10338W        W26412   8.708   9.475  12.381 -0.1324 -0.1606 -0.2042
10339W        W26413   5.158  17.155   3.175 -0.1526 -0.2278  0.0330
10340W        W26414   7.099   1.687   2.208  0.0107  0.1314  0.0981
10341W        W26415  16.075   2.008  15.621  0.0203 -0.0079  0.1793
10342W        W26416  15.308  16.831   3.985  0.0080 -0.1006  0.3690
10343W        W26417   1.140   5.620  16.094 -0.0169 -0.0845 -0.0337
10344W        W26418   8.820  13.419   5.626  0.2328 -0.1925  0.0236
10345W        W26419   2.775   7.461  14.470 -0.0415  0.1200  0.0296
10346W        W26420   8.615   9.013   4.962  0.1780 -0.1830  0.1742
10347W        W26421   7.037  15.024   1.194 -0.2199  0.1321 -0.0281
10348W        W26422  14.088   6.373   1.320 -0.0510  0.1970  0.0286
10349W        W26423   6.237   1.637   0.680  0.1935  0.2904  0.2495
10350W        W26424   8.548   5.917   1.054 -0.2641 -0.0877 -0.1120
10351W        W26425  10.715   1.947   5.237 -0.0329  0.1139  0.0970
10352W        W26426  13.641  16.503  13.976 -0.0388  0.1098  0.1823
10353W        W26427  10.684   6.269  15.430  0.0712  0.4321  0.1120
10354W        W26428   8.895   0.193  13.625 -0.3076  0.3820 -0.1821
10355W        W26429   4.452   1.119   2.514 -0.0788  0.0482  0.3173
10356W        W26430   0.867  15.316   3.437  0.1247  0.0745 -0.0451
10357W        W26431   0.432  13.331  15.469  0.1156 -0.0893 -0.0684
10358W        W26432   6.344   1.186  12.830  0.1129 -0.0981 -0.1959
10359W        W26433  12.420   3.409   2.179 -0.0027  0.0048 -0.0490
10360W        W26434  15.571  15.467  12.011 -0.0365  0.0879  0.0009
10361W        W26435  11.744   1.668  14.161 -0.1944 -0.0978  0.2137
10362W        W26436  10.523   2.722  14.838 -0.0978  0.1168  0.4580
10363W        W26437  13.717   0.547   0.242  0.0060  0.1050 -0.7458
10364W        W26438   1.810   9.126   1.214 -0.0811 -0.1985 -0.3892
10365W        W26439   4.477   2.613   0.303  0.2040  0.1605  0.0703
10366W        W26440   7.801  13.642  14.578 -0.2480 -0.3054 -0.0920
10367W        W26441  13.995  15.222  13.311 -0.1432  0.0227 -0.0237
10368W        W26442  12.951   1.423  13.899 -0.1898  0.0091 -0.0414
10369W        W26443   4.680  16.400   2.406  0.0876  0.0307 -0.1016
10370W        W26444  15.915   1.379  13.308 -0.4449  0.1342  0.0556
10371W        W26445   5.119   8.551  14.652  0.2208  0.0929 -0.5720
10372W        W26446   5.193   1.666  15.085 -0.0745  0.0839  0.1071
10373W        W26447  15.664  15.119   6.540  0.0863  0.2013 -0.3106
10374W        W26448  10.326   5.665  14.263 -0.0039 -0.3475 -0.2666
10375W        W26449  16.827  17.648   1.477  0.2159 -0.0300 -0.1188
10376W        W26450  17.086   0.728   4.782 -0.0834 -0.2083 -0.2241
10377W        W26451  16.617  16.389   4.212  0.0598 -0.2977 -0.0105
10378W        W26452  13.825  12.147   0.362 -0.1191 -0.2029 -0.0349
10379W        W26453   2.732   0.378   5.985  0.1559 -0.3277 -0.1607
10380W        W26454   4.781   8.937  16.573  0.1300 -0.1955 -0.1393
10381W        W26455  15.333   2.844   3.246  0.4810 -0.0446  0.1535
10382W        W26456  11.227  15.773  14.917  0.1026  0.0400 -0.0224
10383W        W26457   1.128   7.289  15.497  0.0330  0.0261 -0.0786
10384W        W26458  14.893  15.416   1.349 -0.1835  0.1459 -0.0776
10385W        W26459   7.111   8.298   2.628  0.2186 -0.0804  0.0356
10386W        W26460  15.556  11.047   0.652  0.0797 -0.0958 -0.1263
10387W        W26461  16.124   3.170   4.216 -0.2165 -0.1225 -0.0432
10388W        W26462   8.386   6.798   5.411 -0.2176  0.0336 -0.0376
10389W        W26463  13.344   3.294   5.347 -0.1560 -0.1392 -0.0817
10390W        W26464  16.712   3.675  16.346 -0.1280 -0.0937  0.0241
10391W        W26465   3.740  14.673  13.389  0.0268 -0.1685 -0.2749
10392W        W26466  10.715   5.333   6.574 -0.2145 -0.0055 -0.3019
10393W        W26467   8.793  11.732   4.027 -0.2597  0.2268 -0.0014
10394W        W26468   8.695   4.698   3.030  0.0093 -0.0068  0.0239
10395W        W26469  11.271   9.058  14.729 -0.4279  0.0568  0.0236
10396W        W26470  14.623   5.876  14.902  0.1180  0.1344  0.1155
10397W        W26471   8.342   8.480  12.605 -0.1031  0.0272  0.1204
10398W        W26472  14.017  15.454  14.475 -0.0613 -0.0468  0.3595
10399W        W26473  13.416  14.338  15.314 -0.0713  0.3056  0.2346
10400W        W26474  10.462   0.442  16.804 -0.0443 -0.1263  0.2603
10401W        W26475  13.023  16.522   0.058 -0.4517  0.3780 -0.3536
10402W        W26476   0.376   7.580   5.434 -0.0949  0.0415  0.0863
10403W        W26477  12.980  16.816   5.218 -0.2460 -0.2879 -0.1440
10404W        W26478  15.351  13.978   0.477  0.0238  0.0534  0.2950
10405W        W26479  13.869  13.683   0.172  0.4162  0.1905  0.0349
10406W        W26480  13.005   7.425  14.602  0.2598  0.0875  0.2884
10407W        W26481   3.740  16.325  16.436  0.1305 -0.3880  0.0554
10408W        W26482  15.363   0.235  13.489  0.2709 -0.1436  0.1130
10409W        W26483  12.624   2.750   2.523  0.1334 -0.3796 -0.2692
10410W        W26484   1.050   9.774  15.217 -0.0331  0.2193 -0.1595
10411W        W26485   4.648  14.208  14.120  0.2232  0.0163  0.1095
10412W        W26486  14.208   0.971  15.454  0.1735 -0.0806  0.0974
10413W        W26487   7.915   1.984   0.283  0.1667 -0.1981 -0.1051
10414W        W26488   4.815   5.231  16.922 -0.1089  0.0595  0.0560
10415W        W26489   3.126  17.251  14.336  0.1348 -0.0468 -0.0310
10416W        W26490   0.636  17.151  13.163 -0.2408 -0.1791  0.0467
10417W        W26491   6.742  10.358   5.149  0.2366 -0.0099 -0.0382
10418W        W26492  14.321   7.687   3.639 -0.2652  0.0120  0.0895
10419W        W26493  13.354   7.903  16.610  0.2012 -0.0201 -0.2096
10420W        W26494   5.102   7.375   0.088 -0.0345  0.0373 -0.3602
10421W        W26495   0.553   1.793  13.626  0.0190  0.1153  0.1573
10422W        W26496   8.579  10.836   1.079  0.1267 -0.0664 -0.1453
10423W        W26497   3.017  10.824   0.873 -0.2804 -0.1386  0.1265
10424W        W26498   1.564   8.540   4.451  0.0667  0.1073  0.1604
10425W        W26499  10.927  13.109  12.760  0.0300  0.0679  0.0881
10426W        W26500   0.868  10.128  12.708  0.1087 -0.1308  0.1117
10427W        W26501   9.553   0.453   5.813  0.1835 -0.1080  0.2211
10428W        W26502   4.869   2.613  13.400  0.2277  0.1269 -0.0704
10429W        W26503   5.598  11.598  16.043 -0.0827  0.3216 -0.0861
10430W        W26504   6.833   0.300   1.714  0.2121  0.0034 -0.1079
10431W        W26505  10.093  14.642  16.656 -0.1069  0.1279 -0.0472
10432W        W26506  13.365   7.940  12.830 -0.2008  0.0901  0.2548
10433W        W26507  13.334  10.244  16.923  0.2752 -0.1073  0.1597
10434W        W26508  10.085   0.583   3.361 -0.0660 -0.1089 -0.0452
10435W        W26509  11.144   7.856  15.661  0.1402  0.1537 -0.0385
10436W        W26510   9.196   7.164   0.314 -0.1056  0.0821 -0.1032
10437W        W26511  13.766  12.531   3.984 -0.0981  0.1562 -0.1245
10438W        W26512   9.412   1.472   4.064 -0.1589  0.0845 -0.1482
10439W        W26513   9.293   9.776   0.469  0.2578 -0.1353 -0.3171
10440W        W26514  13.154  17.094  14.140 -0.0708 -0.2485 -0.2262
10441W        W26515   0.509   3.666   4.572 -0.2737 -0.1642 -0.2649
10442W        W26516  16.943   3.772   0.254 -0.0624  0.1010 -0.1525
10443W        W26517  15.297  10.629   4.723  0.0315 -0.2265  0.0497
10444W        W26518  11.952  12.952  12.948  0.0154  0.2506 -0.3035
10445W        W26519   7.695   3.957   3.939  0.2865  0.2514 -0.4287
10446W        W26520  16.732  11.188  15.787 -0.0391 -0.1311  0.1620
10447W        W26521   8.235  15.997  12.489 -0.3011  0.1288  0.4002
10448W        W26522  10.165   4.774   6.785  0.1368  0.1656  0.0050
10449W        W26523  13.268   8.792   3.159 -0.2361  0.3196 -0.0805
10450W        W26524   7.376   1.457   2.519 -0.2566 -0.0249 -0.1775
10451W        W26525   5.789  13.437  12.923  0.0876  0.2163  0.2753
10452W        W26526  16.628   6.284  11.913 -0.2227  0.0229 -0.0126
10453W        W26527   9.504   4.966   1.174  0.0427 -0.0802 -0.0377
10454W        W26528  11.328   4.991  15.776  0.1791  0.1092 -0.0030
10455W        W26529   9.486   5.116  15.940 -0.3975  0.1075  0.1913
10456W        W26530   7.188   0.591   0.677 -0.1937 -0.0359  0.0337
10457W        W26531   6.585   3.436   3.795 -0.5819  0.1689  0.0970
10458W        W26532   7.144  16.809  12.651 -0.1091  0.1882  0.5719
10459W        W26533  12.512   3.880   0.761  0.0508 -0.5599  0.0409
10460W        W26534   2.576   5.647   3.692  0.2536  0.1260 -0.1800
10461W        W26535  11.580  13.895  13.579 -0.0841  0.0408 -0.0396
10462W        W26536   5.509   0.929   4.664 -0.0292 -0.1377 -0.0426
10463W        W26537  15.623  13.678   5.074  0.0290  0.0990 -0.1859
10464W        W26538   7.217   7.326   0.531  0.2858  0.1515  0.1421
10465W        W26539   7.396   1.173  15.535 -0.2321 -0.0025 -0.0571
10466W        W26540   3.675  15.299  14.879  0.0808  0.1410  0.4685
10467W        W26541   9.391  12.557  15.908  0.1360 -0.3428 -0.0306
10468W        W26542  13.195   6.654   1.675  0.0136  0.0271 -0.1121
10469W        W26543  10.281   3.304   3.872  0.1484 -0.2731  0.0096
10470W        W26544  12.020  14.257   0.467 -0.2798 -0.3517  0.2793
10471W        W26545  17.008  17.522  12.479  0.5553  0.1309 -0.2847
10472W        W26546  14.813   4.315   3.878  0.0056  0.1278 -0.0951
10473W        W26547   3.550   5.079   5.743 -0.1819  0.1182  0.2651
10474W        W26548  12.441   2.030  16.465 -0.3189 -0.3596  0.0969
10475W        W26549   2.343  10.121   3.841  0.2921 -0.1196 -0.0559
10476W        W26550   3.800   7.457  13.046 -0.3442 -0.1326  0.1588
10477W        W26551  16.920  16.515   5.577  0.3308 -0.0291  0.0627
10478W        W26552  16.402   9.684  11.841  0.0562  0.1767  0.0591
10479W        W26553  13.817   6.740   2.671  0.1467 -0.0061 -0.2166
10480W        W26554   7.716  10.386  16.029 -0.0272  0.0040 -0.0708
10481W        W26555   8.350  17.582   0.446 -0.0443 -0.1509  0.0907
10482W        W26556   5.077  15.266  14.738  0.1717  0.0770  0.0121
10483W        W26557  15.050   1.734   5.549 -0.2101 -0.0117  0.1983
10484W        W26558   7.169   7.883   5.253 -0.0882  0.0080 -0.0538
10485W        W26559  14.826   7.664  16.073 -0.0236 -0.2496 -0.0489
10486W        W26560   4.095   8.104   2.921  0.1030  0.0031 -0.1194
10487W        W26561  10.629  17.391  15.985 -0.1730 -0.3758  0.1252
10488W        W26562  12.778   6.682  15.060 -0.1120 -0.2433  0.1582
10489W        W26563   1.919   3.384   1.499  0.2837 -0.0013  0.0623
10490W        W26564   4.445   7.897  13.582 -0.0892  0.3724 -0.3106
10491W        W26565  12.308   2.851  12.949 -0.3065  0.3063  0.1321
10492W        W26566   1.880   6.370  14.418  0.1795 -0.0178  0.0725
10493W        W26567  10.159   2.254   4.298  0.0554 -0.1935  0.2131
10494W        W26568   2.866  11.970   1.711 -0.0028 -0.0043  0.2966
10495W        W26569  11.786  16.505  16.859  0.1982 -0.0411  0.1405
10496W        W26570   6.026  16.306  12.923 -0.3294 -0.0881  0.0689
10497W        W26571  15.210  14.730  15.449  0.0892 -0.0817  0.2261
10498W        W26572  11.434   1.820   2.126 -0.1918 -0.2395 -0.2855
10499W        W26573   2.223   2.014   3.102 -0.1398  0.0640  0.2455
10500W        W26574   4.734   0.585  13.088 -0.1072 -0.3674  0.1109
10501W        W26575   3.005  11.824   5.938  0.3630  0.2408 -0.0837
10502W        W26576   0.639   8.842  13.768  0.0033 -0.3033 -0.2142
10503W        W26577  14.296   3.682  13.967  0.0281  0.1932  0.1743
10504W        W26578  14.490  15.191   5.022  0.0367  0.3078 -0.0825
10505W        W26579   1.441  17.619   0.888  0.1192 -0.0541  0.1983
10506W        W26580   2.050  13.766  15.123  0.1314 -0.2790  0.1096
10507W        W26581  10.818   3.982  13.651  0.3839 -0.1342  0.1738
10508W        W26582  15.975   1.637  11.896  0.1435 -0.3834  0.1984
10509W        W26583   9.621   0.471  12.834  0.0156  0.2942 -0.0698
10510W        W26584  12.221   8.370   3.062 -0.0373 -0.1313 -0.1376
10511W        W26585  17.179   4.868  12.029  0.3156 -0.1106 -0.1390
10512W        W26586   6.056   5.207  16.249 -0.0997  0.1676 -0.2083
10513W        W26587   0.598   5.210  12.407  0.2565 -0.4123  0.2599
10514W        W26588   3.936   7.231  16.097  0.0129 -0.0902  0.3436
10515W        W26589  17.046   5.204   1.590  0.0310 -0.4971  0.1434
10516W        W26590   1.077  10.723   4.742 -0.0870  0.1757 -0.0896
10517W        W26591   1.798  11.242  16.732 -0.2149 -0.0950  0.0999
10518W        W26592  14.457   4.209   1.068  0.0392  0.1003 -0.0265
10519W        W26593   2.590   9.997  13.677 -0.0130 -0.1624 -0.0841
10520W        W26594  11.374  10.529  11.668  0.0832 -0.0061 -0.0633
10521W        W26595   0.986   4.546  13.841  0.0172 -0.2102 -0.2781
10522W        W26596   4.542   9.507  10.921 -0.1599  0.0555 -0.0585
10523W        W26597   6.059  10.449   2.283  0.3656 -0.0222 -0.2017
10524W        W26598   0.099  13.572   5.511  0.2617  0.1645  0.0727
10525W        W26599  12.373  10.861  13.505 -0.3167 -0.0840 -0.0330
10526W        W26600   9.010   2.760  16.710  0.1954  0.1162 -0.1432
10527W        W26601   4.460   7.368  16.386 -0.0272 -0.3506 -0.1753
10528W        W26602   1.068   0.265   0.922 -0.0890  0.2786  0.0800
10529W        W26603   1.663  10.339  12.369  0.1162  0.0183  0.0794
10530W        W26604  17.009   3.280   3.398  0.1979  0.0631 -0.4730
10531W        W26605  16.179   2.241   5.194  0.0875  0.0898  0.2606
10532W        W26606  12.865  13.470   2.878  0.1673  0.1032  0.0044
10533W        W26607   7.137   8.378  14.740 -0.0331 -0.0447 -0.0534
10534W        W26608   0.300  15.403   5.752 -0.3408  0.0468 -0.0384
10535W        W26609  15.100   4.076  11.975  0.1826 -0.3031 -0.0268
10536W        W26610  14.136  12.167   3.872 -0.0060 -0.0712 -0.0940
10537W        W26611   9.414   3.317  13.189 -0.0035  0.1299  0.1131
10538W        W26612  12.963  10.405   2.743 -0.1471  0.0442  0.2967
10539W        W26613   9.016  16.955  11.342  0.0368  0.1009  0.1602
10540W        W26614  13.533   4.144  16.775 -0.0005  0.0128 -0.0118
10541W        W26615  12.185   4.771   4.690  0.2705 -0.0823 -0.1752
10542W        W26616  14.969  16.255  17.016  0.3179 -0.0141  0.1170
10543W        W26617   9.770   1.496  14.364 -0.2352  0.2756 -0.1176
10544W        W26618  16.411   0.261   2.611  0.2580 -0.0202 -0.2423
10545W        W26619   9.114  15.892   2.837 -0.2118 -0.0317 -0.3906
10546W        W26620   7.915  16.833  13.139 -0.3530  0.1570 -0.3097
10547W        W26621   4.617  10.549  15.961 -0.0036 -0.1204 -0.0812
10548W        W26622  11.525  13.866  15.729 -0.0746 -0.2004 -0.0608
10549W        W26623   3.725  13.587  12.330  0.1069 -0.2804  0.1282
10550W        W26624   7.961  13.371   2.660  0.1566 -0.2321  0.3165
10551W        W26625   5.998   6.841   5.158 -0.2770 -0.0127  0.1463
10552W        W26626   6.557  11.753   3.572  0.2072 -0.0082 -0.0292
10553W        W26627   4.492   6.194   3.263 -0.2422 -0.1549  0.1341
10554W        W26628  10.358  10.355  16.804 -0.0170 -0.0937  0.0784
10555W        W26629  17.510   7.631   4.893  0.2277 -0.0497 -0.1356
10556W        W26630   1.891   2.319   3.548 -0.1206  0.1849  0.4878
10557W        W26631  10.467  13.799   2.583  0.1029  0.0347 -0.0427
10558W        W26632   2.126   0.778   3.765 -0.3624 -0.1254 -0.0939
10559W        W26633   7.452   8.837  13.534  0.3258  0.1073  0.1512
10560W        W26634  16.761  12.330   4.287  0.1362  0.4122  0.0463
10561W        W26635  10.062   0.738  12.952 -0.0596  0.3231 -0.2463
10562W        W26636  15.635   7.978   4.906  0.1310 -0.0956  0.2775
10563W        W26637   9.740   3.833  15.605  0.0168 -0.3489 -0.1300
10564W        W26638   8.139   4.987   4.699  0.1384  0.0382  0.2809
10565W        W26639  12.905   5.242   0.758 -0.1231  0.1582  0.2593
10566W        W26640  15.785   7.131   2.780 -0.1317  0.1013  0.0789
10567W        W26641   3.240   8.010   5.075  0.2907 -0.3780 -0.0256
10568W        W26642  13.586   4.298  14.466 -0.0647 -0.0039  0.0350
10569W        W26643   8.088   6.548   2.644  0.1302 -0.2948 -0.0053
10570W        W26644  12.077   0.771   4.113  0.0980  0.0069  0.0379
10571W        W26645   9.302   4.480  14.109 -0.0474 -0.1190 -0.0496
10572W        W26646   0.175   5.682   1.536  0.1037  0.1860 -0.2509
10573W        W26647  13.585   7.349  13.323 -0.0409 -0.4526  0.0109
10574W        W26648   8.735   4.930  14.422 -0.2428  0.0122  0.1033
10575W        W26649   1.192  11.127   3.652  0.1841  0.2358 -0.1098
10576W        W26650   7.323   0.760   3.848  0.0128  0.2516  0.0943
10577W        W26651   9.753   6.493   0.614  0.2338  0.1621 -0.2743
10578W        W26652  17.008  10.830  13.051  0.2134  0.2555 -0.1820
10579W        W26653  10.109   4.353   3.840  0.3048  0.0290 -0.0841
10580W        W26654   4.328  10.591  13.035  0.0537 -0.5308 -0.0772
10581W        W26655  11.385  10.126   1.442 -0.3961  0.1785 -0.0651
10582W        W26656   8.108   0.042  16.798 -0.1922  0.2923  0.0714
10583W        W26657   3.610   7.711   0.996  0.0110  0.1886  0.0175
10584W        W26658  15.096  16.908   1.344  0.1552 -0.0981 -0.0236
10585W        W26659   1.481  10.977   5.426  0.0878  0.1339  0.2173
10586W        W26660   7.356  12.205   4.301 -0.1111  0.0879 -0.2696
10587W        W26661   6.448  13.042  13.355 -0.0618  0.0931 -0.1259
10588W        W26662   5.206   6.088  14.897 -0.2549  0.1566 -0.0386
10589W        W26663   9.475  16.172   0.488 -0.0542 -0.0295  0.1430
10590W        W26664   8.489   7.534  14.999  0.2821  0.1928 -0.1344
10591W        W26665  17.391   7.933  14.472 -0.1795 -0.1107  0.1247
10592W        W26666  16.011   6.723   0.922 -0.1432  0.0248  0.1433
10593W        W26667   6.364  13.165  15.781 -0.3997 -0.1895 -0.0680
10594W        W26668   1.145   3.653  12.177 -0.3985  0.1712 -0.1324
10595W        W26669  12.961  14.300  12.092  0.0010  0.2113 -0.1312
10596W        W26670   3.031  10.043   0.038  0.2073 -0.2492 -0.3439
10597W        W26671   4.321  12.844   0.758  0.1154 -0.2802  0.2786
10598W        W26672   5.934  16.715   3.219 -0.0229  0.0327 -0.1287
10599W        W26673   6.936  13.896  15.661 -0.0485  0.2382 -0.1706
10600W        W26674  14.869  15.092  13.073  0.1066 -0.1312 -0.0303
10601W        W26675   6.167   9.722  15.525  0.2190  0.2763 -0.0085
10602W        W26676  11.614  15.800   0.093  0.2448 -0.2491  0.2399
10603W        W26677  11.241  14.568   0.608  0.2118  0.2114  0.2005
10604W        W26678   6.331   9.396   1.436 -0.1827 -0.2986  0.1515
10605W        W26679  16.124  15.538   5.257  0.0992 -0.4473 -0.0901
10606W        W26680   2.094  17.671   0.268 -0.1713  0.0186 -0.2230
10607W        W26681   5.885  13.943  13.046  0.0014  0.1411  0.0990
10608W        W26682   7.484   8.214   0.637 -0.0159 -0.1158 -0.2301
10609W        W26683   8.115  16.394  16.181  0.1772  0.3780  0.0416
10610W        W26684   5.389   3.031   3.579 -0.1751 -0.2103 -0.1175
10611W        W26685   4.491   6.554  13.031  0.2412 -0.2554 -0.1612
10612W        W26686   3.800  12.433   1.789 -0.0777  0.2004 -0.1076
10613W        W26687  10.249  12.890  13.041  0.0901  0.0056  0.3439
10614W        W26688   7.406   7.024  16.339 -0.0016 -0.2880 -0.1307
10615W        W26689   2.047   8.661  13.089 -0.0346  0.0147  0.4237
10616W        W26690   5.601  14.986  15.364 -0.3168  0.3914 -0.2328
10617W        W26691  11.871  17.635  15.915 -0.2905  0.3776  0.0969
10618W        W26692   1.567  11.402  14.127  0.2190 -0.2367 -0.2037
10619W        W26693  13.647   1.369  12.814  0.0330 -0.0884  0.1078
10620W        W26694  11.141   7.635  12.068  0.0140  0.1591  0.2833
10621W        W26695   8.292  14.172  11.874 -0.1524  0.1472  0.1274
10622W        W26696   0.850   9.477   2.890 -0.0647 -0.0202 -0.0446
10623W        W26697  15.967   8.727   3.244  0.0184  0.0421 -0.0214
10624W        W26698   8.112   7.787  15.297  0.0798  0.1130  0.1171
10625W        W26699  10.296   1.349   1.939 -0.0019  0.2282 -0.1355
10626W        W26700   6.446   9.344  15.709  0.0518 -0.4582 -0.0812
10627W        W26701  12.727   2.361   0.010 -0.3069 -0.0611 -0.0946
10628W        W26702  15.517  12.689   2.138 -0.1740  0.0981  0.1651
10629W        W26703   9.936  10.408  13.564  0.0025  0.1430  0.4149
10630W        W26704   5.960  11.311   6.483 -0.1797  0.0634 -0.1899
10631W        W26705   5.480   3.613  16.778 -0.0686  0.1136  0.2570
10632W        W26706  16.445  12.286  16.326 -0.1372  0.2174  0.0391
10633W        W26707   5.705   2.028   3.198  0.1641  0.2569  0.0196
10634W        W26708  15.552  11.454   1.392  0.0211  0.1353  0.3016
10635W        W26709  14.020  17.149  15.553 -0.0844 -0.2969 -0.1917
10636W        W26710   5.865  14.377  17.081  0.1471  0.0619  0.0636
10637W        W26711   9.561   3.092  12.718  0.0666 -0.1267  0.2916
10638W        W26712   0.845   6.734  16.260 -0.0645  0.2914  0.0317
10639W        W26713  11.480  13.164  13.649  0.0747 -0.4091  0.1865
10640W        W26714  13.220   7.566   0.458 -0.1839  0.0562 -0.2660
10641W        W26715   6.916   7.091   4.959  0.0251 -0.0112  0.0382
10642W        W26716   9.451  16.787   0.682 -0.1894 -0.2488  0.2672
10643W        W26717  10.380  14.647   4.454 -0.0380 -0.6979 -0.2982
10644W        W26718   9.694   0.929   5.591  0.0941 -0.3148  0.0007
10645W        W26719   9.772  11.893   4.970  0.1113  0.0563 -0.1825
10646W        W26720   6.683   0.416   0.737 -0.0033 -0.0680  0.1584
10647W        W26721   2.156  15.861   0.808 -0.1167  0.1910 -0.1384
10648W        W26722   5.688   5.822  12.975 -0.0190  0.0323 -0.4384
10649W        W26723  16.883  11.809  15.142  0.1525  0.1961  0.1517
10650W        W26724   3.312  17.128   0.722 -0.4042  0.0311 -0.0321
10651W        W26725   4.266  14.927  14.917  0.0807  0.0522  0.2489
10652W        W26726  16.095   7.570   5.352 -0.3289 -0.0311 -0.1056
10653W        W26727  14.217  10.496  13.368  0.2379 -0.0649  0.0376
10654W        W26728  12.124   9.941  16.788  0.1519  0.1189 -0.0539
10655W        W26729   6.621  12.096   2.257 -0.0290  0.0952  0.2107
10656W        W26730  11.569   9.196  12.633 -0.0289  0.1388 -0.1913
10657W        W26731  13.812   1.550  14.108  0.2618  0.1179  0.2227
10658W        W26732  11.998   7.556  12.199 -0.1063 -0.1721 -0.1652
10659W        W26733  12.894  14.652   0.282 -0.0784 -0.2144  0.2470
10660W        W26734   2.740   5.941  15.597 -0.0814  0.5793  0.2545
10661W        W26735  16.542  14.198  16.221  0.0130  0.0770 -0.2611
10662W        W26736   0.832  14.511  14.903  0.1673 -0.4548  0.2848
10663W        W26737   0.466  12.113  15.136 -0.1244 -0.2297 -0.0444
10664W        W26738  16.847   0.329   4.490 -0.5059 -0.2115  0.0323
10665W        W26739  13.845   8.062  16.452 -0.0039 -0.0840  0.3751
10666W        W26740   8.001   9.176  12.170  0.1768  0.4991 -0.0641
10667W        W26741   5.941   9.865   0.040  0.3674 -0.1279 -0.1652
10668W        W26742  12.441  16.566  12.792 -0.0658  0.3928 -0.3774
10669W        W26743   7.318  14.760   3.921 -0.3399 -0.1484 -0.0302
10670W        W26744  15.769   0.794   2.629 -0.0866 -0.2036 -0.0045
10671W        W26745   1.050  13.730   4.270 -0.1514  0.0792  0.3310
10672W        W26746  16.774  15.130   3.241  0.0541 -0.1339  0.1892
10673W        W26747  15.228   7.480  13.461 -0.0407 -0.0958 -0.4396
10674W        W26748   6.820   6.358  15.221  0.1696  0.0713  0.0152
10675W        W26749  13.581  16.795  13.270  0.4203  0.0045  0.4145
10676W        W26750   8.944   0.366   0.832 -0.0461  0.0900  0.0837
10677W        W26751  12.255  11.957   1.253  0.0107 -0.1926 -0.0878
10678W        W26752  17.619   6.285   3.638  0.0416  0.2225 -0.2757
10679W        W26753   6.107   6.616  16.800 -0.2362  0.0268  0.3069
10680W        W26754  15.651  16.040   2.069 -0.0672  0.0325 -0.0555
10681W        W26755   2.013  17.593   5.589 -0.0160 -0.1579  0.0867
10682W        W26756   6.797   2.407   1.192  0.0724 -0.2364  0.3172
10683W        W26757   0.388  12.305   1.055  0.0057  0.3175 -0.1623
10684W        W26758   1.267   8.581  15.033 -0.3098 -0.3772  0.1896
10685W        W26759  10.828   9.951  16.811 -0.2495  0.0997 -0.1005
10686W        W26760   7.728  14.430   4.631  0.0024  0.1496  0.0318
10687W        W26761   5.936  13.951   4.069  0.2210  0.1888  0.0975
10688W        W26762   5.385   6.778  12.045  0.1880 -0.1544 -0.0209
10689W        W26763  11.530   2.769  13.452  0.2237 -0.0221  0.0169
10690W        W26764   1.796   2.497  12.036 -0.1981  0.1047  0.0703
10691W        W26765  15.671  14.847  12.611 -0.1340  0.0948  0.0421
10692W        W26766   3.365  11.527  11.715  0.3067 -0.2294  0.2681
10693W        W26767   0.111   5.808  12.894  0.0377 -0.1658  0.3666
10694W        W26768   3.357   5.965  16.413  0.0079 -0.1669 -0.3931
10695W        W26769  17.205  11.472   4.103 -0.0488  0.0362 -0.0419
10696W        W26770   2.227   4.327   1.136  0.1332  0.2175  0.0625
10697W        W26771  13.833  16.635  11.968  0.0621 -0.0600 -0.1678
10698W        W26772   9.711   7.254   1.146 -0.0401  0.0977 -0.1554
10699W        W26773  15.501  12.370   1.180 -0.0136  0.1085  0.3658
10700W        W26774   7.972   1.873   5.558  0.0823  0.0885 -0.0400
10701W        W26775  13.046   0.150   5.793 -0.1103 -0.0156  0.2387
10702W        W26776  11.216   7.256   3.344 -0.0251 -0.1859  0.0882
10703W        W26777   1.525   6.987  14.565 -0.2372  0.0295 -0.1457
10704W        W26778  11.698   4.787  16.074  0.2423  0.0041  0.0723
10705W        W26779   6.145  15.754  14.633  0.1490 -0.0807  0.0243
10706W        W26780  15.802   4.754  13.979 -0.2719  0.1651  0.1085
10707W        W26781  12.028  13.921  16.720  0.1958 -0.0929 -0.0726
10708W        W26782  10.696   4.607   0.495  0.1179  0.1991 -0.0816
10709W        W26783  16.040   9.862   1.832 -0.1726  0.0075  0.0704
10710W        W26784   5.405  14.049   2.931  0.0831  0.0652 -0.1859
10711W        W26785  10.554   4.782   1.880 -0.0512  0.3584  0.1994
10712W        W26786  13.421  10.699   3.830  0.3437 -0.0952  0.0597
10713W        W26787   4.941   7.027   0.634  0.0631  0.2002 -0.1746
10714W        W26788   7.560  13.525   2.865 -0.3226  0.3393 -0.2259
10715W        W26789   8.491  10.198   3.050  0.0584  0.0068  0.1522
10716W        W26790  14.725   4.665  16.622 -0.0555 -0.0531 -0.1023
10717W        W26791  17.551  15.856  15.061 -0.0505  0.1636 -0.0138
10718W        W26792  17.240  10.708   1.829  0.0200 -0.0831 -0.0854
10719W        W26793  11.531  16.432   5.607  0.0518  0.1471 -0.1265
10720W        W26794  12.627   1.613  12.598  0.0540  0.0055 -0.2628
10721W        W26795  12.753  15.548   5.165 -0.2127 -0.1151  0.1741
10722W        W26796   4.815  11.104  16.666  0.0632 -0.1849 -0.1624
10723W        W26797   3.289   9.878   0.914 -0.0512  0.0538 -0.3388
10724W        W26798   5.170  11.034   2.255  0.4141  0.1898 -0.2308
10725W        W26799   1.935  14.718  11.810  0.0983  0.0520 -0.0795
10726W        W26800   8.244   0.340  15.206 -0.1127 -0.2408 -0.3349
10727W        W26801  15.298  11.323   3.719 -0.1400  0.2685 -0.0508
10728W        W26802  11.536   3.034  11.185 -0.0409 -0.0529  0.2488
10729W        W26803  10.319   0.156   1.101  0.1648  0.0681  0.0297
10730W        W26804   2.657   2.124   2.709  0.5233  0.0715  0.0744
10731W        W26805   0.606  16.551   1.581 -0.0048 -0.1801 -0.3092
10732W        W26806   1.423  14.342  16.267  0.0024  0.0274 -0.2186
10733W        W26807   0.106  14.959   2.996 -0.2183 -0.1188  0.1615
10734W        W26808  13.050  16.445   4.523 -0.3132 -0.0694 -0.1851
10735W        W26809  16.596  14.649  12.332  0.1005 -0.0216  0.2387
10736W        W26810  11.272  16.614   1.672 -0.1244 -0.0662 -0.2541
10737W        W26811  13.901   6.666   5.109 -0.0763  0.2416 -0.1187
10738W        W26812  14.887   8.426  12.625  0.1603  0.0691  0.3160
10739W        W26813  17.329  10.241   4.454  0.0515  0.3017  0.1175
10740W        W26814  11.656   5.019   5.022 -0.0811 -0.0212  0.3837
10741W        W26815  10.717  10.341  17.145 -0.1819 -0.0470  0.0175
10742W        W26816  16.279   1.743   6.597 -0.0454  0.1287  0.0895
10743W        W26817  12.556  10.617   6.309 -0.1658 -0.1703  0.2410
10744W        W26818  13.996   1.537  16.904 -0.3214 -0.2286 -0.2429
10745W        W26819  14.544   0.116  12.559 -0.0528  0.4042  0.1858
10746W        W26820  12.888  12.231  16.604  0.1364  0.1636  0.1478
10747W        W26821   1.854   6.564  13.929 -0.0618  0.4483 -0.0409
10748W        W26822   2.019   8.606   3.660  0.0350 -0.0834 -0.4516
10749W        W26823  12.998   1.979  15.852 -0.0809 -0.0414  0.3460
10750W        W26824  17.434   9.845  12.769 -0.1092  0.0333  0.1985
10751W        W26825  14.357  12.155   5.157 -0.1388 -0.3010 -0.0852
10752W        W26826  10.680   3.421   1.433  0.2805  0.0659  0.1294
10753W        W26827   6.705   5.929   3.574 -0.1617 -0.0488  0.1037
10754W        W26828  13.207  13.276   5.582 -0.0818  0.2209 -0.1972
10755W        W26829   7.388   5.400   1.424 -0.0589  0.2724  0.1930
10756W        W26830   9.962   3.016   5.736 -0.1446  0.2103 -0.1156
10757W        W26831   9.620   7.677   4.687  0.0385 -0.1277 -0.0732
10758W        W26832  15.268  16.389   3.750  0.0916  0.0733  0.3498
10759W        W26833   2.597   2.804   3.580 -0.1305 -0.2322  0.0645
10760W        W26834  13.997  11.364   5.907  0.3475 -0.2021  0.1629
10761W        W26835   2.033   3.596   0.662 -0.0788 -0.1084  0.2776
10762W        W26836   0.511   1.351  11.933 -0.0820 -0.0929  0.1430
10763W        W26837   2.893   7.121  14.084 -0.1207 -0.1826 -0.1240
10764W        W26838   9.212   3.838   4.767  0.0386  0.1666  0.1427
10765W        W26839   0.889   7.762   5.499  0.0423 -0.0195  0.1803
10766W        W26840  13.757   9.812  12.014 -0.1999 -0.1272  0.2729
10767W        W26841   5.870   7.732  15.988  0.1551  0.0108  0.2947
10768W        W26842   1.640   0.921   4.207 -0.3069  0.0516  0.0282
10769W        W26843   9.763   0.133  13.657  0.0646  0.0497  0.1863
10770W        W26844   6.489  10.753   0.314  0.0534 -0.2900  0.1685
10771W        W26845  15.927  16.485   0.890 -0.1829 -0.0947 -0.3537
10772W        W26846   2.888   2.964   5.940  0.1556 -0.0208 -0.1569
10773W        W26847   6.934  13.262   3.721 -0.0196 -0.2035  0.2959
10774W        W26848   1.659  12.850   1.634  0.0322  0.2853 -0.0839
10775W        W26849   2.058  16.580  14.093  0.1068 -0.0704 -0.2567
10776W        W26850   4.723   6.734  15.219 -0.0098  0.2415  0.0678
10777W        W26851   3.653   4.095  16.527  0.1047  0.1790 -0.1745
10778W        W26852  15.356  16.544   2.416  0.0388 -0.1466 -0.0912
10779W        W26853  12.231  11.791  14.363 -0.1397 -0.1013  0.1599
10780W        W26854   8.467  14.830   0.408 -0.1878 -0.1206 -0.0646
10781W        W26855  10.581   8.089   1.751  0.0643  0.1951  0.1602
10782W        W26856   6.960  15.129   5.701  0.0348  0.2311  0.0437
10783W        W26857   0.355   0.118  13.898 -0.0191 -0.1276 -0.1564
10784W        W26858   2.402  11.256  16.037 -0.0920 -0.0970 -0.0849
10785W        W26859   5.723  16.805  12.250 -0.1394  0.1241 -0.0525
10786W        W26860   1.786  15.929  15.516 -0.0264 -0.1236  0.1181
10787W        W26861  15.178   7.446  11.790 -0.1773  0.1382 -0.1215
10788W        W26862   9.104  10.183   0.200  0.0808 -0.0273  0.2171
10789W        W26863  12.767   6.658  14.074  0.2887  0.1477  0.0346
10790W        W26864  13.303  16.466  15.361  0.1123 -0.2795 -0.1138
10791W        W26865   4.502  14.484  15.182 -0.0422  0.1276 -0.3061
10792W        W26866   7.475   7.151  15.877 -0.0335  0.1124  0.2530
10793W        W26867  17.416   4.519   0.822  0.1186 -0.0528 -0.1249
10794W        W26868  16.410  10.878   1.378 -0.0919  0.2049 -0.3042
10795W        W26869  17.390  12.344  16.967  0.4456 -0.1063  0.1011
10796W        W26870  10.205   3.569   1.379 -0.0775 -0.3423  0.1119
10797W        W26871  15.040  12.820   3.203 -0.3465  0.3841  0.0230
10798W        W26872  13.518   0.532   1.053 -0.2942  0.3018  0.1658
10799W        W26873  13.914  11.577  13.279 -0.0299 -0.1739  0.0070
10800W        W26874  10.176   8.834   2.217 -0.1246  0.4855  0.2707
10801W        W26875  13.926   1.782  13.032  0.1056 -0.2569  0.1318
10802W        W26876  16.230   0.926   2.904  0.0623 -0.0071  0.0334
10803W        W26877  13.446   7.016   4.261 -0.2541  0.0031  0.3480
10804W        W26878  14.385   0.706   6.113  0.2900 -0.0814 -0.0392
10805W        W26879   5.210   6.947  11.613  0.0357  0.2441  0.1322
10806W        W26880  16.499   6.296  15.659  0.2361  0.2277  0.2294
10807W        W26881  16.877   1.106   3.871 -0.1116  0.2443 -0.1139
10808W        W26882   6.482  11.008  14.325  0.2115 -0.0222  0.0473
10809W        W26883   3.634   2.056  13.978  0.0493 -0.1670  0.0565
10810W        W26884  14.998   5.494  12.734 -0.1431 -0.1033 -0.1244
10811W        W26885   3.035   0.594   1.069  0.0483  0.1109  0.0187
10812W        W26886   8.035  15.522  16.465 -0.1144 -0.4283 -0.0290
10813W        W26887   7.934   5.328  12.306  0.0257 -0.0835 -0.2987
10814W        W26888  17.192  16.526   5.111  0.0983 -0.0466 -0.1073
10815W        W26889  12.492   6.156  13.332 -0.0748  0.1741  0.2874
10816W        W26890   1.489  11.914  14.924 -0.1557  0.0991 -0.1793
10817W        W26891   9.772   0.517  13.325 -0.1081 -0.1415 -0.1866
10818W        W26892  10.430   0.062  12.233  0.2810 -0.0098 -0.1512
10819W        W26893  12.837  11.022   1.159  0.0865 -0.3518  0.0131
10820W        W26894   9.051   7.227   3.000 -0.0395 -0.1287 -0.1783
10821W        W26895   3.352   4.948   0.880 -0.0801  0.2643 -0.2207
10822W        W26896  12.445  11.876  15.828 -0.1230  0.0030  0.2285
10823W        W26897  15.895   0.579   1.743  0.3323 -0.1098  0.2606
10824W        W26898   1.490  17.301   4.356 -0.1133 -0.2378 -0.2840
10825W        W26899  17.528  12.050  12.631  0.1506  0.2485  0.1322
10826W        W26900  12.766  15.151   3.584 -0.1742  0.1677  0.1184
10827W        W26901   6.352   6.059  15.751  0.0925  0.0997 -0.0588
10828W        W26902  17.225  11.262  15.922 -0.2269 -0.1387  0.1228
10829W        W26903  10.140   6.555   0.946  0.1361 -0.0630  0.4135
10830W        W26904  16.951  13.449   5.128 -0.1917  0.2548 -0.1859
10831W        W26905  13.855   4.206   3.001 -0.3073 -0.1254  0.0527
10832W        W26906   0.770   3.031   2.272 -0.0122 -0.3803  0.0171
10833W        W26907   8.320  13.133  12.850  0.4186  0.0885  0.1312
10834W        W26908   0.026   4.171   6.105  0.0988  0.0859  0.1870
10835W        W26909  12.990   9.232  12.465 -0.1573  0.0078  0.0693
10836W        W26910   9.029   6.063   5.746 -0.0420  0.2834  0.2631
10837W        W26911   6.229  11.927   0.060  0.2615 -0.1045  0.0847
10838W        W26912   0.306   7.883  14.707 -0.1114  0.0003 -0.0378
10839W        W26913  10.023  13.932  14.705 -0.0410 -0.2689 -0.1657
10840W        W26914   9.988   0.394   2.163  0.0224 -0.3668 -0.1399
10841W        W26915   9.230   9.574  16.288 -0.0187 -0.0114  0.1147
10842W        W26916  16.514   9.765  11.051 -0.0398 -0.2186 -0.4014
10843W        W26917  11.968   3.643   2.172 -0.0231  0.0018 -0.4731
10844W        W26918  13.626  13.155  13.746 -0.0104 -0.0049 -0.0067
10845W        W26919   4.807   0.846  16.598 -0.1305 -0.0230 -0.3801
10846W        W26920   7.269  12.626  15.943 -0.1670 -0.1734 -0.2261
10847W        W26921  10.563   4.852   5.486  0.0146  0.0820  0.1131
10848W        W26922  11.943  10.940   3.875  0.1349 -0.0121 -0.0648
10849W        W26923  14.038   3.411  14.307  0.0776 -0.2993 -0.0273
10850W        W26924  16.638  16.812   4.433  0.1825 -0.1908  0.1544
10851W        W26925   7.576  10.820   5.644  0.0795  0.0434  0.2762
10852W        W26926  11.277  16.207   4.087  0.3809 -0.1289 -0.2745
10853W        W26927   0.920  16.619   2.847  0.0852  0.0782  0.0985
10854W        W26928  13.070   4.016  12.463  0.0726  0.0982 -0.2859
10855W        W26929   1.916   3.112  16.641 -0.0613  0.0161  0.0371
10856W        W26930   4.891   1.288  15.783 -0.0305 -0.1611 -0.0772
10857W        W26931   6.372  16.801  15.083 -0.1444  0.2809  0.0975
10858W        W26932   4.088  15.301   1.341  0.0338 -0.1285  0.0864
10859W        W26933  14.448   2.710  13.187 -0.3344 -0.0031 -0.1471
10860W        W26934  15.461  12.188  14.854  0.1988  0.0586  0.0631
10861W        W26935   8.110   3.318  12.923  0.0059 -0.1385 -0.1328
10862W        W26936   1.246   0.832  13.407  0.1483  0.1149 -0.0081
10863W        W26937   9.172   3.613   0.739  0.0228 -0.0060  0.4784
10864W        W26938  14.764   0.503   1.855  0.1343 -0.1696 -0.0155
10865W        W26939   6.747  15.667  17.148 -0.0672 -0.0898 -0.2224
10866W        W26940   8.517  12.895  13.768 -0.0965 -0.1606  0.0503
10867W        W26941  16.937  10.118   4.719 -0.0544 -0.1835  0.1557
10868W        W26942   3.089   0.557   2.626  0.0640  0.0326  0.2949
10869W        W26943  16.502  15.688  13.703 -0.0697  0.2827 -0.0670
10870W        W26944  10.640   4.047  14.638 -0.1808 -0.1961  0.2661
10871W        W26945  11.780   0.451  16.172 -0.1248 -0.0012 -0.0486
10872W        W26946   6.423   0.278  14.154  0.0895  0.1393  0.1835
10873W        W26947   0.050   5.841   2.735 -0.0194  0.0376  0.1923
10874W        W26948   9.445   8.906  13.539 -0.1109  0.1173 -0.1357
10875W        W26949   2.655   4.375  16.530  0.1148 -0.0211  0.2190
10876W        W26950  10.542   7.817   3.261 -0.1304 -0.0729  0.0829
10877W        W26951   1.946   9.057  15.506  0.0889 -0.1414 -0.0787
10878W        W26952   5.589  10.883  17.004  0.1749 -0.0796  0.1825
10879W        W26953   4.580  15.574  14.559  0.4966  0.1094  0.0197
10880W        W26954   4.661  17.059  16.215 -0.1327  0.3003 -0.2097
10881W        W26955   9.536   6.533  14.938 -0.1142  0.2986  0.0877
10882W        W26956   2.778   2.150  13.420  0.0825 -0.0902  0.1826
10883W        W26957  11.739   1.001   1.428 -0.0795 -0.1010 -0.0102
10884W        W26958  14.197   0.410  15.537 -0.0801  0.2224 -0.0532
10885W        W26959   3.791  11.293   4.571 -0.2196 -0.1210  0.2038
10886W        W26960   9.827  14.701   5.154  0.1966 -0.0346  0.0230
10887W        W26961  10.397   9.954  14.238  0.3574  0.0727 -0.1846
10888W        W26962  10.310  17.720  14.933 -0.1521  0.2690 -0.1035
10889W        W26963   7.927  16.587   5.290  0.1574 -0.0517  0.1802
10890W        W26964   1.454  14.329   2.242  0.1122 -0.1760 -0.0878
10891W        W26965   5.251   8.566   4.502  0.4116  0.3806  0.2228
10892W        W26966  11.004   0.440  16.869  0.2198  0.1822 -0.0511
10893W        W26967  10.130   8.952   1.284  0.0380  0.3097  0.0391
10894W        W26968   0.490   6.359   2.291  0.0543  0.0637 -0.0061
10895W        W26969  11.550  13.832  16.842 -0.0497  0.1152 -0.1946
10896W        W26970  16.782   0.389   1.161  0.1257  0.1081 -0.1585
10897W        W26971   3.183  15.440  11.841  0.1436 -0.2045  0.1912
10898W        W26972  13.681   0.955  14.108 -0.3213  0.0169 -0.1889
10899W        W26973  12.980   2.375   4.613 -0.3128 -0.2205  0.2272
10900W        W26974  14.374   4.847   1.743 -0.2518 -0.3015 -0.0169
10901W        W26975  11.579   5.530  11.526  0.1404  0.0103 -0.1170
10902W        W26976  14.437  16.406   1.967  0.0143 -0.0295  0.1501
10903W        W26977  11.850   8.340  17.041  0.0697  0.0131 -0.2797
10904W        W26978  13.901   1.178  13.171 -0.1400 -0.0920  0.0705
10905W        W26979  11.813   2.546   2.835 -0.1390  0.1681 -0.1672
10906W        W26980  12.231   4.990   5.947  0.3026 -0.3465 -0.1412
10907W        W26981   2.715  14.226  15.677 -0.2316  0.2064  0.0688
10908W        W26982  11.286  14.663  15.158  0.1642 -0.1489 -0.0018
10909W        W26983   4.060   3.998  17.070  0.1698 -0.1959  0.0365
10910W        W26984  13.911   1.147  13.744 -0.1694 -0.1491 -0.0633
10911W        W26985   0.639  14.250   0.468  0.2922 -0.0443  0.1667
10912W        W26986   1.999  17.034   3.904  0.1907  0.0432 -0.1063
10913W        W26987  16.903  10.862  14.358  0.1345  0.1731  0.1992
10914W        W26988  15.847   3.423  13.736 -0.0641  0.0835  0.0707
10915W        W26989  12.467   6.066   3.794 -0.3118  0.0285  0.1895
10916W        W26990   5.783   1.722  11.346  0.0609  0.0407  0.0214
10917W        W26991   1.912  12.889   0.197 -0.1608 -0.1407  0.2071
10918W        W26992   2.189   2.336   2.699 -0.2268  0.0860 -0.1153
10919W        W26993   0.811   0.221   0.219  0.0348  0.1480  0.0866
10920W        W26994  10.014   5.340  14.396  0.0607  0.1076 -0.0307
10921W        W26995  12.118   4.469  13.213  0.1213  0.1688 -0.0421
10922W        W26996   9.158   7.473  14.387  0.0980  0.1083  0.0252
10923W        W26997   4.854  16.843   0.501  0.0213 -0.1650  0.0600
10924W        W26998   4.113   5.634  14.440  0.1934  0.2032  0.0620
10925W        W26999   4.687   4.815  14.609 -0.1768 -0.1003  0.0072
10926W        W27000   7.841   1.536   4.576 -0.0684 -0.1350  0.0966
10927W        W27001  11.659  15.995  12.890  0.1267 -0.0530  0.2346
10928W        W27002  10.424  13.797   4.878  0.0654 -0.1702  0.3517
10929W        W27003   4.685   5.324  13.162  0.0340 -0.0426 -0.1375
10930W        W27004   2.531  16.787  15.671  0.1653  0.0544 -0.0749
10931W        W27005   8.010   3.755  16.753 -0.1752  0.1479  0.1195
10932W        W27006   5.955   8.838  14.113  0.3316 -0.1450 -0.0460
10933W        W27007   0.659   7.746  13.254 -0.0040 -0.3498  0.1405
10934W        W27008   5.318   9.921   0.068 -0.0832  0.1934  0.0375
10935W        W27009   9.059  13.552   2.864  0.1371  0.0225  0.0316
10936W        W27010   7.282  12.123  12.722 -0.1997 -0.2319 -0.0010
10937W        W27011  12.995  11.196   0.265 -0.0013 -0.2119 -0.0227
10938W        W27012   5.658  16.766  16.235  0.0072  0.2362 -0.1035
10939W        W27013  17.662  16.654  14.940 -0.1439 -0.0009 -0.0676
10940W        W27014   0.907  14.830  17.037  0.0818  0.1048  0.2779
10941W        W27015   4.230  10.652  13.525  0.1512 -0.0916 -0.2137
10942W        W27016  16.197  15.240   0.235 -0.2734  0.0887 -0.1334
10943W        W27017  17.228  16.476   2.147  0.1517 -0.3047  0.2571
10944W        W27018  17.487  10.924   3.813  0.1166 -0.2391 -0.2806
10945W        W27019   4.263   0.463   5.295  0.1443  0.2961  0.2926
10946W        W27020  15.196   5.767  13.800  0.4097  0.1570  0.0796
10947W        W27021   1.840   5.683  14.558  0.0313  0.1019 -0.1042
10948W        W27022   4.929  12.231   3.087  0.0329  0.1067 -0.1837
10949W        W27023   5.710  14.212   4.454 -0.0198 -0.1645 -0.2066
10950W        W27024   1.477   3.138  14.964  0.0700 -0.2449 -0.2266
10951W        W27025   4.772   8.483  14.181 -0.0607 -0.0528  0.0829
10952W        W27026   2.517  11.049  12.793 -0.2278  0.3215 -0.2754
10953W        W27027  12.635  11.363  16.113 -0.3117  0.0915 -0.0827
10954W        W27028   6.241  14.228  16.302 -0.1436 -0.0321  0.0585
10955W        W27029   7.905  12.794   4.126 -0.0535 -0.0775  0.1383
10956W        W27030  12.581  15.122  14.592  0.1743  0.0815  0.1013
10957W        W27031   5.618   9.160  11.968  0.0012 -0.0993  0.0794
10958W        W27032  14.531   8.826  11.970  0.1865 -0.3488 -0.1659
10959W        W27033  13.401   5.614  14.254 -0.4475 -0.6890 -0.1294
10960W        W27034   4.468  15.892  14.961  0.0124 -0.2503 -0.1230
10961W        W27035   3.919  17.487  14.245 -0.2823  0.0094  0.0323
10962W        W27036  16.104  10.490  12.026  0.0612  0.0729 -0.1031
10963W        W27037   4.714  12.051   0.529 -0.1649  0.0167 -0.1595
10964W        W27038  12.740  10.037   0.425  0.1930 -0.0751 -0.0350
10965W        W27039   7.647   9.858  13.762  0.0270 -0.3349  0.0127
10966W        W27040   1.829   6.284  16.345  0.0514  0.1903 -0.1056
10967W        W27041   5.200  12.064   0.608  0.1394 -0.2462  0.0241
10968W        W27042   8.425  10.736   3.170 -0.0436 -0.0167 -0.1940
10969W        W27043   8.209   5.813  12.367 -0.0045 -0.1652  0.1213
10970W        W27044  16.848  13.795  11.980 -0.1342 -0.0001  0.1224
10971W        W27045   5.784   0.497   1.370 -0.2348  0.0292  0.0994
10972W        W27046  12.878  16.677  12.550  0.1553  0.2216  0.2873
10973W        W27047   9.727   0.681   0.321  0.1184 -0.0112  0.2373
10974W        W27048   7.581  17.428  14.160 -0.2839 -0.1981  0.0800
10975W        W27049   2.120   5.586   0.918 -0.3785 -0.1067 -0.0027
10976W        W27050   4.487   5.781   4.812  0.1924 -0.2352 -0.0851
10977W        W27051  17.551  13.410  13.452 -0.1877 -0.0327  0.0940
10978W        W27052   1.622   1.431   2.942  0.0906  0.0029 -0.0813
10979W        W27053   1.938  10.661   6.108  0.2286  0.1027  0.0990
10980W        W27054  11.964   0.514  14.361  0.1212 -0.1216 -0.1366
10981W        W27055   3.510  12.502  16.526  0.4645 -0.4088  0.3227
10982W        W27056  16.206  14.660   2.874 -0.0461 -0.3088  0.2175
10983W        W27057   8.383  12.724   5.393 -0.0908  0.2153  0.0405
10984W        W27058   1.718   8.654  15.704  0.0500 -0.1968  0.0883
10985W        W27059  12.025   5.049   2.655  0.0077  0.5253 -0.0925
10986W        W27060   5.495   8.489   0.816  0.1793  0.0254  0.0144
10987W        W27061  15.310  17.615   5.118 -0.0684  0.1346  0.1318
10988W        W27062  17.520  11.782   2.628 -0.0781 -0.0359  0.3647
10989W        W27063   7.948  11.686   3.684 -0.1049  0.1035 -0.2867
10990W        W27064  12.849   9.419   2.038  0.1118 -0.0373 -0.1969
10991W        W27065   5.972  15.405  11.764  0.0737 -0.2394 -0.0032
10992W        W27066   0.635   7.318  12.910  0.1065 -0.1133  0.2696
10993W        W27067   4.435   5.405  14.002 -0.1350  0.2594 -0.1511
10994W        W27068   6.759   7.462   3.215 -0.0016 -0.1528  0.0429
10995W        W27069  11.463  17.043  11.942 -0.1920  0.2013  0.0982
10996W        W27070  16.626  10.424  14.437 -0.2165  0.0494  0.0413
10997W        W27071  10.708   3.304  15.514 -0.3130  0.1066 -0.2023
10998W        W27072  15.233  11.324   6.427 -0.4201  0.0341 -0.1270
10999W        W27073   7.472  11.860  13.134  0.2197  0.0645 -0.1069
11000W        W27074  16.914  10.030  16.450  0.4509  0.0806  0.0533
11001W        W27075   0.722   3.730  15.634  0.2163  0.0299  0.2646
11002W        W27076  15.936  16.492  14.709  0.0175 -0.3062  0.1826
11003W        W27077  15.945   2.596   2.630 -0.0201  0.2826 -0.1678
11004W        W27078  16.184   6.976  12.257 -0.1776  0.1787  0.2925
11005W        W27079   3.608   6.878   4.841 -0.0110  0.0327  0.1147
11006W        W27080   3.887  12.549  15.335 -0.0801  0.0162 -0.2382
11007W        W27081  14.709   8.051   1.603  0.1386 -0.1304  0.4222
11008W        W27082  10.275  17.162   0.395 -0.3038  0.3191 -0.1468
11009W        W27083  15.845  11.724  15.702 -0.2065 -0.0747 -0.1560
11010W        W27084  17.189   2.856   4.966 -0.0792  0.0089  0.2115
11011W        W27085   4.646  16.716  15.843  0.0137 -0.0010 -0.0232
11012W        W27086   5.821   5.585   1.113  0.1207  0.1110 -0.0252
11013W        W27087  13.694  17.170   2.308 -0.0737 -0.2287  0.0880
11014W        W27088   6.889  10.708  14.816  0.1735 -0.2394  0.3741
11015W        W27089  14.807   3.467  12.230  0.1612 -0.2047  0.1375
11016W        W27090   5.792   5.006   5.833  0.2247 -0.0426  0.1874
11017W        W27091  10.171   6.095   1.871  0.0102 -0.0258  0.0594
11018W        W27092  16.081   3.877   0.538  0.0634 -0.1701 -0.0043
11019W        W27093   4.935  16.928  13.003  0.3859 -0.2437 -0.2081
11020W        W27094   7.627   8.433  13.311 -0.0177  0.0689  0.1684
11021W        W27095   7.863   7.880   4.752  0.2762  0.2951  0.0641
11022W        W27096   2.355   7.461   5.600 -0.0411  0.1221  0.0052
11023W        W27097  10.732  16.521   2.585 -0.0043  0.0808 -0.0002
11024W        W27098  15.211   3.694  13.012 -0.1167  0.0275 -0.1393
11025W        W27099   5.808   5.976  15.656 -0.0123 -0.1473  0.3085
11026W        W27100  10.580   9.504  16.732  0.0588  0.1101  0.0184
11027W        W27101   3.294  11.897   5.513 -0.2905 -0.1267  0.2006
11028W        W27102   4.328   8.511   3.340 -0.2626 -0.1820  0.1704
11029W        W27103  16.929   3.698  16.926 -0.1040 -0.0598 -0.0119
11030W        W27104  11.527   6.141  16.286 -0.0594 -0.1740 -0.0609
11031W        W27105  15.141  17.454  15.678 -0.0416 -0.4396  0.0306
11032W        W27106  16.032   9.662   6.647  0.3736  0.1308  0.0705
11033W        W27107   0.663   3.157  14.873 -0.0778 -0.1673 -0.1541
11034W        W27108  13.378   1.506   5.378 -0.0811  0.0163  0.2997
11035W        W27109   2.888  11.616   3.814  0.0285 -0.0961 -0.0293
11036W        W27110   7.579   0.878   3.425 -0.1485  0.0469 -0.0164
11037W        W27111  16.145   3.359   2.986 -0.1279  0.1015 -0.1475
11038W        W27112   5.686  14.278  12.275 -0.0663 -0.1864  0.0092
11039W        W27113  12.018   1.789  16.385  0.0768 -0.2417  0.1717
11040W        W27114   3.569   0.872  16.362  0.1990 -0.0679  0.1037
11041W        W27115   4.234  13.338   2.163  0.1192  0.0943 -0.0223
11042W        W27116   0.241  13.590  16.850  0.0234 -0.1145  0.0936
11043W        W27117  11.107   2.764  15.675  0.2327 -0.0060  0.2259
11044W        W27118   8.067   1.792  12.551 -0.0493 -0.1169 -0.1794
11045W        W27119   4.163  13.253   4.822  0.3584  0.2229  0.1731
11046W        W27120  11.886  16.734   5.448 -0.1345  0.1233 -0.2336
11047W        W27121  14.773  14.957  12.130  0.1462  0.2810  0.2813
11048W        W27122   9.189   5.336   5.722 -0.0118  0.1244 -0.0640
11049W        W27123   6.485  12.531   1.991  0.0327 -0.1203  0.0063
11050W        W27124   9.436  16.143   1.503 -0.3527  0.0152  0.1613
11051W        W27125  16.060   4.609  14.454  0.0826 -0.0018  0.0863
11052W        W27126  17.061  13.100   1.420  0.0867  0.2015 -0.1727
11053W        W27127   8.932  12.847  12.276  0.0610  0.0212  0.1223
11054W        W27128   9.821   8.475  13.979 -0.1682  0.0261 -0.0235
11055W        W27129   8.476   6.628  12.033  0.1149  0.5329  0.1039
11056W        W27130   2.887   1.944  16.414 -0.0582 -0.1407 -0.0848
11057W        W27131   2.420   6.090  16.075  0.0796 -0.0785  0.1352
11058W        W27132  16.996  13.386  16.329 -0.3161  0.0443  0.0194
11059W        W27133   7.652  15.425  13.212 -0.0202  0.2287 -0.1817
11060W        W27134   3.859  10.782   6.052  0.1759 -0.3344  0.0961
11061W        W27135   6.524   6.960   1.790 -0.1787  0.0857 -0.0887
11062W        W27136  13.578  12.371   1.335  0.2588 -0.0690 -0.0005
11063W        W27137   0.080  11.382   3.119 -0.1344  0.2093  0.0810
11064W        W27138  11.992   4.147   2.558  0.1335 -0.0878 -0.1660
11065W        W27139  14.187   2.130   5.138 -0.2218  0.2716  0.1097
11066W        W27140  16.187   6.413   5.620  0.0908 -0.0701  0.3578
11067W        W27141  11.545  11.397  11.817  0.0337 -0.1662 -0.0222
11068W        W27142  12.178   5.624  15.265  0.2553 -0.2149 -0.0071
11069W        W27143   3.700   1.108   0.844 -0.0183 -0.1910 -0.0534
11070W        W27144  10.570  14.256  12.009 -0.2266 -0.0481  0.0174
11071W        W27145   0.375   4.002  12.855  0.0088  0.0096  0.2086
11072W        W27146  17.650   8.717   1.406  0.0330 -0.1333  0.4520
11073W        W27147   4.824   8.918   3.513 -0.1625 -0.1601  0.2013
11074W        W27148  14.669   4.104  11.713 -0.1332 -0.1306  0.1786
11075W        W27149  12.229  14.562  13.286 -0.0964 -0.1031  0.3468
11076W        W27150   3.471  17.283  15.859 -0.2318 -0.1331 -0.0679
11077W        W27151   6.128  17.107   1.919  0.2354 -0.0297 -0.0970
11078W        W27152  16.485   2.079   4.744 -0.0712  0.0563 -0.1104
11079W        W27153   8.915  16.088   1.543  0.0557  0.3871  0.3026
11080W        W27154  17.217   0.780  11.565  0.3780 -0.0774 -0.1086
11081W        W27155  10.898  15.933   3.020 -0.2857 -0.0443  0.3644
11082W        W27156  14.633   8.942  12.606  0.1228  0.2516 -0.0577
11083W        W27157   8.288   5.680   5.415  0.4543  0.0039 -0.0475
11084W        W27158  14.579  10.651   1.077 -0.1631 -0.1504 -0.2400
11085W        W27159   7.268  11.266  14.148  0.3032 -0.1330  0.0718
11086W        W27160   1.296   8.174   3.479  0.1011  0.1090  0.0038
11087W        W27161  16.526   5.095   0.142 -0.1218 -0.2511  0.0875
11088W        W27162  14.759   7.810   5.317 -0.1012  0.3752 -0.0146
11089W        W27163   6.069   9.730   1.762  0.3292  0.0681  0.1303
11090W        W27164  14.731   9.186   3.397 -0.3415  0.0310  0.0946
11091W        W27165  10.720  11.361   5.924 -0.2816  0.1947  0.1659
11092W        W27166   3.443  13.580  16.526  0.0617 -0.1488  0.1852
11093W        W27167   8.670  11.496   3.183 -0.0299  0.1257  0.0515
11094W        W27168  12.059  13.190  15.101  0.1323  0.1432 -0.1799
11095W        W27169   8.776   7.268  14.737 -0.1140  0.0066  0.0406
11096W        W27170  14.709  15.351  11.711 -0.2570 -0.1122  0.0091
11097W        W27171   4.669   5.696  13.675  0.0671 -0.1518  0.0320
11098W        W27172  15.357   1.661   0.976  0.0674  0.4416 -0.1677
11099W        W27173   2.140  14.767   4.258  0.1460  0.1980  0.1689
11100W        W27174  12.727  13.999   4.226  0.1126  0.0054  0.3474
11101W        W27175  12.793   3.065  16.614  0.3395 -0.0967  0.1318
11102W        W27176   2.501  17.628  12.778  0.1192 -0.1007  0.2859
11103W        W27177   0.327   3.706  15.326  0.0798  0.2620  0.2421
11104W        W27178  11.734  12.359  15.753 -0.3250  0.2907  0.2892
11105W        W27179  15.553   5.935   3.258  0.0929 -0.1328 -0.1869
11106W        W27180  16.443   3.080  14.986  0.0477  0.1379  0.0563
11107W        W27181   8.060   3.354  16.460  0.0604  0.0366  0.2488
11108W        W27182  12.692  10.988  16.931  0.1043  0.1689 -0.1237
11109W        W27183  10.091  11.697   4.566 -0.2367  0.5219  0.2290
11110W        W27184   9.757   8.105  14.650 -0.0110  0.0523  0.3210
11111W        W27185   9.824   9.836   2.316 -0.0712 -0.3828  0.0677
11112W        W27186   3.863  10.080   3.728 -0.1385  0.0899 -0.0839
11113W        W27187   7.672  14.564  16.621  0.0682  0.1843 -0.4198
11114W        W27188   2.168   3.848  16.067 -0.0842  0.0446 -0.2287
11115W        W27189   4.117   3.100  13.951  0.0432 -0.3177 -0.1609
11116W        W27190   8.862   1.403  13.140 -0.0106  0.0351  0.1574
11117W        W27191  17.732  11.272   1.407  0.0498  0.3972  0.0321
11118W        W27192  10.225   7.246   0.504  0.0426 -0.0300  0.0509
11119W        W27193   6.558   0.018  16.000 -0.0705 -0.0719 -0.0253
11120W        W27194   4.468  10.142  16.655  0.0172  0.0605  0.1145
11121W        W27195  17.018  17.662   5.091  0.0613 -0.0138 -0.0304
11122W        W27196  14.872  10.485  12.101  0.0204 -0.1652 -0.0787
11123W        W27197   4.573   8.134  11.496 -0.0440  0.0644  0.3106
11124W        W27198   7.960   2.969  16.094  0.0862 -0.1484 -0.0447
11125W        W27199  12.547  16.554   4.634  0.0152 -0.0859  0.2509
11126W        W27200   3.482   8.465   5.447  0.0646 -0.0942  0.0987
11127W        W27201   7.328  10.530   2.396  0.0533  0.0770  0.1591
11128W        W27202  15.591  11.401  14.435  0.0734 -0.2012  0.1316
11129W        W27203   2.263   4.058   5.838  0.2249  0.1923  0.1862
11130W        W27204  13.601   5.244   1.609 -0.1620 -0.5554 -0.0973
11131W        W27205   2.118   4.961   2.692 -0.1114  0.2140 -0.1109
11132W        W27206  15.059   1.193  14.636  0.1766 -0.1881  0.1104
11133W        W27207   5.313  16.775  17.095  0.0660  0.0747 -0.1550
11134W        W27208  12.520   6.125   0.043  0.1474 -0.1260  0.0689
11135W        W27209  10.621   9.178  12.931 -0.2289 -0.0561  0.0708
11136W        W27210  11.563   5.600   6.347  0.0840  0.0769 -0.1456
11137W        W27211  17.011   1.022  15.436 -0.2011 -0.1159 -0.1794
11138W        W27212  11.000   7.977   2.745  0.0542  0.1626 -0.1694
11139W        W27213   4.210   4.261   0.931 -0.2471  0.2714  0.1138
11140W        W27214   8.965  17.059   0.565 -0.1537 -0.0182  0.2727
11141W        W27215  16.556   0.046  14.641 -0.2911 -0.0150 -0.2017
11142W        W27216   3.745  12.969   2.197  0.2474 -0.1559  0.1298
11143W        W27217   5.630  11.135   0.262 -0.1749 -0.0381 -0.0158
11144W        W27218  16.312   4.559   1.770  0.1233  0.1442  0.3024
11145W        W27219   9.812  17.406  13.528  0.0401  0.0832  0.1982
11146W        W27220  11.102  15.790   5.498 -0.0207 -0.3665 -0.1157
11147W        W27221  14.469  16.372  13.127  0.2648 -0.1503  0.1348
11148W        W27222   1.591   8.806   0.689 -0.2252 -0.0212 -0.0192
11149W        W27223  11.568   1.006  14.921 -0.0787 -0.0708  0.1154
11150W        W27224  14.889  13.706   2.786 -0.4508  0.0381  0.0642
11151W        W27225  10.750   5.483   0.089  0.2027 -0.0819 -0.0438
11152W        W27226   1.003   7.147  11.426 -0.0815 -0.0214  0.2810
11153W        W27227   4.950   8.839  15.609  0.0949 -0.1800  0.0827
11154W        W27228   1.376  12.493   2.923  0.0517 -0.2790  0.0349
11155W        W27229   6.359  14.020   0.045  0.0275 -0.0040 -0.0201
11156W        W27230   0.032   4.382  14.565 -0.1423  0.2039  0.0698
11157W        W27231   1.263  14.497   3.461 -0.1776 -0.0626  0.2063
11158W        W27232   0.296   2.748  14.982  0.3300  0.1512 -0.0469
11159W        W27233   1.824   3.716   5.769 -0.0721 -0.2895 -0.0038
11160W        W27234   6.882  14.841   5.002  0.3367  0.3899 -0.2718
11161W        W27235  13.925  10.896   1.615  0.2215 -0.1317 -0.0527
11162W        W27236  12.425   1.835   1.189  0.0874 -0.2620  0.0939
11163W        W27237  12.769   5.543   2.922  0.0767  0.1415 -0.1089
11164W        W27238  16.888   7.893   3.081 -0.1833  0.5410  0.0479
11165W        W27239  13.170   7.643  13.255 -0.0658 -0.2026 -0.0847
11166W        W27240  17.179  10.687   3.348 -0.0729 -0.0677  0.2972
11167W        W27241  14.360   3.143  15.622  0.1272 -0.0943 -0.1188
11168W        W27242   7.845   1.043   5.571  0.1367  0.0204  0.1392
11169W        W27243   7.642   5.418  13.697  0.2161 -0.1015  0.1349
11170W        W27244  11.401  14.994  16.151  0.1661 -0.2712 -0.1730
11171W        W27245   2.262   4.592  13.311  0.1616  0.1475  0.0065
11172W        W27246   3.097   7.534   0.186 -0.1283  0.0128 -0.2295
11173W        W27247   0.025  15.119  14.593 -0.0297 -0.0299 -0.0980
11174W        W27248  13.060   5.412  13.244 -0.0868 -0.3962 -0.3294
11175W        W27249  16.702  14.275  13.748 -0.1945 -0.0158  0.2293
11176W        W27250  13.799  17.709  14.229 -0.0513 -0.1802  0.1979
11177W        W27251   3.183   4.036   1.348  0.0600 -0.0936 -0.0997
11178W        W27252   7.252  11.784   5.836  0.3163 -0.1456  0.3186
11179W        W27253   3.742   0.208   0.762 -0.0019 -0.4686 -0.1249
11180W        W27254  14.496  12.926   1.197  0.2730  0.2014  0.0916
11181W        W27255  16.666   6.029  14.759 -0.0921  0.1541 -0.3918
11182W        W27256  10.663  15.820   6.440 -0.1462  0.2375  0.1042
11183W        W27257  17.157  17.146  13.624 -0.1835 -0.0848  0.2102
11184W        W27258  14.770  17.629   4.404  0.0212 -0.2804  0.0175
11185W        W27259   8.940  16.635   1.445  0.2484  0.0562 -0.0787
11186W        W27260  10.869  14.343   6.115 -0.1345  0.1411 -0.0288
11187W        W27261   7.188  13.498  16.258 -0.2157  0.0843  0.0999
11188W        W27262  10.228   5.462   2.422  0.0781  0.2230 -0.0777
11189W        W27263   3.356   9.334   0.651  0.0641 -0.3183 -0.0943
11190W        W27264   5.538  10.380   6.653 -0.2365  0.0498 -0.0120
11191W        W27265   2.953   3.514  16.395 -0.0025  0.1990 -0.4608
11192W        W27266   9.668  15.342   4.014 -0.0691  0.1386  0.2181
11193W        W27267   0.550  14.830  11.958  0.0688  0.1820  0.0323
11194W        W27268   0.351  12.840   3.709  0.3777 -0.0664 -0.0578
11195W        W27269   7.095  13.358   5.238  0.0145 -0.1603  0.1064
11196W        W27270   1.483   7.201   3.278  0.0618 -0.0731  0.0944
11197W        W27271   4.515   2.141  14.703  0.0207 -0.1883  0.2646
11198W        W27272   1.094   3.091  11.850 -0.0822  0.4045 -0.1989
11199W        W27273  11.996   5.785  10.769 -0.0009  0.0695  0.2523
11200W        W27274  13.723   3.054   2.332  0.0009 -0.1216 -0.1593
11201W        W27275   3.533   7.940  15.728 -0.0304  0.1935  0.2619
11202W        W27276   5.030   7.163  15.219 -0.1044 -0.0817  0.1800
11203W        W27277   7.462  16.652   0.397 -0.4304  0.0712 -0.0989
11204W        W27278  12.878   1.514   3.794  0.1563  0.1290 -0.4536
11205W        W27279  14.838  10.444  14.095 -0.1343 -0.5042 -0.3716
11206W        W27280  16.795  17.410  16.269 -0.0788  0.0061  0.0342
11207W        W27281   8.424   8.127  15.560 -0.3835 -0.0097 -0.2802
11208W        W27282   5.170   8.546   1.169  0.0337 -0.1458  0.0341
11209W        W27283   3.521   9.572  13.141  0.3227  0.1802  0.2167
11210W        W27284   5.967  12.914  14.965  0.2133 -0.0394 -0.4366
11211W        W27285   0.091  14.080   4.581 -0.2481 -0.1612 -0.1517
11212W        W27286   4.469   4.241  14.467  0.1816  0.1933  0.1273
11213W        W27287   2.963   9.368   1.619 -0.0666 -0.1257 -0.0378
11214W        W27288   4.623  12.905  16.401  0.2429 -0.2236 -0.0717
11215W        W27289   7.112  14.558  13.262  0.0254  0.0891 -0.0900
11216W        W27290   9.998   2.134  15.954 -0.0123 -0.1297 -0.0340
11217W        W27291   2.387   0.346  15.739 -0.1491 -0.0517  0.1783
11218W        W27292   4.261  12.139  16.806 -0.0976 -0.0898  0.3326
11219W        W27293  14.999  12.280  15.195 -0.4172 -0.0520  0.1797
11220W        W27294  17.464  12.776   2.507 -0.0677  0.2756 -0.2327
11221W        W27295   7.823   6.709   4.423  0.2036 -0.0699  0.4050
11222W        W27296   9.582   4.089  14.325 -0.0896 -0.3198  0.2277
11223W        W27297  11.858   2.931  14.516 -0.3123 -0.0973  0.1953
11224W        W27298   1.593  15.557   2.043  0.0787 -0.0999  0.0393
11225W        W27299   8.892   3.713  15.525  0.0193  0.3380 -0.0616
11226W        W27300   6.671  11.384  16.946 -0.0975 -0.0292  0.2635
11227W        W27301   4.008   3.543   4.584 -0.0756 -0.3292  0.0029
11228W        W27302  16.562  16.146   3.316  0.0871  0.1248 -0.0852
11229W        W27303  15.106   0.117   1.813 -0.0284  0.2958  0.4384
11230W        W27304  14.539   2.360   4.951 -0.0114  0.1860 -0.0076
11231W        W27305   6.836  14.105   3.461  0.3119 -0.1048  0.0783
11232W        W27306   3.388  15.440  11.369 -0.0232 -0.0806  0.2459
11233W        W27307   2.472   2.587   1.423  0.0688  0.1340  0.0106
11234W        W27308  11.785   7.204  12.546  0.2552  0.2266  0.2885
11235W        W27309   0.908   4.891  11.843  0.0716  0.0775  0.0491
11236W        W27310  15.182   3.142   0.890  0.0381 -0.1117  0.1445
11237W        W27311  17.511  15.279  15.027 -0.2980 -0.3161 -0.1700
11238W        W27312  10.816  11.151  14.878  0.0600 -0.0734  0.1421
11239W        W27313  13.410   8.003   5.726 -0.0495  0.2861  0.0590
11240W        W27314  11.799   5.990   3.865  0.0998  0.0634  0.0417
11241W        W27315  12.825   7.316  12.896 -0.0901  0.0560 -0.0380
11242W        W27316   9.288   4.218   5.045  0.2465 -0.3948 -0.4010
11243W        W27317  16.425  16.653   5.541  0.2288  0.3795 -0.2430
11244W        W27318   5.097   2.776  16.735 -0.1039  0.1552  0.0655
11245W        W27319   2.487   3.073   5.583  0.1323 -0.0158 -0.0077
11246W        W27320  14.161  17.348  14.314 -0.1885  0.0700  0.1090
11247W        W27321  10.444   5.004  12.399 -0.0155 -0.2924 -0.3531
11248W        W27322   1.718  12.323  15.546 -0.0839  0.0720  0.3301
11249W        W27323  15.087  14.225  13.191  0.1654 -0.0187  0.1816
11250W        W27324   4.599  11.899   2.445 -0.1102  0.1673 -0.0615
11251W        W27325  14.880  11.640  16.657 -0.4107 -0.1204 -0.0174
11252W        W27326   0.204  12.192   4.886 -0.0403  0.1199  0.3099
11253W        W27327   1.176   3.749   4.657  0.0949 -0.4067 -0.1376
11254W        W27328   6.411  16.571   3.434 -0.3091  0.2529 -0.1081
11255W        W27329   2.678   8.172  16.845 -0.2454  0.2264  0.0263
11256W        W27330  11.812   3.958   5.810 -0.1907  0.1813 -0.2386
11257W        W27331   7.736  12.551  13.658 -0.2428  0.4604 -0.1849
11258W        W27332  14.549  17.535  13.624 -0.1032 -0.0292  0.2120
11259W        W27333  10.844   7.917   3.706  0.4033 -0.0965  0.2667
11260W        W27334   8.838   0.192   2.158 -0.2360  0.3204 -0.3491
11261W        W27335   7.664  15.833  16.164  0.1656  0.1611 -0.1652
11262W        W27336  14.899  13.056   2.799 -0.0911 -0.2616 -0.1448
11263W        W27337   2.945  14.876  15.264  0.0627 -0.0049  0.0515
11264W        W27338  16.780   3.573   4.701  0.2018  0.2212 -0.1173
11265W        W27339   3.483  15.141  13.743 -0.1265  0.0209 -0.1719
11266W        W27340   1.557  14.998   5.528  0.0628 -0.3067  0.1514
11267W        W27341   1.142  17.320  14.274  0.0035 -0.0455 -0.3260
11268W        W27342  11.253   8.654  10.732  0.0758  0.1607  0.1753
11269W        W27343  16.218  15.547  11.648 -0.0143 -0.1242 -0.1290
11270W        W27344  13.929   4.677  12.903 -0.2147  0.4484 -0.1837
11271W        W27345   3.613   6.433  12.869  0.0483  0.0837 -0.2911
11272W        W27346  15.568   1.799  17.122  0.1671  0.0827 -0.0201
11273W        W27347  10.505   3.498   4.975 -0.1447  0.2468  0.1241
11274W        W27348   4.722  17.583   3.738 -0.0770  0.3111  0.0198
11275W        W27349   0.483  10.500   3.881  0.1264 -0.0669  0.0238
11276W        W27350  16.958   1.526  14.673 -0.0760  0.0855 -0.2869
11277W        W27351   3.611  17.084   4.439  0.1400 -0.0372  0.0427
11278W        W27352   6.906   8.546   3.767  0.0177  0.2101 -0.0378
11279W        W27353  17.028  12.951   5.681 -0.2115 -0.2007  0.0029
11280W        W27354   0.525  11.247  13.738 -0.2634 -0.0869  0.0956
11281W        W27355  10.102   4.348   5.434 -0.4714 -0.0804  0.2374
11282W        W27356  17.523   0.872   2.872 -0.1329  0.1117 -0.1980
11283W        W27357   8.476   7.568   3.701 -0.0459 -0.1107 -0.1551
11284W        W27358   2.069   7.817  13.322  0.2482  0.2709 -0.1646
11285W        W27359  13.096  17.134  14.924  0.2646 -0.2767  0.1934
11286W        W27360   4.254   3.769   2.301 -0.1947 -0.2131  0.1289
11287W        W27361  15.299  13.369   2.667  0.3001 -0.1052  0.0102
11288W        W27362   9.031   1.667  13.557 -0.2048  0.1723 -0.0543
11289W        W27363  12.851  11.121   3.019  0.2490 -0.0571 -0.1513
11290W        W27364   7.044   2.481   6.027 -0.1471 -0.2236  0.0108
11291W        W27365   8.899  16.904  14.994 -0.0565 -0.2353 -0.0296
11292W        W27366  13.982  12.863  16.025 -0.0413 -0.1118  0.2684
11293W        W27367   6.483  13.257  13.795  0.0139 -0.1366 -0.2493
11294W        W27368   2.013   5.612   2.803 -0.1546 -0.2672  0.1317
11295W        W27369  13.661  12.193  12.566  0.1870 -0.1571  0.0139
11296W        W27370   3.858  10.508   2.875 -0.0952 -0.0135  0.1413
11297W        W27371  13.311  10.767  16.130  0.1025 -0.4319 -0.1851
11298W        W27372   6.932  14.771  14.162 -0.0919  0.2512 -0.0072
11299W        W27373   5.346  13.616   3.292 -0.1308 -0.1389 -0.2293
11300W        W27374   7.687   9.869   1.768 -0.1461  0.1753  0.1828
11301W        W27375  11.375   3.804   5.207 -0.1367  0.1833 -0.1903
11302W        W27376  13.763  12.235   3.539 -0.0836  0.1666  0.1166
11303W        W27377  15.838  12.981   5.800  0.3229 -0.0499  0.0453
11304W        W27378  12.713  11.813  16.287  0.0501  0.1803 -0.1786
11305W        W27379   3.037   5.440  12.787 -0.2330 -0.2788  0.2056
11306W        W27380   1.580   6.189   3.148 -0.0212 -0.5226  0.2262
11307W        W27381   9.017  13.210   1.225  0.0522  0.2733 -0.4565
11308W        W27382   5.034  11.063   5.031 -0.0410  0.1388  0.0134
11309W        W27383   9.767  16.403   5.655 -0.1055  0.3072  0.3347
11310W        W27384   9.784  13.128   0.176 -0.1819 -0.0632 -0.1340
11311W        W27385   4.244  10.380   3.345 -0.0897  0.0822  0.4898
11312W        W27386   7.119   7.573   4.209 -0.3571 -0.0263 -0.1077
11313W        W27387   1.901   0.426  11.592  0.4320 -0.0925  0.1381
11314W        W27388   1.278   1.225   2.090 -0.0705 -0.0046  0.2259
11315W        W27389   5.599   4.492   4.624 -0.0285  0.3370 -0.1452
11316W        W27390   0.158   6.966   4.097 -0.4102  0.0911  0.0048
11317W        W27391  15.124   6.312  16.111  0.1383  0.0263  0.1191
11318W        W27392   4.802   8.354   3.704 -0.2519  0.1320  0.0801
11319W        W27393  16.819   6.723  14.381 -0.1501 -0.0209  0.0225
11320W        W27394  17.638  17.391   4.384  0.0450 -0.2805 -0.0892
11321W        W27395   7.252   4.768  15.429  0.1629 -0.0780  0.1426
11322W        W27396   9.854  11.269   0.654 -0.0827  0.1199  0.1119
11323W        W27397   1.683   6.109  12.975 -0.1194 -0.1115  0.1866
11324W        W27398  16.708  17.241   4.762 -0.1752  0.0177  0.1210
11325W        W27399   0.770   4.720  15.601  0.2764 -0.2492  0.0766
11326W        W27400  13.198   3.906  12.003 -0.2953  0.2621  0.2066
11327W        W27401   1.561   1.138   2.529 -0.0064  0.1943 -0.0549
11328W        W27402  16.956  13.587   1.297  0.1273  0.0165  0.1548
11329W        W27403  13.995  14.673   4.051  0.0355 -0.4508 -0.0332
11330W        W27404  15.574  14.477   3.809  0.1380 -0.1355 -0.1917
11331W        W27405   2.882  15.548  13.821 -0.3779 -0.2957 -0.0018
11332W        W27406  11.942   2.566  13.714 -0.1035 -0.0017 -0.1467
11333W        W27407  12.797   3.665   4.778  0.0305 -0.2013 -0.1271
11334W        W27408   2.916   4.083  13.314  0.1487  0.0348  0.0543
11335W        W27409  12.776  16.980  12.941 -0.2343 -0.0733 -0.0723
11336W        W27410   4.886   8.173   0.903 -0.1856  0.0947 -0.0881
11337W        W27411   6.501   2.992   2.387 -0.0501  0.0119  0.0451
11338W        W27412   0.010  13.146   2.391 -0.1349  0.0328  0.1511
11339W        W27413   1.398  12.760   3.338 -0.4371 -0.1790  0.1397
11340W        W27414   3.519  11.709   2.383 -0.0014 -0.0687  0.0572
11341W        W27415   0.386  10.435  13.670 -0.0016 -0.2016 -0.3631
11342W        W27416   4.543  16.833  16.663 -0.1201  0.2956  0.1878
11343W        W27417  16.338   6.348  12.360  0.2554 -0.0406  0.0232
11344W        W27418   2.981   4.634  11.106  0.2063  0.1194  0.1431
11345W        W27419   2.868   5.921   0.140 -0.2739 -0.0726  0.0577
11346W        W27420   1.547  11.462  14.668  0.0019  0.3629  0.2946
11347W        W27421  14.172   8.076  12.971  0.0787  0.1041  0.0937
11348W        W27422   6.041   4.391   2.923  0.0881  0.1763  0.0600
11349W        W27423  16.913  12.353   0.202 -0.1429 -0.2899  0.0986
11350W        W27424  11.418   0.930  16.192 -0.1165  0.3330 -0.2366
11351W        W27425  13.925  12.601  12.460 -0.2998  0.0924 -0.1131
11352W        W27426   5.262  15.748   2.002 -0.3256 -0.1287  0.1454
11353W        W27427   8.760   2.570   4.312 -0.2207  0.0250 -0.0166
11354W        W27428  13.244   3.423   3.980  0.1197 -0.0106 -0.0291
11355W        W27429   4.138   1.973  12.486 -0.2256  0.0549  0.0643
11356W        W27430  12.697   4.158   4.200 -0.2769 -0.0298 -0.1148
11357W        W27431   2.452   7.239   3.787  0.2473 -0.1169  0.2685
11358W        W27432   8.924   8.982  14.312  0.1719 -0.1116  0.3275
11359W        W27433  16.649   7.630   2.534 -0.1499 -0.1181  0.0167
11360W        W27434   4.725   2.971  16.388 -0.0222 -0.2909  0.0536
11361W        W27435  17.067  11.570   4.578  0.0206  0.0274 -0.0697
11362W        W27436   0.094  16.218   3.267 -0.0999  0.0064 -0.0526
11363W        W27437   9.581   8.847   1.120  0.1331 -0.0675  0.0070
11364W        W27438   7.520   2.014   2.504 -0.1832  0.2923 -0.3157
11365W        W27439  15.088   4.546   4.302 -0.1664 -0.0647 -0.0839
11366W        W27440  11.045  12.026   0.363 -0.2850  0.1309 -0.2007
11367W        W27441   0.312   4.140  13.351  0.0667  0.1244 -0.3117
11368W        W27442  17.271   7.041   5.199  0.0674  0.1321  0.1090
11369W        W27443   1.506  12.855  15.851 -0.0658  0.2112 -0.0662
11370W        W27444   5.912  16.799  15.398  0.3694 -0.2285  0.2706
11371W        W27445   2.741   9.431   3.883 -0.0135 -0.3015 -0.3029
11372W        W27446  14.964   6.293  15.205 -0.2677  0.0486 -0.2377
11373W        W27447   2.052  15.999  12.391 -0.1249  0.0064 -0.1380
11374W        W27448   2.654  17.175  16.713  0.0681  0.0308  0.1441
11375W        W27449   2.474  11.210   5.629 -0.1264  0.1556 -0.2630
11376W        W27450   8.022   2.765  11.972 -0.2404  0.2401 -0.2429
11377W        W27451  17.696  16.099  15.488  0.0661 -0.0027 -0.1347
11378W        W27452   4.572  13.580  14.926 -0.0665 -0.2000  0.0199
11379W        W27453  14.529   6.756   1.384 -0.0091  0.0265  0.0126
11380W        W27454  11.362   4.184  15.248 -0.0923 -0.0267 -0.4406
11381W        W27455   8.359   3.605  12.514  0.0885 -0.2662 -0.0196
11382W        W27456   5.352  12.268   3.447  0.2828  0.1233 -0.2113
11383W        W27457   1.748   6.959   2.022  0.1212 -0.1488  0.0539
11384W        W27458   2.863  12.343  12.375 -0.1848  0.1760 -0.1584
11385W        W27459   8.412   6.170  15.469 -0.3089  0.1214 -0.0410
11386W        W27460  15.302  14.832   1.986  0.0594  0.0898 -0.2244
11387W        W27461   8.896  10.706  14.605 -0.1753 -0.0202  0.0018
11388W        W27462  12.663  12.585   2.468 -0.3222 -0.0621  0.1838
11389W        W27463  13.708   4.458   6.013 -0.0522 -0.1117 -0.2234
11390W        W27464   1.985   5.723   1.894 -0.0361 -0.0641 -0.0234
11391W        W27465   7.724  12.786   0.883 -0.1011  0.1074 -0.1416
11392W        W27466   2.268   9.791  15.094  0.1604 -0.1767 -0.0076
11393W        W27467  12.921   2.570  13.548  0.3167 -0.3437 -0.3120
11394W        W27468   3.540  11.174   5.442  0.2080 -0.0893  0.1229
11395W        W27469   0.805  14.575   1.797 -0.0150 -0.2218 -0.0428
11396W        W27470   7.071   0.845   5.189  0.0983  0.1321  0.1326
11397W        W27471  10.900   7.614   5.043 -0.0791 -0.0419  0.3433
11398W        W27472   3.572   3.937  17.032 -0.0055 -0.1057  0.3084
11399W        W27473   1.195   9.461   4.671  0.0186 -0.5814 -0.2379
11400W        W27474  14.449  14.649  16.504 -0.0032  0.3866  0.1112
11401W        W27475  11.418  13.262   3.283 -0.0831 -0.1437  0.3884
11402W        W27476   0.980   4.122  12.867 -0.1079 -0.0918  0.0065
11403W        W27477   9.596  13.356   5.231 -0.1525 -0.2478 -0.1382
11404W        W27478   8.023   8.707   2.473 -0.2195 -0.2296 -0.0477
11405W        W27479   8.629   7.286  13.902  0.1787 -0.0106  0.2142
11406W        W27480   7.589  10.227  13.395 -0.0646 -0.0172  0.0929
11407W        W27481  17.484   1.584   3.101  0.1179 -0.2211 -0.1706
11408W        W27482   7.924   6.098   0.810  0.1520 -0.1023  0.1906
11409W        W27483   7.515  17.545  15.555  0.3675  0.1608  0.1075
11410W        W27484  13.672   2.301   1.686 -0.1411  0.0110 -0.1506
11411W        W27485   0.395   6.425  16.367  0.1786  0.0683 -0.0067
11412W        W27486   7.595   9.369  12.502  0.1467  0.0335 -0.3869
11413W        W27487   5.368  10.576   5.279 -0.2317  0.1251 -0.0858
11414W        W27488  17.594  12.395  12.091 -0.1220 -0.2328  0.1114
11415W        W27489  11.114   6.116   0.820  0.0361 -0.1185 -0.0107
11416W        W27490   4.076   8.808   4.345 -0.0414 -0.0944 -0.2749
11417W        W27491   0.138  16.141  14.784 -0.0954 -0.1922  0.3307
11418W        W27492   4.553   0.891  12.625 -0.1255  0.0348 -0.1807
11419W        W27493   0.871  12.967  16.930  0.3041  0.0620 -0.1390
11420W        W27494   3.279  16.588  16.627  0.0635 -0.0952 -0.0326
11421W        W27495  16.155  13.094   6.142  0.2245  0.0779 -0.0319
11422W        W27496   4.776   8.303  13.705 -0.0239  0.1746 -0.1303
11423W        W27497  17.339   2.715   5.895  0.1070  0.1345  0.1764
11424W        W27498   2.681   0.113   4.640 -0.0306  0.0663 -0.3748
11425W        W27499   1.475   8.692  11.912 -0.0090 -0.1028 -0.1217
11426W        W27500   8.419  15.931   5.056 -0.0584 -0.0143 -0.4766
11427W        W27501  15.783  11.461   2.507  0.2018  0.1095  0.1752
11428W        W27502  11.335   2.303  16.926 -0.1101  0.2009 -0.1865
11429W        W27503  16.234   6.526  13.174  0.1039  0.1584 -0.0333
11430W        W27504  11.805  13.469  15.955 -0.0654  0.0356 -0.0550
11431W        W27505  17.314   6.445  13.655 -0.0379  0.1811 -0.4138
11432W        W27506  15.334   6.190  14.815 -0.0403 -0.1167  0.0840
11433W        W27507  15.332   8.764  11.732  0.0588  0.1739 -0.3424
11434W        W27508  10.513   5.635   0.679  0.1331 -0.0503 -0.0203
11435W        W27509   3.392   6.867   6.206 -0.0937  0.2217 -0.1028
11436W        W27510  16.334   8.895   5.030 -0.0327 -0.1901  0.3123
11437W        W27511   5.697   5.523  13.766  0.0452 -0.0026 -0.1399
11438W        W27512   9.099   3.646   2.992 -0.2963  0.2804  0.0991
11439W        W27513   6.102   9.137   2.639 -0.1169  0.0543  0.0201
11440W        W27514   6.960  15.251  15.844  0.1543 -0.0567  0.1888
11441W        W27515   4.531  10.399  13.822 -0.2602 -0.1875  0.1044
11442W        W27516   4.783   3.976  15.676  0.1863  0.1475 -0.3099
11443W        W27517   6.065  17.685   5.401  0.0128  0.0943 -0.0568
11444W        W27518   1.869  15.793   1.711 -0.2524 -0.0998  0.2155
11445W        W27519   4.205   7.502   3.479  0.0485 -0.0903  0.3654
11446W        W27520   9.176  13.403   0.814  0.0203  0.0690  0.1151
11447W        W27521  13.014   3.276   1.477 -0.0522  0.1416 -0.1158
11448W        W27522   3.378  12.554   2.573  0.2639 -0.1728 -0.3237
11449W        W27523  14.626   0.215   6.249  0.0757 -0.0877  0.0983
11450W        W27524  11.711  11.841  14.097 -0.0938  0.0019 -0.2475
11451W        W27525   4.860  11.317  11.817 -0.0187 -0.2035  0.1037
11452W        W27526  10.376   5.205   0.237 -0.2959  0.2414  0.2254
11453W        W27527  13.292   5.778  16.038  0.1861  0.1019 -0.0687
11454W        W27528   9.010  10.541   4.621 -0.3647  0.3637  0.2467
11455W        W27529  15.136  16.724   6.499  0.1778 -0.3199 -0.1214
11456W        W27530   3.397  12.038  16.591 -0.2946  0.1516  0.0241
11457W        W27531   2.875  15.737  16.298 -0.0696 -0.2478  0.0869
11458W        W27532   0.375  17.461  12.884 -0.0623  0.3669  0.3709
11459W        W27533   3.498   8.914   1.938 -0.1416  0.0484  0.1118
11460W        W27534  13.440  17.116   4.185  0.0416  0.1499  0.2785
11461W        W27535  17.022  15.096  14.830  0.0374 -0.1689  0.2520
11462W        W27536  13.188   9.501  15.770 -0.0920  0.2638  0.0963
11463W        W27537  11.333  11.650   2.515 -0.0473 -0.2152 -0.0213
11464W        W27538  13.856   8.872   3.993 -0.2166 -0.0676 -0.0284
11465W        W27539  17.022   7.072   0.624  0.1046 -0.0559  0.1890
11466W        W27540   8.808  11.558   2.706 -0.1866  0.1516  0.1853
11467W        W27541  12.509  10.316   3.530 -0.2620  0.2396 -0.3250
11468W        W27542  16.108  15.697  14.100  0.2792  0.2361  0.0779
11469W        W27543   9.692   4.610   5.215 -0.2682 -0.0957 -0.1652
11470W        W27544   2.737  11.064  17.070 -0.1809 -0.1215 -0.1203
11471W        W27545   2.148  17.679  12.228 -0.1918 -0.0203  0.2256
11472W        W27546   3.320  12.173  14.143 -0.0723  0.0107  0.1184
11473W        W27547  17.701  12.116  13.600  0.0141 -0.1687  0.2124
11474W        W27548  17.259  11.279   6.193  0.1497  0.2050  0.2110
11475W        W27549   2.955   0.097  13.574  0.1308 -0.0164  0.3572
11476W        W27550  16.345   9.870   5.334 -0.2353 -0.2017  0.4256
11477W        W27551  15.983   6.304   3.978 -0.0149 -0.0265 -0.1554
11478W        W27552  13.010  13.531   2.381 -0.1928 -0.1625  0.1982
11479W        W27553   7.014  17.269  16.282  0.3236  0.2287 -0.0023
11480W        W27554   6.613   2.934   1.287  0.2602  0.3763  0.2785
11481W        W27555  15.635   4.360  13.705 -0.2533 -0.1405  0.0273
11482W        W27556   7.577  15.285   5.751  0.1179 -0.2931  0.2332
11483W        W27557   9.775   4.978   4.920 -0.1309 -0.0968 -0.0496
11484W        W27558   9.950   0.456   3.879  0.1571  0.1329  0.2406
11485W        W27559   0.785   9.679   6.015 -0.0170 -0.0179  0.0618
11486W        W27560   1.655   2.368  15.763 -0.2600 -0.1399  0.0586
11487W        W27561  16.096   4.070   1.627  0.1759 -0.0300 -0.1116
11488W        W27562   1.260  10.726   1.546  0.1426 -0.1462 -0.2640
11489W        W27563   8.872  14.549   0.215 -0.0774 -0.0580 -0.2515
11490W        W27564  14.480  15.999   5.599  0.1879 -0.2214 -0.2666
11491W        W27565   1.941   0.203  15.852 -0.0664 -0.1400 -0.1962
11492W        W27566  11.843  15.233  16.446 -0.2337  0.1483  0.2009
11493W        W27567  13.481   8.382   4.463  0.0599 -0.2510  0.0504
11494W        W27568   4.378  12.375   2.323 -0.0458  0.2322  0.2943
11495W        W27569   3.654  15.686   3.126 -0.1362  0.0522 -0.0186
11496W        W27570   5.229   9.760  16.043 -0.0918 -0.1402  0.2859
11497W        W27571  16.246   5.387   4.277 -0.1040 -0.0994 -0.1023
11498W        W27572  11.549   6.980  12.902  0.1957  0.3426 -0.0434
11499W        W27573  16.808   5.215  15.954 -0.2743 -0.0754 -0.1205
11500W        W27574   9.058   0.137  16.882  0.0413  0.0087 -0.1165
11501W        W27575   9.903  10.748  14.028  0.1019  0.2338  0.0024
11502W        W27576   9.066   2.866  15.424  0.1669 -0.0692 -0.2112
11503W        W27577   8.405  12.978   3.505 -0.1672  0.3079 -0.1046
11504W        W27578  12.805   6.996  11.924  0.0496 -0.2987  0.1637
11505W        W27579   8.347   1.476   4.431 -0.0085  0.0497 -0.1825
11506W        W27580  15.462  15.601   4.167 -0.4088 -0.1276 -0.3942
11507W        W27581   4.577  13.824  12.709  0.3586 -0.0323  0.0045
11508W        W27582   4.665   8.644   0.214 -0.1039 -0.0484  0.1771
11509W        W27583   5.368   7.136  15.681  0.1531  0.0396  0.3374
11510W        W27584   1.217   9.972  12.353 -0.3967  0.0058 -0.1990
11511W        W27585   9.056   4.802  12.814 -0.1029 -0.3062 -0.0723
11512W        W27586   8.869  10.327   5.105  0.1820 -0.0641 -0.0619
11513W        W27587   0.121  10.750   5.635  0.1761 -0.1645 -0.2286
11514W        W27588  11.677   4.754  15.536 -0.0292  0.1308 -0.1843
11515W        W27589   1.693   3.817   0.227 -0.0674  0.2111 -0.0200
11516W        W27590   9.021   5.799   2.233  0.0784 -0.2476 -0.2076
11517W        W27591   9.716   9.757  16.261 -0.0285 -0.0192 -0.2243
11518W        W27592  12.813  14.148  14.568  0.4903 -0.0589  0.2235
11519W        W27593  17.652   1.510  13.040  0.0535 -0.0892 -0.0168
11520W        W27594   8.730  12.360   2.274 -0.2696  0.1285 -0.1771
11521W        W27595  11.429   9.749  15.756 -0.1258 -0.2074  0.0034
11522W        W27596  17.497   6.405  11.731  0.2329  0.1052  0.1232
11523W        W27597  11.945  11.942  15.535  0.1864  0.0644 -0.0197
11524W        W27598   2.405   6.487   2.519 -0.2068 -0.2264 -0.1461
11525W        W27599  11.369  15.022   2.970 -0.1122  0.1045  0.1242
11526W        W27600   1.842  13.071  14.998 -0.0205 -0.2281 -0.1347
11527W        W27601   8.648  14.615   5.122 -0.2816 -0.1116  0.0619
11528W        W27602  10.390   4.717  12.833  0.3549  0.2433 -0.1913
11529W        W27603   0.577  16.015   2.365 -0.2164 -0.0034 -0.0945
11530W        W27604  10.021  15.581   5.652 -0.4499 -0.1006  0.0018
11531W        W27605  10.233  10.563   5.689 -0.1514  0.3857  0.0138
11532W        W27606   9.250  14.433   4.549  0.3102 -0.0577  0.1764
11533W        W27607  16.096   4.722   0.325 -0.1629 -0.1752 -0.2215
11534W        W27608   5.703   8.987  12.887 -0.1623  0.1207 -0.0992
11535W        W27609   2.397   8.176   3.632 -0.1864  0.0613 -0.0885
11536W        W27610   3.930   0.161  12.595  0.3599  0.0484  0.0207
11537W        W27611  16.197  10.095   4.003  0.1676  0.0480 -0.0833
11538W        W27612   9.928   8.387   1.747  0.0271 -0.0035  0.3237
11539W        W27613  16.314  13.037   1.021  0.1712 -0.0881 -0.0106
11540W        W27614   0.404   1.193   2.165 -0.2236  0.0688  0.3046
11541W        W27615   4.966  14.935   6.040 -0.2696  0.1660 -0.2058
11542W        W27616  15.466   0.815  14.752 -0.0171  0.0366  0.4034
11543W        W27617  10.355   9.882   2.279  0.0599 -0.1714  0.1555
11544W        W27618  14.567  12.134  11.622  0.0857 -0.1126 -0.1676
11545W        W27619  15.822   2.514   1.315  0.0540  0.0965  0.0562
11546W        W27620  14.197  12.470   1.023 -0.0719 -0.2406 -0.1099
11547W        W27621   1.622   9.232   0.345  0.2364 -0.2312  0.1115
11548W        W27622  10.479  16.325   4.431  0.3098  0.0866 -0.1969
11549W        W27623  10.384   9.144   4.102 -0.2624  0.0007 -0.2704
11550W        W27624   2.869  16.401  14.350  0.0583  0.1435  0.3753
11551W        W27625   4.661   3.813   0.508 -0.1461  0.2507 -0.2671
11552W        W27626   5.289   6.910   5.958  0.0067 -0.1716  0.1729
11553W        W27627   2.902  13.143   0.457 -0.0873 -0.0039 -0.2838
11554W        W27628   7.967  12.729  12.949 -0.3379 -0.0771 -0.0473
11555W        W27629  14.417   5.180   4.119 -0.0919 -0.0635 -0.2813
11556W        W27630   7.206  11.651  14.537 -0.0640  0.0423 -0.2968
11557W        W27631   8.926  15.468  16.203 -0.1205 -0.0065  0.1307
11558W        W27632   9.723   8.493   3.139  0.2205  0.0798 -0.0342
11559W        W27633  15.466  14.478  12.950 -0.1799  0.2304  0.1366
11560W        W27634  10.752   3.462   0.222  0.3144 -0.0757 -0.0070
11561W        W27635   0.995  14.242   5.426 -0.1480  0.1694  0.2071
11562W        W27636  14.436   0.596   5.525  0.3210 -0.0359  0.0149
11563W        W27637  15.998   5.724  14.251  0.1233 -0.0108 -0.2137
11564W        W27638   6.231  10.149  16.876 -0.1797  0.1940 -0.1221
11565W        W27639   6.180   9.224   4.492  0.1866  0.0414  0.0906
11566W        W27640   9.232   4.842  13.581 -0.1112 -0.1539 -0.3363
11567W        W27641   8.884   0.029   3.574 -0.0637 -0.2606  0.2707
11568W        W27642   7.679  13.808   4.100 -0.0533 -0.2661  0.5678
11569W        W27643  13.781  14.457  16.869  0.1353  0.4199 -0.1926
11570W        W27644   8.251  17.456  17.129  0.1139  0.3124  0.2543
11571W        W27645   5.230   1.562   3.886 -0.3159  0.1978 -0.0458
11572W        W27646   0.985   7.058  12.282 -0.0717  0.0920 -0.3848
11573W        W27647   5.215  11.337  15.860 -0.1191 -0.1259  0.0116
11574W        W27648   3.527  14.597   2.974 -0.0788  0.0725 -0.1386
11575W        W27649   1.960   4.093  17.049 -0.1226 -0.2873  0.1002
11576W        W27650   5.177   3.741   2.065  0.0204  0.1145 -0.0819
11577W        W27651   5.797  11.036   5.985  0.0864  0.2649 -0.0375
11578W        W27652  11.825   0.602   1.720 -0.1086 -0.0049  0.2211
11579W        W27653   6.465  12.865   4.812 -0.0606  0.2721 -0.0078
11580W        W27654   0.040   5.366   0.645 -0.0946 -0.1115  0.3387
11581W        W27655  17.249   6.700  14.151 -0.0369  0.2108 -0.1113
11582W        W27656  11.982   4.636   1.747 -0.1643 -0.1602  0.0196
11583W        W27657   0.277   2.314  10.865 -0.0767 -0.0988 -0.1230
11584W        W27658  11.297   0.935  12.915 -0.1224 -0.1018  0.0165
11585W        W27659   3.372   7.524   2.793 -0.1337 -0.0207  0.1128
11586W        W27660   7.266   8.602  16.857  0.3762  0.2332 -0.1384
11587W        W27661  12.787   5.201   5.149 -0.0985 -0.1070  0.0945
11588W        W27662   2.995   1.975  14.231 -0.1232 -0.0677 -0.0928
11589W        W27663  17.069  17.495  17.103 -0.2128 -0.3168  0.2530
11590W        W27664   7.789   9.821   3.676 -0.2286  0.0899  0.0497
11591W        W27665   5.214  14.963   3.625  0.0814 -0.0877  0.2255
11592W        W27666  16.998  14.834   5.407 -0.0365  0.1736  0.1068
11593W        W27667   3.373  13.947   2.146  0.0101  0.0297  0.3345
11594W        W27668   2.887  10.372  13.891 -0.2093 -0.0672 -0.0305
11595W        W27669  13.726  13.965  15.567  0.3703  0.5210 -0.0978
11596W        W27670  12.900   9.464   4.599  0.1950 -0.0491  0.3178
11597W        W27671   7.177  14.619  12.267 -0.3174  0.1591 -0.1902
11598W        W27672   0.479  15.592  12.995 -0.1226 -0.3079 -0.1342
11599W        W27673  17.111   6.633   5.521  0.0388 -0.1279  0.0661
11600W        W27674   5.417   8.247   5.620  0.2950  0.0482 -0.0404
11601W        W27675  14.847  12.035  14.200  0.1931  0.1892 -0.2571
11602W        W27676  13.589   6.896  13.592 -0.1774  0.2060  0.2012
11603W        W27677   1.459   8.553  17.127  0.0006 -0.0182  0.2798
11604W        W27678  11.086   8.367  16.321  0.0103 -0.3865 -0.1248
11605W        W27679   8.686  13.599   1.638 -0.0060 -0.1999 -0.0523
11606W        W27680   0.889   5.877   0.751 -0.3470 -0.2199  0.1694
11607W        W27681   5.294   5.541  12.727 -0.3142  0.1334 -0.0365
11608W        W27682  14.396   4.278   3.520  0.1225  0.3242 -0.1662
11609W        W27683   4.771  12.433  14.490  0.0005 -0.1573  0.0236
11610W        W27684  10.479  17.246   6.284  0.2526 -0.1608  0.0145
11611W        W27685  17.272   9.344  11.877 -0.5176  0.1093 -0.0592
11612W        W27686   5.824  16.335   5.262  0.0021 -0.0936  0.1005
11613W        W27687  11.103  14.171   4.800 -0.0027 -0.1176 -0.0803
11614W        W27688   1.844   4.114   3.155  0.1663  0.2553  0.3681
11615W        W27689   8.823   1.098  11.624 -0.1512  0.0370  0.2030
11616W        W27690  11.550  12.781   3.409  0.0973  0.3491 -0.1905
11617W        W27691   6.837   9.564  14.016  0.1504 -0.2226 -0.0661
11618W        W27692   0.618  12.324  13.169 -0.1745  0.0423  0.0867
11619W        W27693   1.507   0.198   4.902 -0.1812 -0.0396 -0.1043
11620W        W27694   2.440  13.480  15.693 -0.0299  0.1702  0.0094
11621W        W27695  12.798   3.263  16.191 -0.3158 -0.0142 -0.1065
11622W        W27696   2.455  15.869  13.583 -0.1470  0.3459  0.0132
11623W        W27697   6.195  11.602  16.830  0.0527 -0.1412 -0.0471
11624W        W27698   4.985   8.244   1.529 -0.2262 -0.2187  0.2038
11625W        W27699   3.185  11.523   1.250  0.2473 -0.0690 -0.4171
11626W        W27700  14.466   1.129  15.920 -0.0488 -0.1559 -0.1513
11627W        W27701   9.639   8.971   5.671 -0.0023  0.3415  0.1755
11628W        W27702  17.367   1.211  12.248  0.1755  0.1348 -0.2957
11629W        W27703  14.103   9.147   0.670  0.1897  0.0497 -0.3152
11630W        W27704  16.958  14.490   2.010 -0.0637  0.0645  0.0801
11631W        W27705  15.962   1.258  12.642  0.0969 -0.0586 -0.1617
11632W        W27706  12.093   6.125  13.966  0.1053 -0.2599  0.0787
11633W        W27707   4.143   7.485   5.426  0.0784 -0.2426  0.0565
11634W        W27708  14.030   4.255  16.952  0.1493 -0.1843 -0.3571
11635W        W27709  16.812   9.039   0.272  0.0601  0.4543 -0.2230
11636W        W27710   1.213   3.719  12.656 -0.0463 -0.1305 -0.3091
11637W        W27711   9.555  14.402  13.822 -0.1416 -0.0259  0.1063
11638W        W27712   2.296  13.558   0.902  0.1445 -0.2911 -0.2663
11639W        W27713  17.249   4.447  15.271  0.3563 -0.1743  0.2253
11640W        W27714  17.357  16.324  15.197 -0.2260 -0.0112  0.3248
11641W        W27715   6.228  16.399  15.400 -0.1028 -0.3088  0.3068
11642W        W27716  13.232   2.220  12.655 -0.0616 -0.4733 -0.0744
11643W        W27717  13.019   3.225   4.378 -0.1331  0.1665  0.0395
11644W        W27718  14.046  10.419   0.451  0.1320  0.2720  0.2916
11645W        W27719  17.308   9.661  13.986  0.0573  0.2712 -0.2694
11646W        W27720  14.967   3.846  15.225 -0.1281  0.1342 -0.3551
11647W        W27721  17.699  17.075  11.864  0.3033 -0.1035 -0.0692
11648W        W27722  12.806  10.982  16.424 -0.1479  0.2191  0.0398
11649W        W27723  14.811  14.919   2.130 -0.1263  0.1088  0.0044
11650W        W27724   8.068  14.463  15.105  0.0588 -0.2408  0.0120
11651W        W27725   6.969   0.443   3.959  0.0205  0.1684  0.1707
11652W        W27726  16.848  15.383   4.135  0.0295  0.0582  0.2176
11653W        W27727   3.578  12.609   4.387  0.1596 -0.0732 -0.1797
11654W        W27728  16.745   9.391  12.011 -0.0123  0.0199  0.0395
11655W        W27729   2.829   1.060  17.060 -0.0171 -0.0983  0.0224
11656W        W27730  10.260   7.545   2.910  0.0687 -0.1770  0.0691
11657W        W27731  12.389   6.580  13.727  0.3243 -0.3457 -0.0401
11658W        W27732  12.778   9.840   4.885 -0.0881  0.3300  0.0705
11659W        W27733  12.452  14.903  15.114 -0.0070  0.2133 -0.0382
11660W        W27734  13.692  14.570  14.895  0.3675  0.2383 -0.2460
11661W        W27735   6.812  16.494   4.961  0.3130  0.0986 -0.2859
11662W        W27736   9.011  12.603  11.816 -0.3765  0.0444 -0.0498
11663W        W27737   2.021  15.051   5.538  0.0597  0.3441  0.1912
11664W        W27738   3.668   4.627   1.507  0.2990  0.2775 -0.2348
11665W        W27739   6.037  15.354  13.358 -0.0248  0.0632 -0.0998
11666W        W27740   6.484  13.026  12.672  0.0960  0.3143  0.4096
11667W        W27741   6.936  14.998  12.443 -0.1456  0.1729 -0.1743
11668W        W27742   6.406   1.790   2.769 -0.0724 -0.1709 -0.3749
11669W        W27743   4.275   9.856   0.480 -0.1104  0.2820 -0.1238
11670W        W27744   4.405   1.549   1.836  0.0256 -0.1186  0.2227
11671W        W27745  12.573  13.800   4.732  0.1383  0.1293  0.2247
11672W        W27746  13.775  15.990   2.951  0.2310  0.2042 -0.1494
11673W        W27747   5.943   1.600  14.419 -0.0166  0.2059 -0.2320
11674W        W27748   6.147   3.877  13.024  0.1818  0.1307 -0.2867
11675W        W27749   3.200   9.337   2.088 -0.0628 -0.2559  0.0628
11676W        W27750  11.322   5.605  13.450 -0.2953  0.0592 -0.1527
11677W        W27751  13.143   0.340   1.918  0.1016  0.1573  0.0474
11678W        W27752   5.315  13.299   0.567 -0.1858 -0.2265  0.0223
11679W        W27753   9.058   6.020  12.309  0.0861  0.0148  0.1598
11680W        W27754   9.242  16.494   4.305  0.1780 -0.0050 -0.0452
11681W        W27755  15.244  11.821  15.099  0.1954 -0.0399  0.0394
11682W        W27756  12.990   2.526   5.800  0.0349 -0.0302  0.2864
11683W        W27757   5.171  12.656   1.324 -0.3823  0.0070  0.3165
11684W        W27758  11.900   3.898   1.524  0.0924 -0.0691 -0.0306
11685W        W27759   4.836  16.101  13.641  0.0593 -0.1498 -0.0428
11686W        W27760  13.921  12.257   2.990  0.2512  0.1505 -0.3774
11687W        W27761   9.266   6.458  12.428 -0.0007  0.1202  0.3447
11688W        W27762  10.522   0.326   3.575  0.1888 -0.2854  0.1139
11689W        W27763   1.763  17.264  12.068 -0.0602  0.0254  0.2717
11690W        W27764  14.153   0.620   2.683 -0.1586 -0.3519 -0.1115
11691W        W27765   6.327   5.237  12.731  0.2256 -0.0344  0.0655
11692W        W27766   0.973  10.950   5.803 -0.1533 -0.1124  0.0462
11693W        W27767   7.520   1.722  16.784  0.0507 -0.2172  0.1577
11694W        W27768   1.469   3.778   1.549  0.0733 -0.0291 -0.1539
11695W        W27769  17.001  13.690   3.723 -0.2650  0.1023 -0.1272
11696W        W27770  12.938   9.701  11.673  0.0082 -0.0869 -0.0893
11697W        W27771   2.736  16.459  15.350  0.1889 -0.1365 -0.4242
11698W        W27772  15.186  16.150   3.292  0.2345  0.2171  0.0081
11699W        W27773  10.324  16.246  12.974 -0.1295  0.5083  0.1400
11700W        W27774  11.913   7.156  16.156  0.2801  0.0910 -0.1876
11701W        W27775  15.547  17.478  13.707 -0.0814  0.1987 -0.0892
11702W        W27776   3.638  14.466  14.395 -0.0607 -0.2061  0.1191
11703W        W27777  17.698   0.943  15.700  0.1614 -0.1420  0.1310
11704W        W27778  14.195   9.752  16.954 -0.1025 -0.1007  0.2018
11705W        W27779  15.894  16.352   2.413  0.0863  0.0413  0.1969
11706W        W27780   5.783  12.750   5.471  0.0460  0.2082  0.2019
11707W        W27781   1.232  16.791   5.015  0.0518 -0.0052  0.0072
11708W        W27782  12.293  11.433  15.264 -0.1282  0.1324  0.0277
11709W        W27783  16.863   8.961   4.544  0.0389 -0.2707  0.0207
11710W        W27784   4.710   7.729  11.857  0.3175 -0.1233 -0.0124
11711W        W27785   8.496  16.056  16.125 -0.1346  0.0489 -0.0904
11712W        W27786   1.991   6.106   2.570  0.0327  0.0802 -0.0768
11713W        W27787   2.946  11.713  15.457  0.1417  0.0167 -0.0044
11714W        W27788  11.165   6.342   4.209  0.1047 -0.1159 -0.1997
11715W        W27789  17.687   0.977   3.367 -0.2268  0.1879  0.0983
11716W        W27790   9.167   2.988   3.819  0.1462 -0.0424 -0.1665
11717W        W27791   0.010  11.764   5.129 -0.0882 -0.1451 -0.0156
11718W        W27792   7.349  10.665  13.542 -0.0268  0.1804 -0.2954
11719W        W27793   2.266   3.192   5.027  0.1542  0.0285  0.2189
11720W        W27794  13.380   6.098  13.167  0.0240 -0.0210 -0.4136
11721W        W27795   1.535   5.003   3.228 -0.4411 -0.0976  0.2629
11722W        W27796   8.329  14.638   5.834 -0.1243  0.1038 -0.0690
11723W        W27797  16.489   1.659   2.232 -0.0245  0.0969 -0.3553
11724W        W27798  10.161  13.387   5.937  0.3832  0.3588 -0.1089
11725W        W27799  14.204  15.899  14.558 -0.1417  0.0337 -0.0166
11726W        W27800  13.454   6.114   2.779 -0.0620 -0.2838 -0.2486
11727W        W27801   1.705  12.309   3.229  0.0868 -0.0269 -0.0486
11728W        W27802  10.260  11.253   4.382  0.2388  0.1889  0.2775
11729W        W27803   9.953   8.330  16.310  0.2711  0.0384 -0.1232
11730W        W27804   9.233   7.603   3.311 -0.0724 -0.2437 -0.1130
11731W        W27805   3.330   9.239   5.093  0.0930  0.2621  0.4818
11732W        W27806  14.402   4.436  15.856 -0.0013  0.2149  0.1690
11733W        W27807   1.474   1.374  12.488  0.1568  0.1581 -0.0137
11734W        W27808  16.152  12.121   5.450 -0.0563  0.0274 -0.0371
11735W        W27809   6.855   1.276   1.946 -0.1279 -0.1424 -0.1876
11736W        W27810   2.502  11.670  12.137 -0.1861 -0.0259 -0.2826
11737W        W27811  14.303  13.365   1.893  0.1117 -0.2138  0.0719
11738W        W27812   4.675   3.997  16.583  0.2696  0.1165 -0.2644
11739W        W27813  11.350   7.379  13.190  0.1701  0.2511 -0.2236
11740W        W27814   1.803  17.142   1.161 -0.3353  0.0033 -0.0464
11741W        W27815  14.508  11.287   3.771 -0.2065  0.1850 -0.2072
11742W        W27816   7.227   8.725  14.360 -0.0800  0.1333  0.2046
11743W        W27817   2.024   9.443  14.313  0.2202  0.0483  0.0970
11744W        W27818  12.195  17.611  16.648 -0.3593  0.1789  0.1824
11745W        W27819   2.961  17.650   4.275  0.2806  0.3111 -0.4095
11746W        W27820   2.972  12.624   0.302  0.0974  0.0658  0.0271
11747W        W27821  12.575   0.746   2.450 -0.0779  0.3349 -0.0608
11748W        W27822   7.288   9.009   2.161  0.0401  0.0799  0.2223
11749W        W27823  13.426  11.578   5.804 -0.1909  0.0389  0.2314
11750W        W27824  15.541   4.892  15.544 -0.0183 -0.3947 -0.0285
11751W        W27825   9.823   3.502  12.981  0.1311  0.1160  0.0387
11752W        W27826   7.891   4.900   5.647  0.3942  0.0493 -0.0850
11753W        W27827   5.663  17.458   4.511  0.1514 -0.1386  0.1189
11754W        W27828   2.628   8.017  14.023 -0.4587 -0.1057 -0.4879
11755W        W27829   2.455  16.227  15.697  0.0776 -0.0582 -0.0301
11756W        W27830   2.596  11.291  13.605  0.1325 -0.3267 -0.2491
11757W        W27831  11.708  16.931   3.357 -0.1648 -0.0701  0.0233
11758W        W27832  15.833   4.354  13.005 -0.1652  0.1028  0.0772
11759W        W27833   0.163   6.279  14.917 -0.0363 -0.1544  0.0823
11760W        W27834   1.966   2.567   0.422 -0.1678 -0.2504 -0.0005
11761W        W27835  10.998  15.743  12.150 -0.1542  0.3266 -0.0855
11762W        W27836  10.775   1.057   2.013 -0.1269 -0.1679 -0.3254
11763W        W27837   3.520  16.143   3.251 -0.3030  0.0480 -0.2757
11764W        W27838   6.958   9.543   4.212 -0.3077  0.2630 -0.1000
11765W        W27839   0.186   6.508   5.409  0.0631  0.1802 -0.0615
11766W        W27840  16.311  13.147  15.646  0.0928 -0.0556  0.2076
11767W        W27841  16.247  17.101  16.211  0.0222 -0.1195 -0.0650
11768W        W27842   0.775  17.698   3.029  0.1821 -0.4875 -0.0343
11769W        W27843  16.358   3.517  14.201 -0.1012  0.0423  0.2240
11770W        W27844  11.378   2.147  14.208  0.2256  0.0994  0.1586
11771W        W27845   4.774   9.359  14.360  0.0240 -0.1401 -0.1748
11772W        W27846  11.475  11.001   3.790 -0.1962 -0.1125  0.1106
11773W        W27847  17.108  15.779   1.541  0.2739 -0.1677 -0.0713
11774W        W27848   0.114  13.827  11.939  0.1877  0.1181  0.3935
11775W        W27849   7.636   4.928  13.180 -0.1675  0.3055  0.1300
11776W        W27850   0.005  15.306   3.831  0.1070 -0.0965  0.0094
11777W        W27851   6.318   9.178  12.464 -0.1317  0.0785  0.4054
11778W        W27852   5.881  10.022   5.658  0.5582 -0.1014  0.1838
11779W        W27853   6.972   4.176   3.218  0.0150 -0.0930  0.0537
11780W        W27854   7.651  10.297  12.352  0.0256 -0.0061 -0.2588
11781W        W27855   2.866   9.316  16.000 -0.1461 -0.0546 -0.0993
11782W        W27856  17.603  14.733  16.741  0.0061 -0.0224  0.0044
11783W        W27857  13.634  12.047  16.204 -0.1350  0.1844 -0.3594
11784W        W27858   1.239   7.827  12.320 -0.1853 -0.0771  0.1813
11785W        W27859  15.643  10.380  13.316  0.1164  0.2752  0.0669
11786W        W27860   6.615  15.102   3.581 -0.0506  0.3870 -0.4564
11787W        W27861   1.571   8.939  16.698 -0.2215  0.1318 -0.0511
11788W        W27862   2.265  14.370  16.795 -0.0648 -0.2336  0.0990
11789W        W27863   9.869   3.861  16.334 -0.0258  0.0162 -0.2196
11790W        W27864  10.526   2.179   4.669 -0.0039 -0.0975  0.1730
11791W        W27865  10.408  16.395   3.502  0.1761  0.4244 -0.0998
11792W        W27866  10.193   0.258   1.623  0.2119 -0.1036 -0.0266
11793W        W27867  16.072   6.599  11.971 -0.3216  0.3512 -0.1776
11794W        W27868   4.196  10.904  16.129 -0.0718 -0.2471 -0.2924
11795W        W27869  10.992   4.592   5.537  0.0497 -0.1557 -0.2224
11796W        W27870   0.543   3.609   3.200 -0.1438 -0.2116 -0.2785
11797W        W27871   2.028   3.033  14.152 -0.0429 -0.0798  0.0469
11798W        W27872  17.563  14.888   1.322 -0.1890 -0.0445  0.1569
11799W        W27873  14.862   8.119  14.815 -0.1165 -0.0893 -0.0660
11800W        W27874   9.961   8.019   2.862  0.0310  0.2877  0.1200
11801W        W27875  14.919   5.818  16.934  0.0908 -0.0733 -0.2505
11802W        W27876   8.908  16.518   3.897  0.2066 -0.2062  0.2317
11803W        W27877   2.067  14.861  16.670  0.0030 -0.1487  0.3294
11804W        W27878   4.525  10.023   0.956  0.0933 -0.2292  0.0438
11805W        W27879   4.521   5.346  14.475  0.1310 -0.0353 -0.2433
11806W        W27880  15.919  12.235  16.228 -0.0128 -0.3167  0.2521
11807W        W27881  11.742   2.004   1.307  0.2295 -0.1009 -0.2229
11808W        W27882  16.064  15.895   4.925 -0.0037 -0.0757  0.1357
11809W        W27883   4.013   6.534  15.814  0.0596  0.1100 -0.0125
11810W        W27884   7.598   4.652   2.667 -0.1353 -0.1927 -0.2106
11811W        W27885  11.908   5.460   5.597  0.0555 -0.0070 -0.1325
11812W        W27886   3.851  14.944   4.530 -0.1285 -0.2416  0.1858
11813W        W27887  17.131  11.100   2.128 -0.3131 -0.2222 -0.0123
11814W        W27888   3.003   9.389   5.973  0.1251 -0.1054  0.0185
11815W        W27889  15.361   7.932   2.153  0.2925 -0.0425  0.1113
11816W        W27890   3.723   1.371  16.679  0.1691 -0.3456  0.1758
11817W        W27891  11.861   5.575   4.237  0.1037 -0.0170  0.2374
11818W        W27892  15.440   2.490  12.507 -0.3171  0.0593  0.1347
11819W        W27893  11.649   2.281   4.975  0.1600 -0.1732  0.0163
11820W        W27894  12.573  16.027  11.953 -0.0104 -0.1772 -0.0288
11821W        W27895   0.087  12.053  14.128  0.0491  0.0707  0.1690
11822W        W27896   5.413   8.821  13.363  0.2777  0.1757  0.0165
11823W        W27897  11.522   8.412  16.683 -0.2624 -0.3342 -0.2603
11824W        W27898  15.399   8.539  12.638 -0.3094 -0.0938  0.1232
11825W        W27899   9.837  15.743   3.294  0.1128  0.1890 -0.0352
11826W        W27900  13.973   4.228   2.084 -0.0185  0.1301  0.0305
11827W        W27901   7.847   9.615  15.110  0.1453  0.0011 -0.4244
11828W        W27902   9.443  14.831   4.768  0.1100 -0.2403 -0.1403
11829W        W27903   4.798   5.688   0.394  0.0144 -0.0313  0.1995
11830W        W27904   5.803  14.336   3.215  0.2726  0.0847  0.1642
11831W        W27905   7.679   7.472   0.545  0.1829  0.0938 -0.1262
11832W        W27906  11.428  15.273   2.100  0.0983  0.0329  0.0108
11833W        W27907   7.007  16.575  15.883  0.0579  0.3569  0.1278
11834W        W27908   7.659   2.306  14.170 -0.3064  0.1218 -0.1047
11835W        W27909  11.766  13.653   1.958  0.0923 -0.1252  0.2740
11836W        W27910   4.050  13.602   4.525 -0.1645 -0.1959  0.3807
11837W        W27911  13.190  15.206   6.022  0.0693 -0.2712 -0.0259
11838W        W27912  17.656   0.527  14.005  0.2575 -0.2474 -0.0046
11839W        W27913   2.458  16.227   4.343 -0.0273  0.1121  0.0330
11840W        W27914   0.880  16.858  13.597 -0.0280 -0.4303 -0.1588
11841W        W27915   6.184  12.551   0.757 -0.1388 -0.0613 -0.0388
11842W        W27916   1.526   6.258   4.352 -0.0154  0.0413 -0.1600
11843W        W27917  11.070   5.802  16.157 -0.3770  0.0214  0.1104
11844W        W27918   6.388  15.656  11.852  0.0320 -0.0197 -0.1140
11845W        W27919   8.503  14.946  14.528 -0.0952 -0.0031  0.1106
11846W        W27920   2.442  14.030   1.988  0.1540 -0.0634 -0.2379
11847W        W27921   6.427  15.681   0.945  0.0780 -0.1820 -0.0944
11848W        W27922   2.937  17.403  15.137 -0.0960  0.0609 -0.1567
11849W        W27923   1.603  16.798   2.275  0.1834 -0.0007  0.2357
11850W        W27924   7.147  17.054   5.596  0.0276 -0.0348  0.0305
11851W        W27925   8.152  12.336   0.188 -0.3574 -0.0243 -0.0358
11852W        W27926   5.869  11.301  15.022  0.0465 -0.2277  0.0510
11853W        W27927  13.708  13.620  13.237 -0.0110 -0.2902  0.0555
11854W        W27928   6.635   0.328  16.443  0.3423  0.1969  0.2771
11855W        W27929  16.726   9.578   6.388  0.2108  0.0586  0.0162
11856W        W27930  15.251  10.339   2.346 -0.0199  0.1093  0.2345
11857W        W27931  12.081   5.196   4.045 -0.5364  0.0910 -0.0444
11858W        W27932   5.426   8.640   3.018  0.0563  0.3205  0.1115
11859W        W27933   0.421   5.045   3.601  0.2214  0.0934  0.2236
11860W        W27934   8.148  12.133  14.834  0.1841 -0.0191 -0.2892
11861W        W27935   1.822   8.637  15.229  0.0840 -0.1407 -0.3170
11862W        W27936   4.384   7.310   1.762 -0.1129  0.0358 -0.0500
11863W        W27937   8.752  14.082  16.993  0.4775 -0.0127 -0.0705
11864W        W27938   0.376   2.704  15.550 -0.0266 -0.2222 -0.0023
11865W        W27939   0.221   8.727  15.808  0.0837 -0.0268 -0.1468
11866W        W27940  12.162   2.286   2.579 -0.0986 -0.1386  0.0335
11867W        W27941   3.874  13.784   2.350  0.0073  0.3520  0.0445
11868W        W27942   2.312   2.753   6.154 -0.0977  0.0843 -0.0325
11869W        W27943   1.969   6.998   3.560  0.3336 -0.1155  0.4612
11870W        W27944  13.218   8.366  13.830  0.0116 -0.1518 -0.0305
11871W        W27945   4.882  13.026   0.555  0.2158 -0.0328 -0.0294
11872W        W27946   8.417  17.165  14.762  0.0376 -0.2419 -0.0200
11873W        W27947   9.827   2.573  14.267  0.4159 -0.2481  0.0278
11874W        W27948   1.971   8.500   1.881  0.2910 -0.1675  0.0984
11875W        W27949   4.637  13.752   1.646 -0.2081  0.0336  0.0508
11876W        W27950   9.047   4.871   2.502  0.1666 -0.1825  0.0296
11877W        W27951  10.393   1.419  16.398 -0.0058 -0.1102 -0.0880
11878W        W27952   8.982   2.789   0.378 -0.1316  0.1794  0.0744
11879W        W27953   5.804   0.902   0.425  0.1234  0.0038  0.1901
11880W        W27954   7.076   8.155   1.375  0.2867 -0.1198  0.2149
11881W        W27955   9.755   1.581   2.916 -0.1774 -0.0639  0.0213
11882W        W27956   6.558  14.710  12.225 -0.0800 -0.2345  0.0668
11883W        W27957  12.684   3.224   2.940  0.0728 -0.1115 -0.0730
11884W        W27958  16.566  16.848  15.288  0.0670  0.1135  0.3259
11885W        W27959   1.942   8.707  17.091  0.0974 -0.5660  0.0956
11886W        W27960  15.161  17.513  14.092  0.1510 -0.0388 -0.0529
11887W        W27961  17.339  12.601  12.462 -0.0031  0.1605 -0.1534
11888W        W27962  14.420   0.212  16.063 -0.3145  0.4237 -0.1401
11889W        W27963  14.925   1.304  16.568  0.1342  0.3826  0.1337
11890W        W27964   6.886   4.140  17.159  0.0223 -0.2182 -0.2635
11891W        W27965  14.478   9.212   1.920 -0.1048  0.1314  0.0738
11892W        W27966  12.381  14.303   4.534  0.1282  0.4052 -0.1028
11893W        W27967  14.303  16.086   3.046  0.0983  0.1490 -0.1914
11894W        W27968   2.043   0.539  12.400  0.2117  0.2016 -0.3383
11895W        W27969  10.577   3.762   5.790  0.0329 -0.0732  0.0773
11896W        W27970  15.013   2.684  13.315  0.0553  0.1961  0.1395
11897W        W27971   8.015  15.839  12.966 -0.4310  0.0323  0.1385
11898W        W27972   9.697  11.314   3.230 -0.0955 -0.1848  0.3366
11899W        W27973  11.891  15.527   5.053 -0.0258 -0.0190  0.4280
11900W        W27974   7.401  12.927   3.309  0.2279 -0.2811  0.0878
11901W        W27975  12.164   6.024   4.262 -0.1119 -0.1113 -0.0627
11902W        W27976   2.115   6.526   2.064 -0.0227 -0.0719  0.0084
11903W        W27977   3.309   3.530  14.157 -0.1345  0.0104 -0.1288
11904W        W27978   3.763   3.103   4.367  0.2427 -0.0269  0.3197
11905W        W27979  10.116  11.859  13.005  0.1123 -0.1839  0.0041
11906W        W27980   8.982  10.084   3.293  0.1794  0.4537 -0.4364
11907W        W27981  16.305  10.597  16.244  0.1178  0.0015 -0.0335
11908W        W27982  14.251  15.932  16.618  0.0123 -0.2765 -0.0768
11909W        W27983   3.816   5.638  13.435 -0.0439 -0.0380  0.2731
11910W        W27984  10.447   8.468   2.511 -0.1316  0.4325  0.1931
11911W        W27985   3.432   9.705   3.454  0.0365  0.1943 -0.1084
11912W        W27986  10.682  15.291   4.721  0.1754 -0.1428  0.0545
11913W        W27987  10.659   7.997   2.276 -0.1328  0.0096  0.1050
11914W        W27988   5.144   8.829   0.068  0.3681 -0.1806 -0.1964
11915W        W27989   8.052   7.178  16.419  0.1204  0.0424  0.0090
11916W        W27990   0.846   1.811   0.176  0.1715 -0.1709  0.0363
11917W        W27991  13.242  12.548  13.889  0.1215 -0.0020 -0.4314
11918W        W27992   7.999   2.274  14.497 -0.0378  0.1616 -0.1681
11919W        W27993  15.703   8.743   2.297 -0.4446  0.3225 -0.0716
11920W        W27994  11.528   9.166  16.317 -0.0557  0.2869  0.1264
11921W        W27995   4.989  13.991   2.417  0.1838 -0.0768  0.2480
11922W        W27996   1.806   9.306  12.429 -0.1661 -0.1340  0.2839
11923W        W27997   7.345   3.493  12.488  0.1598  0.1553 -0.3029
11924W        W27998   9.132   1.291  13.870 -0.1498 -0.1499 -0.0413
11925W        W27999   0.989   4.305  15.755 -0.0124  0.0303 -0.2193
11926W        W28000   6.998   8.009   5.944  0.0826  0.0887 -0.0483
11927W        W28001  16.112   0.903  15.512  0.1482  0.2849 -0.0447
11928W        W28002  15.952   3.737  12.993 -0.1901  0.0243  0.3880
11929W        W28003  16.709  14.017   4.920 -0.1562  0.2532  0.0727
11930W        W28004  10.521  12.081  12.180  0.0546 -0.0318 -0.1096
11931W        W28005   2.820  15.178  16.152  0.2999 -0.1771  0.1730
11932W        W28006  10.890   8.804  13.092 -0.2771 -0.1810  0.2870
11933W        W28007   0.737  12.459  16.805  0.1133  0.0458 -0.2843
11934W        W28008   2.935   7.250   2.851  0.2776 -0.1061 -0.3277
11935W        W28009   3.510   0.266   1.731  0.0382 -0.1409 -0.2922
11936W        W28010  14.995  17.408  15.161  0.2550 -0.2021 -0.2759
11937W        W28011  13.387   7.892   4.060  0.1279 -0.1396 -0.0919
11938W        W28012   0.721  17.603  14.101  0.0993  0.2600  0.0124
11939W        W28013   2.293   6.962   2.291  0.1927  0.0661 -0.0915
11940W        W28014   9.812  14.897   2.838  0.1545 -0.0660  0.2414
11941W        W28015   5.554   3.887   5.349 -0.0715  0.0598  0.1001
11942W        W28016  12.411  12.348  14.376  0.0710  0.1000  0.0383
11943W        W28017   0.806   4.337   5.036  0.3003 -0.1156 -0.0244
11944W        W28018  10.926  14.638  13.952  0.0167 -0.2485 -0.0273
11945W        W28019   1.677   9.691   0.722 -0.0832  0.0354 -0.0109
11946W        W28020   3.406   1.868   5.359  0.2773 -0.0933 -0.2828
11947W        W28021   4.552  11.362  12.628 -0.3067  0.2544  0.0723
11948W        W28022   6.503   2.923   1.868 -0.1155 -0.2748 -0.4761
11949W        W28023   1.318   9.714  14.254  0.0734 -0.0994  0.3598
11950W        W28024   1.199  16.319   5.875  0.1316 -0.0259 -0.0398
11951W        W28025   6.784  13.033  12.251 -0.1846  0.1236 -0.1277
11952W        W28026   6.106   4.761  16.104  0.0086  0.2803 -0.0595
11953W        W28027   8.851  16.470  10.519  0.1353 -0.2172  0.0434
11954W        W28028   9.911  10.431  15.713 -0.1798 -0.2449  0.0951
11955W        W28029   3.481  17.540   5.004 -0.1073  0.1388 -0.1003
11956W        W28030   3.043  16.122   0.007 -0.0205  0.1323 -0.2505
11957W        W28031   3.806  11.415   3.168  0.3433 -0.0759  0.0652
11958W        W28032  14.837   8.610   2.213 -0.2081  0.0506 -0.0104
11959W        W28033   1.308  16.185   0.513 -0.0970 -0.0665 -0.1057
11960W        W28034   7.182  12.657  13.779 -0.4479  0.0620  0.0652
11961W        W28035  12.793  11.838   1.038 -0.2076  0.2079  0.2495
11962W        W28036  15.037   6.437   1.405 -0.1429  0.1315 -0.0321
11963W        W28037   8.351   4.878   2.019 -0.2416  0.2145 -0.3381
11964W        W28038   7.922   4.747   0.435 -0.1141  0.0612 -0.0919
11965W        W28039   4.650  17.611  13.565  0.0511  0.5308 -0.1562
11966W        W28040   9.499   1.382   0.188  0.1847 -0.1626 -0.0372
11967W        W28041  11.162  12.139   3.475  0.0583  0.0120 -0.0083
11968W        W28042  17.719  13.099  14.583 -0.0402 -0.2508  0.3041
11969W        W28043   4.449   1.352   3.751  0.0069 -0.0341 -0.0672
11970W        W28044  16.786   0.483  13.207  0.0124  0.3292 -0.0806
11971W        W28045  11.736  13.607  16.471 -0.2233 -0.0254  0.2940
11972W        W28046  14.290  10.818  14.591  0.1278  0.0071 -0.0978
11973W        W28047   1.483   8.267  15.414  0.0796 -0.2325  0.2277
11974W        W28048  16.286   0.293   0.983  0.2434 -0.4337 -0.0530
11975W        W28049   5.760  14.451  13.772  0.2124 -0.3777  0.1162
11976W        W28050   1.350   4.822   4.492 -0.1544 -0.0611  0.0086
11977W        W28051  12.085  13.588   5.584 -0.0055 -0.0363 -0.0493
11978W        W28052   1.767  17.319   0.087 -0.0069  0.0745 -0.0941
11979W        W28053  11.591   8.144   6.607  0.1410 -0.0967 -0.1533
11980W        W28054  14.680   6.946  14.884  0.2280  0.1856 -0.0520
11981W        W28055   2.122   2.911  11.906  0.0400 -0.0941 -0.0165
11982W        W28056   9.487   8.108   5.224  0.1683 -0.1561  0.1817
11983W        W28057  17.279   2.134  11.880  0.4666  0.1888  0.3460
11984W        W28058   9.575   5.850  13.341  0.1633 -0.2059  0.1953
11985W        W28059   5.772   0.506  11.807 -0.0166 -0.1169 -0.0454
11986W        W28060  16.527   9.402  15.782  0.2017  0.0937 -0.1844
11987W        W28061   8.370   7.703  13.926  0.1796 -0.0512  0.0618
11988W        W28062  16.067   7.990  14.731  0.0627  0.2757  0.0502
11989W        W28063  15.494   2.779  12.115 -0.0506 -0.1940 -0.1400
11990W        W28064   2.281  16.876  16.617 -0.1615  0.0076  0.1769
11991W        W28065   9.446   3.777   1.745  0.5256 -0.1676  0.0590
11992W        W28066   4.777   9.435  12.771  0.0371 -0.4426  0.3511
11993W        W28067   8.871  17.163   2.314  0.0115 -0.2323  0.0073
11994W        W28068  14.791  11.245  16.933  0.0443 -0.0498 -0.0835
11995W        W28069   6.642   1.145   3.346 -0.0493  0.2060  0.0472
11996W        W28070   2.406   2.646   0.680 -0.1035 -0.2403  0.1776
11997W        W28071   0.918   0.213  14.923 -0.2473  0.0112  0.1073
11998W        W28072  11.576  14.389   5.152 -0.0076 -0.0687  0.0381
11999W        W28073   1.920   9.660   1.671 -0.0844 -0.2287  0.2421
12000W        W28074  12.755   5.855   0.494 -0.1085 -0.2071 -0.1954
12001W        W28075   9.987   0.950   1.829 -0.0920  0.1686  0.2132
12002W        W28076   0.982   5.829   2.199  0.3758 -0.2329  0.0896
12003W        W28077  14.034  10.285  11.919 -0.1513  0.0044  0.0293
12004W        W28078   7.492   2.798  15.573  0.0828  0.0246 -0.0845
12005W        W28079   9.567   3.656   4.454  0.0118  0.1629  0.0341
12006W        W28080   7.536  11.450   0.223  0.1194  0.0880 -0.0071
12007W        W28081   1.044  17.075   4.163  0.0211 -0.0768  0.0741
12008W        W28082   4.092   2.927   1.035  0.1377 -0.1826 -0.0214
12009W        W28083   1.970   7.702   2.931  0.0663 -0.0072 -0.3354
12010W        W28084   4.674  10.463  10.854 -0.1007  0.1221  0.2309
12011W        W28085  13.934   9.965  11.487 -0.1467  0.3126  0.2380
12012W        W28086  11.083   4.444   4.448  0.2342 -0.1693  0.1814
12013W        W28087   8.708   7.881  15.277 -0.2069 -0.1026 -0.3496
12014W        W28088  15.383  13.117  12.985 -0.0077  0.1983 -0.1241
12015W        W28089  16.545  12.122  13.011 -0.4131  0.0040 -0.1414
12016W        W28090   0.353   4.521   5.055 -0.0430 -0.0162 -0.2191
12017W        W28091   3.103   0.670  14.708 -0.0312  0.2710  0.0596
12018W        W28092   9.253   8.678   0.476 -0.2423 -0.0951  0.0781
12019W        W28093   4.284  16.438   0.316 -0.1541 -0.0680 -0.2427
12020W        W28094  12.581  14.266  15.009  0.0534 -0.2694  0.0148
12021W        W28095   1.435  11.263  13.356  0.0752  0.0965 -0.1584
12022W        W28096  16.781   6.095   2.581  0.1464 -0.0448  0.2168
12023W        W28097  12.174  15.717  15.761  0.1882 -0.1671  0.0341
12024W        W28098  11.204   1.152   3.995 -0.0675 -0.0471  0.1484
12025W        W28099   6.170   5.947   1.395 -0.3520 -0.0476 -0.1925
12026W        W28100  11.099  13.513   2.040  0.0768  0.4310 -0.0125
12027W        W28101  11.147  10.653   5.113 -0.0784  0.1391 -0.1580
12028W        W28102  11.301  13.164  13.166 -0.3812 -0.0550 -0.0973
12029W        W28103  10.769   0.563  16.356  0.0194 -0.0492 -0.1920
12030W        W28104  16.853   9.104  13.993  0.0265 -0.0761 -0.0487
12031W        W28105   1.232  10.321   2.624 -0.1579 -0.1222 -0.2329
12032W        W28106   3.906   5.386  16.019  0.1440 -0.0872  0.1295
12033W        W28107   1.864  15.585   0.129 -0.1708 -0.0931 -0.1797
12034W        W28108  10.674  16.291   6.585  0.0683 -0.0430 -0.0460
12035W        W28109   7.054  11.221   0.073  0.1087 -0.1424  0.1283
12036W        W28110  17.107  15.204  16.046  0.1485 -0.0810  0.2722
12037W        W28111   9.832   6.714  15.588  0.1026 -0.1504 -0.0218
12038W        W28112  16.392  14.782   3.437  0.0375 -0.1761  0.2320
12039W        W28113   8.991   7.764   2.910 -0.1344 -0.0108 -0.3070
12040W        W28114   9.562   9.397  16.620  0.1926 -0.0833  0.1810
12041W        W28115   1.286  15.227  16.564  0.0381  0.0403 -0.0187
12042W        W28116   6.926   9.823   0.696 -0.2025 -0.1151 -0.1428
12043W        W28117   9.157   8.175   6.220  0.0207 -0.0396 -0.0556
12044W        W28118   1.780   1.666  13.827  0.1619  0.0193 -0.1721
12045W        W28119   5.404  13.752  16.308  0.0819  0.0133 -0.1374
12046W        W28120  11.864   5.835  11.810 -0.0199  0.2500 -0.1931
12047W        W28121  10.614   5.664   2.763 -0.1402  0.0638 -0.1351
12048W        W28122   9.518   4.869  15.482  0.1001 -0.3934  0.0535
12049W        W28123   7.883   1.529   5.183 -0.0759  0.0363 -0.0419
12050W        W28124   2.802   2.673   1.888  0.0289  0.0900  0.1200
12051W        W28125  14.298   2.130   3.282 -0.1948 -0.3011 -0.1664
12052W        W28126  12.720  16.012  13.282 -0.1537 -0.0617 -0.1041
12053W        W28127   5.327   3.861  14.012  0.0132  0.2994  0.0598
12054W        W28128   7.505  13.767  12.900  0.0674 -0.1427  0.1128
12055W        W28129   1.808   8.466   0.330 -0.3988 -0.2393  0.2385
12056W        W28130  15.252  10.860   5.724  0.2203 -0.0125 -0.1609
12057W        W28131   8.925   2.245  15.848 -0.0091 -0.0033 -0.0312
12058W        W28132   5.583  17.174   4.925 -0.0317 -0.1002 -0.1536
12059W        W28133   5.617  11.401   3.409  0.0126 -0.0300 -0.1544
12060W        W28134  16.882   4.158   2.316 -0.3690  0.0621 -0.0846
12061W        W28135   6.761  16.801  16.223  0.3431 -0.2574 -0.0701
12062W        W28136  13.391   1.243  13.738  0.1441 -0.0274  0.3506
12063W        W28137   0.201   0.733  15.088  0.0885 -0.1852  0.0770
12064W        W28138   2.700  16.776   2.206  0.3214 -0.1421 -0.0640
12065W        W28139   1.776   7.624  16.875  0.1143  0.0598  0.0277
12066W        W28140   3.652   8.941  16.914  0.0714  0.0085  0.1083
12067W        W28141   4.201  16.344   2.020  0.1020 -0.0387  0.1055
12068W        W28142  13.977   5.024  12.481  0.1897  0.0417  0.0480
12069W        W28143   5.755   0.323   5.842 -0.0703 -0.1770  0.2386
12070W        W28144  15.663   1.462   3.386  0.2496  0.1316  0.1974
12071W        W28145   6.639  10.078  14.794 -0.1470  0.1668 -0.2373
12072W        W28146  10.065  12.426  12.238  0.0183  0.1045 -0.2117
12073W        W28147   2.575   4.187  15.370 -0.1460 -0.0569  0.0102
12074W        W28148  11.112   0.155   1.959 -0.0122 -0.1300 -0.0539
12075W        W28149   2.061   2.808   2.790  0.1554 -0.0880 -0.1010
12076W        W28150  12.817   0.834  16.537  0.0827 -0.1905 -0.1119
12077W        W28151   1.980   0.000   1.121 -0.1356 -0.1729  0.0808
12078W        W28152   4.125   9.388   0.463 -0.3199 -0.0209 -0.2153
12079W        W28153  14.288  10.654   2.012 -0.0519  0.0374 -0.1885
12080W        W28154  14.483  13.806  14.809  0.1006  0.1622 -0.1945
12081W        W28155  15.152   9.577  15.876  0.2385 -0.0785 -0.0077
12082W        W28156  16.895   3.903  14.871  0.3282  0.0977  0.0262
12083W        W28157  12.539   8.181  17.135 -0.1801  0.3581  0.2888
12084W        W28158   7.400  14.311  16.279 -0.1393 -0.0374 -0.0151
12085W        W28159   6.547  17.724   5.796  0.2495  0.1252  0.0669
12086W        W28160  14.228   9.279  12.099  0.1396 -0.1433 -0.0252
12087W        W28161  11.625  13.531  12.270  0.0603 -0.3558 -0.0908
12088W        W28162   9.851   4.811   0.877  0.2198 -0.2015  0.1175
12089W        W28163   0.252   3.950  12.343 -0.0050 -0.3981  0.0640
12090W        W28164   6.964   5.635   5.820  0.1570  0.1146 -0.4133
12091W        W28165   5.288  12.909   5.475 -0.3707 -0.0235  0.2738
12092W        W28166   6.741   8.406   2.868  0.1010  0.1419 -0.0782
12093W        W28167  10.449   1.955  16.066 -0.2592  0.0295  0.1634
12094W        W28168   3.124   1.449   5.175 -0.0103 -0.3293 -0.2182
12095W        W28169   1.497   8.020   4.277 -0.0258  0.2252 -0.5222
12096W        W28170   5.751   6.594  13.025 -0.0282 -0.1234  0.0118
12097W        W28171  13.468   9.679   1.945  0.1389  0.0935  0.2450
12098W        W28172  11.308  12.186   5.744  0.2306 -0.1268  0.1219
12099W        W28173   3.624  11.462  15.121 -0.1466 -0.0539 -0.2407
12100W        W28174   9.772   2.326  13.459  0.0163 -0.2590 -0.0129
12101W        W28175   6.205  13.866   6.398 -0.2503 -0.1309 -0.2679
12102W        W28176  12.518   7.409  16.500 -0.2869 -0.0938 -0.0664
12103W        W28177   8.182   3.918   0.509  0.1494  0.4483  0.1362
12104W        W28178  13.683   1.500  16.048 -0.1251  0.3851 -0.1606
12105W        W28179   3.312  14.391  11.792  0.2082 -0.2344 -0.1629
12106W        W28180  16.964   9.853  13.334  0.0400  0.2595 -0.1081
12107W        W28181   7.818  15.297  15.190 -0.1389  0.0123  0.0160
12108W        W28182   3.385  14.570  16.036  0.0251 -0.4857  0.1368
12109W        W28183   0.302  14.517   3.066 -0.1619  0.0616  0.2205
12110W        W28184   1.445   6.751   0.965 -0.1184 -0.1726  0.1364
12111W        W28185   5.169  16.153   6.131 -0.0124 -0.2488  0.2503
12112W        W28186   6.739   9.712  15.880  0.1776  0.1833 -0.0463
12113W        W28187  12.106   2.972   0.647  0.0530  0.0435  0.3824
12114W        W28188  13.104   0.297  12.208 -0.3048 -0.1621 -0.0320
12115W        W28189   2.963  16.704   5.508  0.0803 -0.3056 -0.0218
12116W        W28190   3.902  15.148   5.004  0.0621 -0.0356  0.1400
12117W        W28191   2.746  10.738   4.534 -0.0996 -0.0102 -0.0275
12118W        W28192   0.419   6.982   4.520  0.0134 -0.1585  0.2277
12119W        W28193   1.304   1.914  14.151 -0.0172 -0.0137 -0.1173
12120W        W28194   9.916   8.474   1.211  0.0530  0.2291 -0.0963
12121W        W28195   6.182   9.410   2.217  0.1288 -0.1766 -0.0727
12122W        W28196   6.690  15.704  13.713  0.0988 -0.2446 -0.3843
12123W        W28197  14.356  13.115   2.712 -0.1007  0.1174  0.2121
12124W        W28198  13.976   8.990  14.191 -0.1090  0.0374 -0.0438
12125W        W28199   4.466   8.890   2.932 -0.1500 -0.2380 -0.2265
12126W        W28200   3.984   0.923  16.629  0.0274 -0.1216 -0.0598
12127W        W28201  13.560   2.613   3.536  0.0400  0.0695  0.1175
12128W        W28202  14.781  16.252   1.666  0.4696 -0.0218 -0.2873
12129W        W28203  10.404  10.160   1.375 -0.1094 -0.0922 -0.1021
12130W        W28204   0.873  12.338  14.984 -0.1000  0.3515 -0.0445
12131W        W28205  16.138  13.593   4.302 -0.1895 -0.1136 -0.1154
12132W        W28206  12.424   1.251  13.965  0.0557 -0.0318 -0.0550
12133W        W28207   8.583   1.126   0.122 -0.3671 -0.0398 -0.3306
12134W        W28208   9.277   7.111   5.937  0.4579 -0.0063 -0.3226
12135W        W28209   8.922   4.334   3.918  0.0558  0.3135  0.0330
12136W        W28210   9.881   6.293  11.940  0.0735  0.0636  0.0336
12137W        W28211   1.521  14.531  11.468 -0.1346 -0.0946  0.1656
12138W        W28212   4.964  11.570   3.825 -0.0054  0.1405  0.0869
12139W        W28213   3.859  14.624  12.899 -0.0474  0.2659  0.1885
12140W        W28214   2.248   3.042   1.415  0.0383  0.0151 -0.2299
12141W        W28215   1.346  15.478   3.565  0.1335  0.0350  0.2543
12142W        W28216   6.945   0.383   5.018  0.1896 -0.0612  0.3133
12143W        W28217   5.411   0.855  14.742 -0.3768  0.0280  0.1996
12144W        W28218  14.240  12.069   0.087 -0.1552 -0.0787  0.3092
12145W        W28219   1.816   0.476   4.444  0.0705  0.0370 -0.2013
12146W        W28220   6.847   6.570  12.149  0.0331 -0.2204  0.0323
12147W        W28221   7.241  17.411  12.022  0.2577 -0.2056  0.2846
12148W        W28222  14.185  13.855  12.867 -0.3078 -0.3103 -0.3770
12149W        W28223  16.426  14.916   2.473 -0.0576 -0.1980  0.0434
12150W        W28224  13.405  14.610  13.401 -0.1635  0.0931 -0.1897
12151W        W28225  15.670  17.075   0.179 -0.2458 -0.3422 -0.1154
12152W        W28226  11.631  14.351  15.484 -0.1144  0.1109  0.0700
12153W        W28227   3.156   6.559  13.147 -0.1608  0.1259 -0.1322
12154W        W28228  17.240   4.251  14.386 -0.2019  0.1187 -0.1683
12155W        W28229   9.776   6.284  15.796  0.2775 -0.2806  0.0573
12156W        W28230  12.442   0.828  11.771 -0.1632 -0.0164  0.2317
12157W        W28231  14.271   4.122   4.872  0.0619 -0.1885  0.0582
12158W        W28232  11.342   2.706   1.753 -0.1986 -0.0967  0.3153
12159W        W28233  13.049  15.169  16.611 -0.1677 -0.1857  0.1045
12160W        W28234   9.196  16.378   2.976 -0.0971 -0.1959 -0.1078
12161W        W28235   3.846   4.423  16.856 -0.0178  0.0447  0.1215
12162W        W28236  17.334   3.612   5.555  0.2356 -0.1868  0.0885
12163W        W28237  11.968  12.278  13.996  0.1428  0.3815  0.2830
12164W        W28238   4.576   0.676   1.239  0.0755  0.0784 -0.1907
12165W        W28239  12.008   8.669  14.353  0.2635 -0.0467 -0.2030
12166W        W28240   8.850   6.795   3.636  0.1674 -0.1375  0.0225
12167W        W28241   9.039  11.385   4.336  0.3010 -0.1528  0.2190
12168W        W28242   6.079  15.752   3.949  0.3524  0.1120  0.0209
12169W        W28243   5.930  15.843   4.462  0.1774  0.1337  0.0397
12170W        W28244   2.588   7.726   3.645 -0.3838 -0.2524 -0.1906
12171W        W28245  10.171   4.690  15.137 -0.0376  0.1577 -0.1116
12172W        W28246   7.363  16.223  15.990 -0.0261  0.0938 -0.1071
12173W        W28247   9.934   2.637  16.967  0.0529  0.1465  0.2038
12174W        W28248  11.341  16.617  13.702 -0.1103  0.0699  0.0023
12175W        W28249   1.770   9.983   4.765  0.0462 -0.1599 -0.0127
12176W        W28250   0.458   1.734   1.971 -0.0772  0.0729  0.0412
12177W        W28251   0.649   3.464   6.409 -0.2924 -0.0756 -0.1627
12178W        W28252   2.896   6.164   4.394 -0.1414 -0.4428 -0.1732
12179W        W28253   2.695  10.051  12.890  0.1012 -0.2391 -0.1005
12180W        W28254   1.916  10.149   0.834 -0.0261  0.0221 -0.0297
12181W        W28255  10.085   2.736  16.491 -0.0578  0.1122  0.2068
12182W        W28256  10.802   5.655   1.399 -0.0229  0.0120 -0.0982
12183W        W28257  15.570   8.405  12.176  0.0419  0.0367 -0.1009
12184W        W28258   9.682  17.130   1.248 -0.0731  0.0319  0.0577
12185W        W28259  15.542   7.325   3.183 -0.0978  0.0424 -0.1062
12186W        W28260   7.764  14.049  10.690 -0.3369  0.0646  0.1409
12187W        W28261  14.846  11.264   2.301 -0.1335  0.0546 -0.0635
12188W        W28262  16.687  14.780   2.919  0.1870 -0.1384 -0.1749
12189W        W28263   4.884   3.786  16.099 -0.2132  0.1287  0.1834
12190W        W28264  16.962   4.943   3.552  0.2150 -0.1902  0.3379
12191W        W28265   2.877   8.190  16.301  0.2977 -0.3728  0.2961
12192W        W28266  14.644  14.080  16.616  0.1136 -0.1851 -0.0426
12193W        W28267   6.819   4.879   4.315  0.1311  0.2339 -0.0910
12194W        W28268  11.181  15.068  14.194 -0.4499  0.2370  0.0127
12195W        W28269  12.687   4.175   5.975  0.0027 -0.1314  0.2382
12196W        W28270  12.770  13.608   0.563  0.5431 -0.2054  0.2603
12197W        W28271  13.090  12.078  11.942  0.1173  0.1031  0.1050
12198W        W28272  13.004  12.709   3.388 -0.1592  0.2587  0.0607
12199W        W28273  10.750   0.497  12.233  0.2005 -0.3624 -0.1026
12200W        W28274   2.167  12.412  13.267  0.0587 -0.2089  0.0115
12201W        W28275  13.278  10.964   4.765 -0.1741 -0.0352  0.2005
12202W        W28276   7.898  15.296  16.984  0.0405 -0.1343 -0.0954
12203W        W28277   5.502   0.196  14.515 -0.0117  0.1198  0.1860
12204W        W28278  15.185  11.883   5.288 -0.0338 -0.1249  0.2015
12205W        W28279   5.726   8.034  11.969  0.0230 -0.0764 -0.2758
12206W        W28280  12.679  17.370  15.070 -0.1381 -0.2527 -0.0558
12207W        W28281  10.898   1.971   1.957 -0.3430  0.1181 -0.0933
12208W        W28282   1.882  14.587   5.758  0.2934 -0.5371 -0.3340
12209W        W28283  17.347   6.278  12.245  0.1622  0.0125 -0.0444
12210W        W28284  16.361  15.776   1.479 -0.1274 -0.0005  0.1812
12211W        W28285  17.186  11.950   3.000 -0.2154 -0.2086 -0.1589
12212W        W28286   7.295   6.808   3.721 -0.1048 -0.2416  0.3901
12213W        W28287  10.430  14.152   1.952  0.3216 -0.2851 -0.1495
12214W        W28288   2.733   3.447  15.558  0.0428  0.0955 -0.1342
12215W        W28289   4.192   6.083   2.059  0.1926 -0.3529  0.0749
12216W        W28290   2.967  10.675  16.667 -0.3994 -0.0392 -0.1796
12217W        W28291  12.132   4.559  12.677  0.0048  0.0200  0.2157
12218W        W28292   6.855   0.893  11.388 -0.0321 -0.1820 -0.1704
12219W        W28293   6.692   8.391   6.132 -0.2397  0.1554  0.2082
12220W        W28294   2.024  14.070   2.174 -0.3840 -0.1022 -0.0742
12221W        W28295   2.166  16.649   3.500 -0.0203 -0.1048  0.1392
12222W        W28296   8.342  14.090   3.418 -0.1629  0.3966  0.0904
12223W        W28297   5.251  15.206   5.698 -0.0978  0.1164 -0.0735
12224W        W28298  12.483   0.882   4.933  0.1720  0.1565 -0.2575
12225W        W28299  16.944  14.477   4.995  0.2602 -0.0619 -0.1010
12226W        W28300  17.571   6.095   1.368 -0.1271  0.1921 -0.0689
12227W        W28301  11.534  16.073   1.043 -0.0508 -0.1135 -0.0938
12228W        W28302  13.208   9.899   2.880  0.2532  0.0337  0.0503
12229W        W28303   6.938   3.127   2.184 -0.3897  0.0647 -0.1682
12230W        W28304   6.071   3.688  12.169 -0.2969  0.0050  0.0028
12231W        W28305   0.486  11.701  15.402 -0.0931 -0.2282  0.4007
12232W        W28306   8.248   4.341  13.762  0.0179  0.0813 -0.1567
12233W        W28307   1.896   7.343   5.454  0.2629 -0.0638 -0.1584
12234W        W28308   2.403   5.582  17.040  0.2458  0.3260  0.2861
12235W        W28309   8.913   7.039  16.240  0.0402  0.1658  0.4343
12236W        W28310   2.932   7.862  14.684 -0.0354 -0.0826  0.2275
12237W        W28311  13.239   5.965   1.276 -0.2066  0.1177  0.4334
12238W        W28312   1.480  15.238   4.497  0.3035 -0.0744 -0.2434
12239W        W28313   0.547   9.673   2.183 -0.1101 -0.0687  0.0173
12240W        W28314   9.564  10.680   3.617  0.1970 -0.1913 -0.0747
12241W        W28315   7.991  13.199  15.915 -0.3011  0.2653  0.2389
12242W        W28316  16.959   7.388  12.760  0.2795  0.0551  0.2317
12243W        W28317   6.556  10.562  14.113 -0.1452  0.1810 -0.0228
12244W        W28318   1.255   0.878   3.783 -0.2044  0.0921  0.1673
12245W        W28319  11.174  10.035  17.147 -0.2777 -0.0925  0.0033
12246W        W28320   8.137   7.770   5.531 -0.1123  0.0407 -0.1050
12247W        W28321   4.935  16.823   2.881 -0.0928  0.0007 -0.1458
12248W        W28322   8.465   5.976  13.728  0.1194  0.2055 -0.2989
12249W        W28323   8.164   4.000   3.738 -0.2609  0.0899 -0.1309
12250W        W28324   1.297   9.977  12.912 -0.3919 -0.0799 -0.1219
12251W        W28325   1.206   4.035  13.735  0.1847 -0.1143 -0.1911
12252W        W28326   9.345  13.069  15.971 -0.1800 -0.0703  0.0919
12253W        W28327  17.352   9.079   1.499 -0.0161  0.0728  0.0546
12254W        W28328  16.428   2.280  14.606 -0.0662 -0.0104  0.4025
12255W        W28329   7.759  13.976   0.273 -0.1903  0.0626 -0.0642
12256W        W28330  13.785   0.290   5.077 -0.1350  0.2497  0.0364
12257W        W28331  11.556  14.170   0.428 -0.2145 -0.1488  0.1395
12258W        W28332   5.617  10.766   3.556 -0.0397 -0.1539  0.1680
12259W        W28333   3.227   1.491   2.495 -0.2352 -0.0791 -0.0258
12260W        W28334   1.749  16.933  15.818 -0.0804 -0.1631 -0.0354
12261W        W28335   4.781   4.507   5.128 -0.1435  0.1550  0.0729
12262W        W28336  16.600  11.538  17.027  0.0146  0.1288  0.0200
12263W        W28337  15.747   2.705  14.261 -0.0408  0.0367  0.1362
12264W        W28338  10.138   2.223  12.566  0.0408  0.5092 -0.1110
12265W        W28339   7.869   9.638   0.816  0.1961  0.0518  0.0638
12266W        W28340   7.720   9.116   2.379 -0.0075  0.0726 -0.2684
12267W        W28341  13.431   4.423   4.914  0.2856  0.1515 -0.3401
12268W        W28342  14.978   9.516   1.683 -0.1491  0.0495  0.2094
12269W        W28343   1.711   2.919   1.272 -0.3758  0.1385 -0.1041
12270W        W28344   4.477   8.671   6.338 -0.0827  0.1945 -0.2094
12271W        W28345   2.606   9.701   0.296 -0.0632 -0.0792 -0.0211
12272W        W28346  17.252   5.256  14.145  0.0561 -0.2138  0.1753
12273W        W28347   1.455   3.209  16.409 -0.0737 -0.2446 -0.1784
12274W        W28348  10.087   8.772  15.460  0.2473 -0.0191 -0.2425
12275W        W28349  12.353   1.673   3.546 -0.2908  0.2046  0.0777
12276W        W28350  10.039  14.518   4.119  0.0599 -0.1102  0.3140
12277W        W28351   6.759   4.271   5.377  0.1811 -0.0752 -0.0522
12278W        W28352   4.475   2.251  14.202 -0.1225 -0.1485  0.2538
12279W        W28353  11.384  10.415  12.496 -0.2842  0.2416  0.0143
12280W        W28354  17.114  11.923  12.820  0.0784  0.0402  0.0445
12281W        W28355   4.624   6.877  14.776  0.2651  0.3255  0.1290
12282W        W28356  14.133  15.705  12.398  0.0582  0.2636 -0.1168
12283W        W28357  16.363  12.516   5.225 -0.1407  0.2976 -0.3764
12284W        W28358  15.009  12.403   4.379  0.1164  0.1087 -0.0509
12285W        W28359   0.966   2.709  14.645 -0.1047 -0.1659  0.0935
12286W        W28360   9.674  15.714   2.349 -0.3123  0.1514  0.1311
12287W        W28361   6.603  16.465   2.993 -0.1698 -0.1024 -0.0926
12288W        W28362   8.036   1.950   0.775 -0.2124  0.1058 -0.1026
12289W        W28363   7.875   6.659   0.540 -0.1447  0.1479  0.0543
12290W        W28364   2.182  14.414  13.326 -0.1025 -0.4934 -0.1435
12291W        W28365  17.439  11.563   1.657  0.0972 -0.0756 -0.0442
12292W        W28366   4.710  10.500   0.904  0.0304  0.2857 -0.1516
12293W        W28367   2.331   4.286  16.175 -0.1386  0.0423 -0.3255
12294W        W28368   5.343  13.183  12.435  0.2207 -0.1106  0.1030
12295W        W28369   6.979  17.367   4.618  0.1294  0.1769  0.0496
12296W        W28370   1.830   5.092   0.052  0.1511  0.0826  0.1031
12297W        W28371   9.759   4.218  12.884  0.2738  0.0860 -0.1375
12298W        W28372   6.974  11.556  16.556 -0.5750 -0.0220  0.0123
12299W        W28373  10.875   6.685  15.823 -0.0377  0.2224  0.0717
12300W        W28374   6.550  13.507   0.830 -0.1859  0.0720  0.2626
12301W        W28375  15.961   5.419   1.667  0.3599 -0.3349  0.0026
12302W        W28376   5.902  13.731  16.377  0.0717 -0.1421 -0.0384
12303W        W28377  11.517   9.527   3.647  0.1975 -0.1496 -0.2378
12304W        W28378  11.770  17.383  15.457 -0.3588 -0.0209  0.3367
12305W        W28379  11.593   1.778   4.350 -0.1250 -0.2677  0.0729
12306W        W28380   6.203   3.224   4.039  0.4266  0.1489 -0.1306
12307W        W28381   6.518   9.853   4.136  0.3858 -0.0368  0.1007
12308W        W28382   5.259  14.112  12.494  0.0178  0.0772 -0.2362
12309W        W28383   1.898   5.195  11.884  0.0258  0.1494  0.0711
12310W        W28384   6.398   1.299   1.595  0.0884  0.1074  0.1128
12311W        W28385  12.050   7.020   0.892  0.0872  0.2252 -0.2562
12312W        W28386  10.164  13.741  15.657  0.0122  0.2242  0.1551
12313W        W28387  10.778   7.396  13.025  0.0082 -0.1607  0.2961
12314W        W28388  15.938  11.059  16.963  0.0172  0.0272 -0.1826
12315W        W28389  12.464   5.904   2.522 -0.0329  0.1692  0.0644
12316W        W28390   4.816  16.738  14.955  0.2432 -0.0421  0.1278
12317W        W28391   3.271   3.078   2.991 -0.2570 -0.2126 -0.1600
12318W        W28392  12.750  16.552  15.902 -0.6192  0.0299  0.2163
12319W        W28393   2.282   7.069  15.698  0.0551  0.0120  0.1732
12320W        W28394   6.069   5.477   5.244  0.0842 -0.1353  0.0822
12321W        W28395   7.149  11.766   0.381  0.1829 -0.0753 -0.1117
12322W        W28396   5.917   7.943   6.052 -0.0709 -0.0215  0.3377
12323W        W28397  13.418   6.901  11.820  0.1752  0.0572 -0.1139
12324W        W28398   5.238   3.706   4.214 -0.0979 -0.0210 -0.0656
12325W        W28399  12.166  12.621  15.912 -0.1074  0.0024  0.3539
12326W        W28400   4.161   5.655   3.397 -0.0552  0.0087 -0.0801
12327W        W28401  11.817   2.163  12.776  0.2811 -0.2474  0.1569
12328W        W28402   3.339  13.147  16.769 -0.0140  0.1707  0.0733
12329W        W28403   2.774   8.992  16.970 -0.0194 -0.2842  0.0901
12330W        W28404   9.645   8.110   4.181  0.1103  0.3605  0.2130
12331W        W28405   0.690   6.497  15.040 -0.1149  0.0448 -0.0652
12332W        W28406   5.000  13.864  12.869 -0.1603 -0.1362  0.0060
12333W        W28407   3.837   6.008   4.797  0.1225  0.2539  0.3529
12334W        W28408  13.188   6.647  16.230 -0.0673 -0.0477 -0.4201
12335W        W28409  16.571   1.778   0.780 -0.0321 -0.1173  0.0399
12336W        W28410  11.520  11.945  16.322 -0.2224 -0.1640 -0.1361
12337W        W28411   3.743  14.774  16.873 -0.2196 -0.0892  0.0985
12338W        W28412  11.267  15.081   5.655  0.0577  0.0904 -0.0444
12339W        W28413  13.939   8.050  14.509 -0.1638  0.2526  0.1069
12340W        W28414   0.406  11.496  16.194  0.1168  0.0518  0.1561
12341W        W28415   7.014   8.075   0.798 -0.1791 -0.0213  0.0996
12342W        W28416  14.685   4.015   5.328  0.0392  0.1206 -0.0979
12343W        W28417  13.578   5.374   2.209  0.0268 -0.1882  0.0150
12344W        W28418  17.414   9.268   2.515  0.1331  0.1452  0.0953
12345W        W28419  16.862  12.015   3.421 -0.4514 -0.0288  0.0199
12346W        W28420  16.798   4.590   3.173  0.3257 -0.1733  0.0768
12347W        W28421   4.787   8.125  17.122  0.0313 -0.0165  0.0669
12348W        W28422   9.146  16.889   3.126  0.1705 -0.0307  0.0990
12349W        W28423   4.120   5.627  15.578  0.2883 -0.1534  0.2026
12350W        W28424   5.077   9.226   3.872  0.1386 -0.0130  0.1434
12351W        W28425  13.833   9.959   0.570  0.4429 -0.3888 -0.0352
12352W        W28426  16.408   1.737  14.787  0.0455  0.3077  0.2368
12353W        W28427  17.554  13.284  16.628  0.2136 -0.0417 -0.3992
12354W        W28428  13.484  17.612   5.771 -0.1691 -0.2828  0.1211
12355W        W28429   1.671   4.433   3.468 -0.5314 -0.0033  0.3132
12356W        W28430  14.531   4.262  12.534  0.1229 -0.1415 -0.0806
12357W        W28431   7.914  13.542  15.505 -0.1150 -0.0313 -0.0770
12358W        W28432  15.155  16.939   0.255  0.0212  0.1429 -0.2205
12359W        W28433   4.941   1.687   5.584 -0.1444  0.0478  0.0739
12360W        W28434   2.495  15.182   5.513 -0.4876 -0.1784 -0.0527
12361W        W28435   1.954   3.006  15.073  0.0895 -0.3918 -0.0640
12362W        W28436   6.282  10.410  11.395 -0.0031  0.0184  0.0317
12363W        W28437  12.280   4.372  14.683  0.0566  0.4057  0.3329
12364W        W28438  16.029   0.548   6.212  0.1162  0.0358  0.0737
12365W        W28439  17.180  17.151  16.396  0.1084  0.1349  0.2636
12366W        W28440   9.004   1.623   5.317  0.3222  0.0607 -0.0791
12367W        W28441   6.703   6.324  12.751  0.0211  0.0257  0.0474
12368W        W28442   5.488  15.864  15.196 -0.0143 -0.1507  0.0861
12369W        W28443   0.833  12.313  11.833 -0.3243 -0.1722  0.3188
12370W        W28444  12.469  14.023  16.891 -0.1687 -0.0692  0.1044
12371W        W28445   4.374  13.119  14.944  0.1933 -0.0642  0.1989
12372W        W28446   9.399   8.992   3.267  0.2151 -0.0514  0.1814
12373W        W28447  14.379   5.970   3.033 -0.4456 -0.1841  0.1066
12374W        W28448  10.597   0.873   6.406  0.0368 -0.0889 -0.1223
12375W        W28449   5.109   6.110   3.899 -0.0520 -0.0295 -0.1727
12376W        W28450   1.335  17.083  12.682 -0.0693  0.0946 -0.0259
12377W        W28451   7.958   8.097   4.315  0.1296 -0.0866  0.0912
12378W        W28452  17.288  13.016  12.005  0.1419 -0.2501 -0.0026
12379W        W28453  15.887   6.885   3.198  0.2573 -0.1387 -0.1119
12380W        W28454  14.849   6.949   0.055 -0.2483 -0.2065  0.1245
12381W        W28455  13.815  11.589   3.408 -0.2671 -0.1165 -0.0685
12382W        W28456  16.328   6.274  16.676 -0.1518 -0.1637 -0.0306
12383W        W28457  15.487   9.679   3.604 -0.1903  0.0006 -0.2376
12384W        W28458   5.359  13.655   5.809  0.2014 -0.0290 -0.0894
12385W        W28459  10.523   5.930   2.244 -0.2415  0.1381  0.0562
12386W        W28460  10.270   3.392  16.458  0.0937 -0.3538 -0.0044
12387W        W28461   3.865  12.872  15.762 -0.0950  0.0961  0.0133
12388W        W28462   9.845   4.781   3.943  0.2477  0.2969 -0.3882
12389W        W28463   1.954  12.766  11.863 -0.0862  0.2010 -0.1949
12390W        W28464   4.187  10.408   0.810  0.0634  0.0980 -0.1109
12391W        W28465  12.453  11.837  16.799 -0.1210  0.1007 -0.1642
12392W        W28466  10.113   7.624   5.696  0.0273  0.1343  0.2677
12393W        W28467  17.654   2.207  16.138 -0.1015  0.0624  0.0637
12394W        W28468   9.199  15.714   1.694 -0.1696 -0.2121  0.1049
12395W        W28469   5.687  16.625   5.803 -0.3396 -0.1807  0.0492
12396W        W28470   1.209   9.266   3.687  0.0774  0.0074  0.0153
12397W        W28471  10.246   5.553  17.032  0.1346  0.0203 -0.1795
12398W        W28472   4.671  16.423  16.346  0.3040 -0.4527 -0.1832
12399W        W28473   1.208  10.159  14.906  0.3652  0.3116  0.0396
12400W        W28474  11.570  10.911   0.913 -0.2592 -0.1052 -0.1739
12401W        W28475   6.903   7.875   4.741  0.1200  0.3031 -0.2898
12402W        W28476   0.467   9.910   3.740  0.0553  0.0808 -0.3427
12403W        W28477   2.765  11.778  15.886  0.3114 -0.0073 -0.5356
12404W        W28478   2.762  14.039   5.726 -0.0371  0.1046  0.1474
12405W        W28479  14.864   9.855  11.729  0.3231 -0.1047 -0.0493
12406W        W28480   2.156   3.957  12.373 -0.0337 -0.1849 -0.0607
12407W        W28481  15.791   5.662  11.846 -0.3637  0.0029 -0.2012
12408W        W28482   8.171   6.402  12.378  0.0300 -0.1212  0.0176
12409W        W28483   4.346  15.283   3.739  0.0446 -0.0909 -0.0074
12410W        W28484  11.391   1.337   0.298 -0.2007  0.2331  0.0154
12411W        W28485   1.608  10.625   2.630 -0.1094  0.0367 -0.1922
12412W        W28486   8.577   4.226   0.618 -0.2405 -0.0108 -0.0278
12413W        W28487   8.488  16.647   1.694  0.2677 -0.1672 -0.2887
12414W        W28488  16.589  15.109  15.768  0.1885  0.0743 -0.2282
12415W        W28489  10.806  12.852   5.126 -0.0108  0.0792  0.1243
12416W        W28490  16.265  12.017   1.137 -0.1290 -0.0653 -0.1729
12417W        W28491   2.687   5.520  14.370  0.1870 -0.3340 -0.3382
12418W        W28492   8.861  11.416   4.936 -0.1060 -0.3416  0.2973
12419W        W28493   2.718   6.394   0.079  0.0790  0.0406  0.2297
12420W        W28494  15.849  15.845  16.533  0.3053  0.1040 -0.0026
12421W        W28495  13.144   6.904  15.454  0.2882  0.1566 -0.0170
12422W        W28496  10.326  13.965  16.159  0.1913  0.1671 -0.4748
12423W        W28497  14.967  10.956   4.887 -0.0510 -0.0411 -0.1367
12424W        W28498  14.409  13.415  13.256  0.2692 -0.4364  0.1561
12425W        W28499  11.807   4.416  12.246  0.0653 -0.0730 -0.1871
12426W        W28500  10.780   6.978   3.450  0.0559  0.1439 -0.1364
12427W        W28501   4.768  15.297   4.018 -0.0544 -0.0933  0.0389
12428W        W28502  13.603   0.508  14.932 -0.0374 -0.0466 -0.0733
12429W        W28503   6.876  13.989  17.086  0.0906 -0.0270 -0.0492
12430W        W28504   4.978   7.264  16.167 -0.1089 -0.0690 -0.0630
12431W        W28505   5.861  14.193   2.720  0.0668 -0.0329 -0.0985
12432W        W28506   7.792   4.338  16.109 -0.1335 -0.2104 -0.0720
12433W        W28507   8.944   4.896   1.939 -0.1980 -0.1970 -0.1008
12434W        W28508   7.362   5.167  17.117 -0.3131 -0.0288  0.1059
12435W        W28509  15.354   3.820   5.855  0.1331 -0.1552 -0.1073
12436W        W28510   3.983   0.223   0.206  0.1878  0.0272  0.0099
12437W        W28511   7.148  17.508  12.622 -0.0434 -0.4251  0.0644
12438W        W28512   2.499  13.332   3.697 -0.2421  0.1027 -0.3360
12439W        W28513   5.535   4.761  15.908  0.2270 -0.1504  0.0391
12440W        W28514  14.240  16.819   4.321 -0.0363 -0.1450 -0.1766
12441W        W28515   8.277   4.471   3.851 -0.1169 -0.2204 -0.3028
12442W        W28516  14.427   8.578   4.680  0.5850  0.1502 -0.0812
12443W        W28517  10.301  12.559  17.079 -0.2946 -0.1575  0.0920
12444W        W28518  12.539  15.209   1.852  0.1181  0.2801  0.2316
12445W        W28519   1.944   0.793   1.738  0.1431 -0.0097 -0.1339
12446W        W28520  12.859   7.534   1.419  0.0748  0.0304 -0.1531
12447W        W28521   8.654   1.013   1.077  0.1395 -0.1990  0.0310
12448W        W28522  15.309  17.115  14.745 -0.0950 -0.4463  0.3130
12449W        W28523  10.533  15.348   2.356 -0.0524 -0.0758 -0.1115
12450W        W28524   2.639   4.873   4.580  0.2903  0.1099  0.0440
12451W        W28525  10.399  15.393   0.129 -0.1969 -0.0599 -0.1477
12452W        W28526   3.732  10.751  16.152  0.0199  0.2544  0.1190
12453W        W28527   9.811   8.856   5.189 -0.1597  0.1285  0.1376
12454W        W28528  13.071   9.888   0.036  0.0866 -0.1637  0.1879
12455W        W28529  17.505   7.201  15.254  0.1977  0.0571 -0.0474
12456W        W28530   3.857  15.833  16.512  0.1964  0.2558 -0.1456
12457W        W28531   9.793   2.920   3.029 -0.0865  0.2459 -0.2245
12458W        W28532  12.343   7.502  12.981  0.0580 -0.1528  0.1114
12459W        W28533   4.843  10.051  15.292  0.0805 -0.0469 -0.0131
12460W        W28534   1.553   3.877   3.516  0.2408  0.0307  0.2446
12461W        W28535   3.936   5.959   0.836 -0.0447  0.3187  0.1863
12462W        W28536   8.190  17.095   3.092 -0.0032 -0.0992  0.1273
12463W        W28537   0.010  12.652   4.643 -0.0669 -0.2875  0.1471
12464W        W28538   0.460   8.174   1.638 -0.0699  0.0062  0.3172
12465W        W28539   2.684  12.717  15.144  0.4026 -0.0354  0.1126
12466W        W28540   7.738   1.077   3.978 -0.0451 -0.1452 -0.2236
12467W        W28541   8.440   8.211  14.187 -0.3221 -0.0910 -0.1500
12468W        W28542   5.685  11.176  12.098  0.1270 -0.0418 -0.0398
12469W        W28543  16.094   2.117   2.751  0.1386  0.2943  0.2457
12470W        W28544   9.224   8.907   6.712 -0.1356  0.0150  0.3473
12471W        W28545   9.725  16.210   2.989  0.0148  0.0130  0.2498
12472W        W28546   3.585  15.580  12.323 -0.0286  0.0392  0.0784
12473W        W28547  13.002  17.027   2.645  0.1659 -0.0924  0.1255
12474W        W28548   5.627   8.191  14.718  0.1425  0.1350  0.2805
12475W        W28549   7.964  16.834   2.101 -0.0760  0.1786  0.1637
12476W        W28550  15.747   2.040   1.677 -0.0169  0.5481 -0.3236
12477W        W28551   4.796   3.479   5.884 -0.0406 -0.0037  0.2218
12478W        W28552   8.180   4.936  12.579 -0.1039 -0.1595  0.0616
12479W        W28553   6.949   1.639  17.042  0.2307  0.3072 -0.2515
12480W        W28554  16.836   1.364   5.852 -0.1708  0.1093 -0.2555
12481W        W28555   7.532   1.400  14.786  0.0359  0.2111  0.1184
12482W        W28556   8.696  13.101   0.868 -0.2071 -0.0264  0.0760
12483W        W28557  16.142  11.764  16.975 -0.3485 -0.2406  0.0720
12484W        W28558  12.668  11.454  15.603  0.1720 -0.5615 -0.1069
12485W        W28559   3.831  17.196   0.772 -0.0455 -0.3213 -0.3067
12486W        W28560  12.508   3.979  14.585 -0.1562  0.0320  0.2355
12487W        W28561   9.828  12.637  17.150 -0.1252  0.0567 -0.2973
12488W        W28562   5.287  10.358   1.222 -0.2308  0.0195 -0.2318
12489W        W28563  13.870  14.813   2.880  0.0565  0.0552  0.0617
12490W        W28564  14.945  17.601  11.869 -0.0506 -0.1519  0.1124
12491W        W28565   1.633  16.372  13.994  0.2505 -0.0587 -0.1201
12492W        W28566   9.092   5.580  15.114  0.1438  0.1992 -0.0942
12493W        W28567  10.312   1.315  13.685  0.0672 -0.0529  0.1994
12494W        W28568  16.359   8.771  14.548  0.0435 -0.0366  0.1257
12495W        W28569   4.552  14.373  11.365 -0.1159 -0.2259 -0.1517
12496W        W28570  15.693  14.969   3.767  0.0270 -0.1963 -0.0751
12497W        W28571  10.252  10.523   4.053  0.2797 -0.1914  0.0872
12498W        W28572  12.882   0.731   1.812 -0.0152 -0.0464 -0.0689
12499W        W28573  13.238  10.792  12.272  0.0146 -0.3539 -0.1553
12500W        W28574  16.159  14.776  12.542 -0.0249 -0.2477  0.2342
12501W        W28575   9.307   5.637  12.387  0.0096  0.0655  0.1543
12502W        W28576   4.670   9.060  13.122 -0.1022  0.0610  0.4681
12503W        W28577  11.845   1.598   5.694 -0.0411 -0.0609  0.0111
12504W        W28578   5.245   5.652   0.137  0.2618  0.2029 -0.0490
12505W        W28579  13.073   7.940   1.160  0.1734  0.2367 -0.3349
12506W        W28580   2.985   3.147  11.912 -0.4128 -0.0484 -0.3450
12507W        W28581   9.584  10.138  15.339 -0.0216  0.3620  0.2333
12508W        W28582   4.234   5.158  16.323 -0.0887  0.2447 -0.1812
12509W        W28583  10.857   7.653  13.516 -0.1392 -0.2546  0.0436
12510W        W28584   1.790  13.493  12.480 -0.1066  0.1113  0.0401
12511W        W28585   3.939  16.493   1.530 -0.1721 -0.1914  0.2417
12512W        W28586  10.200   9.433  17.048  0.0405 -0.1082  0.2833
12513W        W28587  11.111   4.087   1.663 -0.0689  0.1234  0.0458
12514W        W28588   6.951   2.403   0.465  0.0774 -0.2330  0.1308
12515W        W28589  15.671   3.040   2.372  0.1380  0.1185  0.0759
12516W        W28590  11.576   1.215  16.594 -0.0840 -0.0894 -0.3146
12517W        W28591  11.592   6.294   1.322 -0.0326  0.2045 -0.3738
12518W        W28592  15.314   9.394  12.886 -0.1378 -0.2554  0.3491
12519W        W28593   2.565   5.878   5.311  0.0407 -0.2527  0.0920
12520W        W28594   3.001   0.457   5.581 -0.1677  0.1423 -0.0674
12521W        W28595  17.141  17.676   3.415 -0.2762  0.0301 -0.0482
12522W        W28596   0.922   2.110  13.821 -0.2671  0.0457  0.0361
12523W        W28597  10.049   5.646   3.688 -0.0778 -0.0238 -0.3418
12524W        W28598  14.905   9.193  12.271  0.2068  0.1837 -0.1237
12525W        W28599   4.988   7.791  11.342  0.1613  0.0046  0.3813
12526W        W28600   8.801   3.694  16.445  0.0438 -0.1494  0.2220
12527W        W28601   3.716  15.770   4.163  0.1444 -0.5416  0.2899
12528W        W28602   5.073  14.226  16.650 -0.2194  0.1664 -0.1502
12529W        W28603   8.419   9.869   5.737  0.1197  0.0177  0.0598
12530W        W28604   2.464   2.460  14.665  0.0120  0.0035 -0.0587
12531W        W28605  13.684  16.343   2.592  0.4510 -0.2344 -0.1219
12532W        W28606  15.090  10.627   1.001 -0.4403 -0.0818  0.0957
12533W        W28607  16.477  14.286  12.693  0.1338 -0.0415  0.1291
12534W        W28608  12.014   6.971  16.947  0.0529  0.1406 -0.1193
12535W        W28609   3.135   8.009   1.250  0.1038  0.0910  0.1069
12536W        W28610   0.692   8.604   3.240 -0.0145 -0.4758 -0.0254
12537W        W28611   4.655   3.588   5.048 -0.0516  0.0028 -0.3421
12538W        W28612   1.446  15.408   0.390  0.1878  0.0227  0.0790
12539W        W28613  12.414   9.425   4.891  0.0140 -0.4886 -0.1364
12540W        W28614   0.643  11.920  16.677 -0.0781 -0.1510  0.0231
12541W        W28615   2.325   1.423   0.576  0.2057 -0.4548 -0.1001
12542W        W28616   9.599   9.742   1.889  0.1316 -0.0396 -0.4480
12543W        W28617  15.753  12.473  10.440 -0.5004  0.1967 -0.2575
12544W        W28618  17.001   5.652   2.688  0.1899  0.0812 -0.1626
12545W        W28619   7.442  12.552   3.981 -0.1870 -0.0088 -0.0191
12546W        W28620   5.412   7.243   1.350 -0.2543  0.1903  0.0964
12547W        W28621   0.075  16.954  13.207 -0.3930  0.0587  0.0110
12548W        W28622  14.458   2.588  12.607  0.1556  0.0408 -0.0740
12549W        W28623   6.462   1.810   4.617  0.1188 -0.0855 -0.0069
12550W        W28624   6.289   5.122   5.735 -0.0097 -0.1200  0.1300
12551W        W28625   8.586   2.640   5.762 -0.0330 -0.2107 -0.2067
12552W        W28626   0.766  16.286  15.274 -0.0682 -0.0928 -0.0204
12553W        W28627   2.093   0.354   3.490 -0.0165 -0.2271  0.4251
12554W        W28628  11.297   8.852  11.527  0.0026 -0.0572  0.1453
12555W        W28629  13.575  15.822  11.767 -0.3596  0.0957  0.0059
12556W        W28630  15.978  14.448  16.732 -0.0539  0.0505  0.1907
12557W        W28631  11.710  11.051   4.356 -0.2020  0.2016  0.2445
12558W        W28632  15.906  12.612  17.010 -0.0229 -0.5540 -0.0837
12559W        W28633   7.236  14.352   5.836  0.1582  0.1556 -0.1703
12560W        W28634  15.509   3.928  11.657 -0.2429 -0.0912 -0.0816
12561W        W28635   4.398   7.338  16.883 -0.3183  0.2056 -0.2942
12562W        W28636   6.195  13.816   2.794  0.2888  0.2480 -0.2251
12563W        W28637   9.522  16.721   2.648  0.0531  0.1007 -0.0664
12564W        W28638   8.202   0.619   5.617  0.3373 -0.4425 -0.0394
12565W        W28639   7.813  13.022  13.352  0.1338  0.0072  0.2881
12566W        W28640   9.033  14.367  12.958 -0.0227 -0.1193  0.2328
12567W        W28641   6.306   1.657  11.803  0.0912  0.0399  0.2008
12568W        W28642   1.953   6.223   3.456  0.0490  0.1608 -0.0078
12569W        W28643   1.958   4.530   2.405  0.3033  0.0832 -0.2614
12570W        W28644  15.111   6.892  14.626 -0.2887  0.1586 -0.3664
12571W        W28645   7.797  15.209   2.796  0.3373 -0.0774 -0.2766
12572W        W28646  14.893  16.903  15.417  0.0509 -0.1192 -0.2594
12573W        W28647  13.028   6.945  16.856 -0.3235 -0.1917 -0.3091
12574W        W28648  17.456   6.702  12.877 -0.1174  0.0296 -0.0269
12575W        W28649  10.809  13.922   4.478 -0.2629 -0.1779 -0.1589
12576W        W28650  16.883   0.601   4.011 -0.0096  0.0577 -0.0888
12577W        W28651  10.829   6.224   2.632  0.3417 -0.1326 -0.0688
12578W        W28652  11.730   7.122   1.918 -0.2803  0.2949  0.0757
12579W        W28653   9.780  11.675  13.543 -0.4500 -0.2729 -0.0796
12580W        W28654   5.897  16.680   4.552  0.2289  0.0851 -0.2188
12581W        W28655  13.902   9.897   1.884 -0.1668 -0.3428  0.0308
12582W        W28656   9.896  14.556  12.625 -0.2086  0.0763  0.1302
12583W        W28657   8.839  15.635   5.062  0.2157 -0.1859  0.1495
12584W        W28658  11.289   0.459  11.330 -0.1513  0.1430  0.0252
12585W        W28659  14.916   9.601   5.480 -0.2805 -0.1142 -0.1740
12586W        W28660  15.476  11.248   5.973 -0.1633  0.1172  0.2555
12587W        W28661  11.932  17.125   0.883  0.3248  0.0356 -0.1632
12588W        W28662  14.047   4.633   3.278  0.1637 -0.4134 -0.1513
12589W        W28663  16.564   7.650  12.508 -0.0926  0.0817  0.2370
12590W        W28664   1.996  14.122   5.191 -0.1727 -0.0323  0.1768
12591W        W28665  15.417   0.056  12.129  0.1569  0.0059 -0.1738
12592W        W28666   3.012  16.308   5.827  0.0670  0.0047 -0.1530
12593W        W28667   3.484  10.778  12.700 -0.1643 -0.0832  0.0991
12594W        W28668   5.606   1.348  14.728 -0.3595  0.1840  0.0559
12595W        W28669  14.889   9.477  11.399 -0.2411  0.1540  0.0037
12596W        W28670  14.590   0.610   6.582  0.0508 -0.1555  0.0177
12597W        W28671   9.267  13.059  11.949  0.3379 -0.3137  0.1393
12598W        W28672   4.712  13.272  16.030  0.1264  0.2382  0.1831
12599W        W28673   6.835   3.550  16.264 -0.1423 -0.1759 -0.0499
12600W        W28674   9.584   2.920   1.693  0.2389  0.2148 -0.1192
12601W        W28675   7.507   3.101   4.396 -0.1039 -0.0990 -0.2866
12602W        W28676   4.564   2.223   1.891 -0.1322 -0.2885 -0.1361
12603W        W28677  17.632   5.974  14.607 -0.1896  0.3113 -0.0187
12604W        W28678  14.491   5.143  15.906  0.2092  0.0454  0.0379
12605W        W28679   3.862   0.428  16.398  0.0845  0.2195  0.1715
12606W        W28680   1.272  16.343   5.368 -0.0876 -0.1133  0.0457
12607W        W28681  14.149  14.966  12.870  0.0305 -0.4508 -0.1081
12608W        W28682   2.983  12.540   1.603  0.0068 -0.2522 -0.2112
12609W        W28683   3.467  16.493   4.035 -0.0868  0.1437  0.1319
12610W        W28684  10.135  16.584   3.074 -0.1431 -0.1025  0.1424
12611W        W28685   4.058  17.431   2.972 -0.1627  0.0983  0.1295
12612W        W28686  11.582   2.699   5.253 -0.0673 -0.1068  0.2698
12613W        W28687  15.124  13.949   5.021  0.0093  0.1381  0.2912
12614W        W28688  13.269  15.480   2.561 -0.2438 -0.0795 -0.1047
12615W        W28689   1.558  14.139   3.679 -0.1414  0.0474 -0.1180
12616W        W28690  16.501   6.598   0.451 -0.0216 -0.1109  0.3027
12617W        W28691   3.788  15.137   0.498 -0.3520 -0.1247  0.2825
12618W        W28692   7.085  16.147  13.083  0.0230  0.2704  0.2283
12619W        W28693   2.663  16.318  13.303 -0.1464  0.0544  0.2145
12620W        W28694  13.248  11.327  12.403 -0.0511  0.0196  0.1500
12621W        W28695   7.464  17.482   4.231  0.4047 -0.1226 -0.1443
12622W        W28696   2.875   3.934   0.047 -0.1939 -0.1176 -0.1766
12623W        W28697  17.363   0.020  12.789 -0.1615  0.0810  0.0649
12624W        W28698  13.586   2.530   2.483 -0.0781 -0.0404 -0.0838
12625W        W28699   1.317   6.759   1.702 -0.0513 -0.0374  0.1697
12626W        W28700  15.356   1.218   2.802 -0.0432 -0.2468  0.0646
12627W        W28701  10.006   0.356  16.946  0.2114 -0.1863 -0.0575
12628W        W28702  11.795   4.571   5.143  0.1492 -0.2111 -0.1280
12629W        W28703  13.155  11.384   1.027  0.1982 -0.0405  0.0070
12630W        W28704   2.861   2.639  13.755  0.0972 -0.2685 -0.1926
12631W        W28705  17.515   3.570  13.187  0.0212 -0.3462  0.2886
12632W        W28706   2.032  16.532   4.003 -0.1593 -0.1581  0.0772
12633W        W28707   5.386  16.096   0.756 -0.0658 -0.1367 -0.3024
12634W        W28708  13.715  15.288  12.312 -0.1759  0.1175  0.0905
12635W        W28709   5.114  12.435  11.819 -0.1156 -0.0659  0.3315
12636W        W28710   2.163   1.862   0.712  0.0707 -0.1647  0.2299
12637W        W28711  16.628  16.461   3.669 -0.0909 -0.0031  0.1406
12638W        W28712   5.352   9.624   2.687 -0.0295 -0.2956 -0.5324
12639W        W28713   1.232  10.672  14.067  0.4612 -0.0240 -0.0359
12640W        W28714  10.808   8.828   2.419 -0.3987  0.1157 -0.0328
12641W        W28715   1.900  17.440   0.637 -0.2589 -0.0092 -0.4724
12642W        W28716   5.164   3.555  14.386  0.0899  0.1712  0.0328
12643W        W28717   8.354   4.807   0.085 -0.1304 -0.0461  0.2515
12644W        W28718  10.177  12.850   0.380  0.0866  0.3306  0.2580
12645W        W28719   6.533   1.392  14.798  0.0786 -0.2168 -0.1865
12646W        W28720   5.024   2.241  13.627  0.1226  0.0188  0.1043
12647W        W28721  12.287  14.449  14.643  0.1147  0.0621  0.2029
12648W        W28722   0.959   8.598  12.251 -0.4362 -0.1903  0.5068
12649W        W28723  11.981   0.001   3.118 -0.0749 -0.3379  0.0043
12650W        W28724   9.466   6.874  15.306 -0.0288  0.0548 -0.0427
12651W        W28725   3.682  10.969  15.285 -0.3164 -0.2845  0.3705
12652W        W28726   7.228  16.850   2.510 -0.0979 -0.0376  0.0524
12653W        W28727   4.336  16.217   5.624 -0.1462 -0.3238 -0.0454
12654W        W28728  10.950   7.444  16.357 -0.1233 -0.3888  0.1284
12655W        W28729  14.411  10.144  11.624  0.0100  0.1578 -0.1071
12656W        W28730  11.459  16.568   1.110  0.0453  0.3739  0.2962
12657W        W28731   9.316  15.795  15.492  0.0952  0.2312 -0.1370
12658W        W28732   5.290  15.333  16.181  0.0355  0.0665 -0.2203
12659W        W28733  10.478  14.762   2.315  0.1591  0.0332  0.2907
12660W        W28734   8.922  10.040   0.714  0.0958  0.0269 -0.2181
12661W        W28735   3.525   4.501   3.753  0.3792 -0.1828 -0.3026
12662W        W28736  10.843   1.585  16.050 -0.0077  0.0250 -0.4285
12663W        W28737   2.930   5.519   4.070 -0.2246 -0.0921 -0.0364
12664W        W28738   7.100  11.269   0.614  0.1481 -0.0271  0.0789
12665W        W28739  14.580  16.815   5.021  0.0215  0.0042 -0.0701
12666W        W28740  17.035  16.566  12.762  0.0186 -0.0330 -0.0748
12667W        W28741   5.273  15.088  12.571 -0.1868 -0.0264 -0.0848
12668W        W28742   1.680   2.845   0.728  0.0948  0.0934  0.0498
12669W        W28743  12.504  13.351  12.340 -0.0254  0.0339 -0.2069
12670W        W28744  15.394  16.236  16.825  0.2171 -0.1885 -0.0373
12671W        W28745   4.964   5.612  14.659  0.1922  0.0996  0.1779
12672W        W28746   8.317   4.957  12.085  0.1062  0.0626  0.2619
12673W        W28747   0.204  13.633   3.657  0.2547 -0.0682 -0.1709
12674W        W28748   3.952   1.938  14.390 -0.0995  0.0575  0.0086
12675W        W28749   0.272   0.710  11.950 -0.1500  0.1213  0.0181
12676W        W28750   1.865  12.799   3.091 -0.0303 -0.1991  0.1237
12677W        W28751  17.299   9.340  14.793  0.1825 -0.1484  0.3168
12678W        W28752   3.667   5.335  13.084 -0.3908  0.0389 -0.0657
12679W        W28753   3.532   8.258  13.558 -0.1696  0.2452  0.1706
12680W        W28754  16.236   2.993   5.150 -0.0079  0.0725 -0.0067
12681W        W28755  14.128   0.277  12.157 -0.2144  0.2295 -0.1759
12682W        W28756   9.881  12.139  16.701  0.0321  0.3088  0.2012
12683W        W28757  15.066  11.563   1.207  0.0608 -0.0024  0.1340
12684W        W28758  12.906   0.036  14.906  0.3468 -0.2995  0.2367
12685W        W28759   7.532  14.101  13.820 -0.0597  0.1069  0.0539
12686W        W28760   6.085   1.442  15.045  0.0043  0.0093 -0.1661
12687W        W28761  11.718  11.685   2.083  0.1704  0.3181  0.0120
12688W        W28762   3.150   4.656   2.963 -0.1396 -0.1503 -0.0856
12689W        W28763   0.954   1.668   5.879  0.0984  0.2182  0.1752
12690W        W28764  10.364  12.539   6.116  0.0981  0.0723 -0.2932
12691W        W28765   1.306  15.852   0.149  0.1324 -0.2962 -0.0928
12692W        W28766  11.962  17.294   6.245 -0.0088  0.3402 -0.0544
12693W        W28767   8.115   0.901  14.439 -0.0307  0.1714  0.1023
12694W        W28768   0.776   4.142  13.890 -0.2505 -0.2517 -0.1406
12695W        W28769   3.479   8.286  14.688  0.1874  0.2106  0.2266
12696W        W28770   0.879  15.201  15.992 -0.0869 -0.2580  0.0266
12697W        W28771  10.093  10.650   3.514  0.4018 -0.1799  0.0216
12698W        W28772   8.544  12.221  13.996  0.2071 -0.1552  0.0660
12699W        W28773   6.251  17.138   3.452 -0.0487  0.1630 -0.2943
12700W        W28774  16.070   5.679   3.193  0.0924 -0.1673  0.0700
12701W        W28775   2.183  13.663   3.302 -0.5214 -0.0361  0.1101
12702W        W28776  17.358   7.880  15.781 -0.0051 -0.1344 -0.1427
12703W        W28777  11.313   5.655  15.284 -0.0209  0.1202  0.0153
12704W        W28778   2.847   9.648  16.934  0.0884 -0.0186  0.1120
12705W        W28779   8.556   6.603   2.479  0.1820 -0.1888 -0.2398
12706W        W28780   9.721   5.936   4.905 -0.1693  0.1311 -0.1299
12707W        W28781   9.654   4.376  15.548 -0.1772 -0.1501  0.0754
12708W        W28782   3.320  15.424   5.615  0.1218  0.1045  0.1641
12709W        W28783  14.202   9.067   3.588  0.0343  0.1540 -0.1134
12710W        W28784  12.738   2.774   1.268  0.0745  0.0955  0.2274
12711W        W28785   6.918  13.297  15.190  0.0012  0.1634  0.3272
12712W        W28786   6.270   0.543   2.822 -0.1964  0.0884  0.0556
12713W        W28787   0.650  11.044   4.827  0.3599  0.0069  0.0255
12714W        W28788  12.798   4.374  14.686 -0.0431  0.1603  0.3033
12715W        W28789   8.644  17.580   2.463  0.2462  0.3604  0.0648
12716W        W28790   4.157   4.409   6.258  0.1864 -0.0519 -0.0332
12717W        W28791  14.319   5.013   2.251  0.0148 -0.1958  0.0174
12718W        W28792  16.909   8.948  12.743  0.0271 -0.0412  0.0869
12719W        W28793  15.203  13.747  14.400 -0.1809 -0.2166 -0.1769
12720W        W28794  14.426   7.909  16.798  0.2059 -0.1854  0.2262
12721W        W28795  12.353   5.455   2.691  0.1164 -0.1463  0.3849
12722W        W28796   4.194  14.636   0.690  0.1479  0.0095  0.0807
12723W        W28797   5.406   9.188   2.990 -0.1947 -0.0205 -0.0886
12724W        W28798  15.815   2.416   3.094 -0.2383  0.1005 -0.1574
12725W        W28799  13.318  15.742   3.039  0.1864 -0.0990 -0.0627
12726W        W28800  14.834  11.396  14.272  0.1234  0.0313 -0.1274
12727W        W28801   7.038   0.945  15.859  0.1981  0.0817  0.0035
12728W        W28802   6.431  10.541  14.635  0.0269 -0.2426  0.2933
12729W        W28803   8.760  11.576  13.396 -0.2267  0.3498  0.1818
12730W        W28804   9.658   3.955   3.886 -0.1175 -0.2254  0.2268
12731W        W28805   0.922  11.965   0.356 -0.3365 -0.0851 -0.2051
12732W        W28806   0.526   3.703  12.001  0.1272 -0.1425 -0.0489
12733W        W28807  15.955   7.512   3.055  0.4321 -0.0311  0.0122
12734W        W28808  12.623   9.139   2.907  0.3234  0.3068 -0.2439
12735W        W28809  12.653   2.429   3.373  0.1523  0.0284  0.3266
12736W        W28810   6.140   0.662  16.802 -0.1869  0.1272  0.2105
12737W        W28811  11.518   4.543  14.250  0.0886  0.4075  0.2992
12738W        W28812  11.998  10.914   2.805 -0.2804 -0.0619  0.1382
12739W        W28813  15.150   6.734  16.470  0.1340 -0.1368 -0.1656
12740W        W28814   0.417   0.312  17.071  0.2835 -0.0590 -0.0675
12741W        W28815  11.408   9.451   3.138 -0.0791 -0.2494  0.1042
12742W        W28816  11.067   5.385   3.609  0.0601  0.0247 -0.0492
12743W        W28817  16.424   8.791   1.589  0.2071  0.0686 -0.4589
12744W        W28818   1.151   9.785  13.570  0.1139 -0.0499  0.0051
12745W        W28819   1.998  15.073   2.359  0.2549  0.0824  0.2204
12746W        W28820  13.780  12.386   1.884 -0.3639  0.0827 -0.1680
12747W        W28821  12.092  12.777  15.370 -0.0369 -0.0945 -0.1697
12748W        W28822   1.273   7.345   0.296  0.0926 -0.2290  0.1013
12749W        W28823   9.406  16.411  17.098 -0.1129 -0.0252  0.1286
12750W        W28824   2.526   4.940   2.987 -0.0059  0.0782 -0.2720
12751W        W28825   2.346  14.649  12.484 -0.1142  0.1267 -0.1201
12752W        W28826   3.842   5.931  12.482 -0.0424  0.0369  0.0845
12753W        W28827  13.451  15.498   5.128 -0.1719  0.0691  0.0956
12754W        W28828  16.185  10.980  11.876  0.1570 -0.1078 -0.0845
12755W        W28829   2.174  12.156   3.016  0.1064 -0.1403 -0.3054
12756W        W28830  13.046   8.933   2.198 -0.2619 -0.0468  0.5635
12757W        W28831   4.513   0.165   1.403 -0.1615 -0.0354  0.1358
12758W        W28832  11.430   3.927   1.291  0.2276  0.2222 -0.1207
12759W        W28833   1.246   6.579   4.121 -0.1381  0.0234  0.2400
12760W        W28834  13.970  16.093  16.210 -0.2918 -0.2878  0.2555
12761W        W28835   3.938   7.934  14.281  0.0198  0.2026 -0.0773
12762W        W28836   0.962  16.857  12.948 -0.0381  0.1062 -0.0711
12763W        W28837   5.290   6.879   3.350 -0.0397 -0.0475 -0.1050
12764W        W28838  14.805   9.368  15.034  0.1321 -0.2480 -0.0287
12765W        W28839   1.370  15.631  12.218  0.1633  0.1616  0.2014
12766W        W28840  17.661   0.061   2.367 -0.0080  0.0800 -0.1885
12767W        W28841   7.763   8.420  17.042 -0.3484  0.1649  0.3332
12768W        W28842   1.781   7.599   4.331 -0.1969  0.0135 -0.0728
12769W        W28843  15.599  15.750   3.389  0.1069 -0.5001 -0.0360
12770W        W28844  13.229   3.578   1.170  0.0558 -0.0896 -0.3433
12771W        W28845   1.058  14.014   6.261 -0.1956  0.1627 -0.0548
12772W        W28846   1.676   4.279  16.578 -0.1062 -0.1398 -0.0599
12773W        W28847   6.371  13.317   1.285  0.1324 -0.0296 -0.0947
12774W        W28848  15.399   4.449  14.223 -0.1744  0.0512  0.0566
12775W        W28849  13.535  10.175  15.095  0.1817  0.0335 -0.0969
12776W        W28850   9.073   8.438   5.311  0.0065 -0.1885  0.1268
12777W        W28851  10.552   1.229  10.933 -0.1514 -0.0973  0.0890
12778W        W28852  15.633   9.661  14.542 -0.0815 -0.0493  0.1186
12779W        W28853  14.401  10.097  15.654 -0.0022 -0.3031  0.1029
12780W        W28854   7.164  13.053  16.453  0.0162 -0.1644 -0.3243
12781W        W28855  11.485  11.834  15.192  0.0230  0.2137  0.0467
12782W        W28856  15.757  16.252  11.906  0.1345 -0.1781  0.0000
12783W        W28857   4.658   9.368  12.230 -0.0194  0.0333 -0.1316
12784W        W28858  13.232   7.150   1.466  0.1622 -0.0453 -0.0359
12785W        W28859  17.556  10.416  13.650 -0.1583  0.2632 -0.1365
12786W        W28860  12.848   9.049  10.738  0.1014  0.1135  0.1984
12787W        W28861   3.286   9.950  13.819  0.0403 -0.0468 -0.0886
12788W        W28862   6.048   0.814   5.653 -0.0751 -0.3917 -0.0699
12789W        W28863  13.740  13.084   0.552 -0.2674 -0.2381 -0.0516
12790W        W28864   3.839   5.993  16.636 -0.1226  0.0234 -0.1129
12791W        W28865   1.542  15.119  13.360  0.0988 -0.1033 -0.0957
12792W        W28866  11.531  13.963   1.441  0.0191 -0.1426 -0.0457
12793W        W28867  16.284   2.249  13.140 -0.1870  0.0815 -0.1135
12794W        W28868  14.815   6.603  11.596  0.1969  0.2241  0.0385
12795W        W28869   2.024  15.117  17.084 -0.0038 -0.1710 -0.0115
12796W        W28870   4.578   7.712   0.062  0.0935 -0.0383 -0.2504
12797W        W28871   1.429  11.833   5.430  0.1613  0.1041 -0.1388
12798W        W28872   5.368  14.473   3.457 -0.0869  0.0891 -0.1874
12799W        W28873  17.334  12.598   1.418 -0.3795 -0.6868  0.1673
12800W        W28874   4.245   6.196   4.124 -0.1616 -0.3092 -0.0065
12801W        W28875  15.324   8.736  16.277  0.1535 -0.0270 -0.1053
12802W        W28876  15.317   0.713  15.954 -0.0453  0.0169  0.0710
12803W        W28877  17.526  15.411   0.664 -0.1202 -0.0983  0.1671
12804W        W28878   1.501  16.027   3.948  0.0789 -0.3481  0.1201
12805W        W28879  15.319   0.634   5.837  0.0333 -0.0960 -0.1560
12806W        W28880  16.760  17.066  15.964 -0.1079 -0.2286 -0.0948
12807W        W28881   5.855  10.510  16.064 -0.0594 -0.1771 -0.1352
12808W        W28882   8.009  15.754  15.430 -0.2977 -0.3398  0.1984
12809W        W28883  13.995   8.930  14.799 -0.1434  0.0714  0.0055
12810W        W28884  13.547  13.232   1.671 -0.2211  0.2320 -0.3832
12811W        W28885   7.776   3.236   0.245  0.2459  0.0898  0.0464
12812W        W28886   4.758  10.147  14.721  0.0993 -0.0606 -0.0667
12813W        W28887   7.017   2.135   0.031  0.3285 -0.2334 -0.0930
12814W        W28888   8.990   9.034  13.781 -0.2513 -0.1402  0.2307
12815W        W28889   5.079   7.006  13.854 -0.2388 -0.0260 -0.2967
12816W        W28890   9.188   7.386   1.164 -0.0047  0.0258  0.3038
12817W        W28891   8.123   9.889   1.162 -0.2498  0.2676 -0.1346
12818W        W28892   0.870  10.366  13.521 -0.0716 -0.0050 -0.0448
12819W        W28893  11.101   0.834  15.739  0.1520 -0.2437 -0.0236
12820W        W28894  17.329   1.816   3.527  0.0857  0.4013  0.4569
12821W        W28895   8.957  10.183   2.790  0.1632  0.0995 -0.1854
12822W        W28896  15.582  14.158   0.948 -0.0812 -0.1423  0.0904
12823W        W28897   3.459   1.461   0.585  0.1760  0.3166 -0.2397
12824W        W28898   9.986   7.840   3.974  0.2661 -0.2441 -0.1502
12825W        W28899  15.767  11.222   4.343  0.1681  0.2451  0.4030
12826W        W28900   1.660  10.790   2.008  0.2419  0.3899 -0.0938
12827W        W28901   9.292  16.548  15.256 -0.2249  0.0324  0.0738
12828W        W28902   9.929  16.290  16.975 -0.3629 -0.1827  0.0372
12829W        W28903  15.003  11.162  16.392  0.0382 -0.2601  0.0568
12830W        W28904   5.003   1.241  14.784 -0.1871  0.2250 -0.0774
12831W        W28905   2.891   6.966  11.995  0.0379 -0.0343  0.0608
12832W        W28906  13.803  10.764  11.620 -0.1953  0.0374  0.1550
12833W        W28907   3.790  16.830  12.277 -0.2717  0.0424 -0.0286
12834W        W28908   9.033  11.841   0.770 -0.0979 -0.0365  0.3793
12835W        W28909   7.327   3.207   2.496  0.0668 -0.1237 -0.0428
12836W        W28910  11.729  13.245   2.874  0.1589 -0.1661 -0.0373
12837W        W28911   3.728   5.641   2.865  0.1996  0.2753 -0.2426
12838W        W28912   4.725  12.721   6.250 -0.1115  0.0616  0.3214
12839W        W28913   1.008  10.852   5.291 -0.1069  0.1106 -0.0996
12840W        W28914  13.554   8.985   0.394 -0.1325  0.1158 -0.0182
12841W        W28915  12.673   8.716  12.081  0.3413 -0.1824  0.1856
12842W        W28916  12.593  14.604  11.950  0.0603 -0.1916 -0.0930
12843W        W28917   4.857   4.668   2.537  0.0840  0.1982 -0.1038
12844W        W28918  13.497  11.386  14.498 -0.2388  0.1722 -0.1288
12845W        W28919   8.772  16.600  14.048 -0.3931 -0.0885  0.1155
12846W        W28920   9.769   3.802   1.326  0.1565  0.2510 -0.0463
12847W        W28921  14.936  15.740   0.563 -0.0157 -0.1231 -0.3302
12848W        W28922   3.386  15.425  14.143  0.2708  0.0090  0.0030
12849W        W28923   6.584   8.979   3.260 -0.1425  0.1854  0.2385
12850W        W28924   1.665   1.106   5.076 -0.4334 -0.1986 -0.1905
12851W        W28925   8.239   7.060   2.710  0.1514  0.2241 -0.0470
12852W        W28926   6.885   9.927  12.860 -0.1809  0.3917 -0.1334
12853W        W28927   0.125   2.037   4.749  0.2966 -0.1242  0.1063
12854W        W28928   6.678   2.632  15.890 -0.2556  0.0113  0.3007
12855W        W28929  13.452  13.082  15.118  0.1230 -0.2092  0.1564
12856W        W28930   3.359  16.030   3.832  0.0762  0.1299 -0.1386
12857W        W28931  15.097   4.766   5.278  0.1385  0.1942  0.2142
12858W        W28932   1.060   4.054  14.703 -0.1793  0.0531 -0.1683
12859W        W28933   3.159   2.953  16.356  0.2134  0.1613 -0.1274
12860W        W28934  17.498   3.662  16.981 -0.1284  0.0722  0.1323
12861W        W28935   9.343  16.884  16.733 -0.2580 -0.0494 -0.0610
12862W        W28936  13.869   6.651  12.744 -0.1630  0.2475 -0.1194
12863W        W28937   7.856   5.630   0.336 -0.2351  0.1846  0.0713
12864W        W28938  16.333  10.379  13.850 -0.5269 -0.0276  0.0056
12865W        W28939  14.683  11.413  12.803 -0.1685 -0.0868  0.0325
12866W        W28940   2.945   3.965   2.308 -0.2610 -0.0214  0.0405
12867W        W28941   0.359  10.107   0.999 -0.5079  0.0653  0.0692
12868W        W28942   4.272   9.594  15.836  0.2902  0.1523  0.0209
12869W        W28943   0.449  15.429   4.249 -0.1359 -0.0912  0.0886
12870W        W28944   8.474  14.574  15.356  0.1485 -0.0271 -0.0516
12871W        W28945  12.657  13.193  17.015 -0.0485 -0.1933  0.0858
12872W        W28946   3.837  15.647   1.665  0.0154  0.2163  0.3300
12873W        W28947  13.922  12.955  15.007  0.0677 -0.0645 -0.1992
12874W        W28948   4.778   1.625  16.166  0.2040 -0.0427  0.0256
12875W        W28949  13.293  16.739  11.772 -0.0957 -0.0631  0.3550
12876W        W28950   5.639   2.688   2.250 -0.4177  0.1938 -0.0790
12877W        W28951   8.992   5.402   3.958  0.3366 -0.0938  0.2078
12878W        W28952  11.635  15.188  12.413  0.1278  0.3096  0.1385
12879W        W28953   1.242   5.246  15.797  0.1727  0.0161  0.0951
12880W        W28954   3.910   1.501   3.773 -0.0973 -0.0175  0.0436
12881W        W28955  14.870   6.443   4.200  0.2010  0.3596 -0.2579
12882W        W28956   3.495   2.598   0.483 -0.0379  0.0690 -0.0402
12883W        W28957   9.437   1.012   4.990 -0.1089 -0.1808  0.3635
12884W        W28958   5.724   4.050  14.723  0.1929 -0.0276 -0.1447
12885W        W28959  13.747   5.524  12.707  0.0440 -0.1458  0.0550
12886W        W28960   1.437   7.440  14.293  0.3179  0.1135 -0.0271
12887W        W28961   1.417   1.240   1.104  0.5025  0.1476  0.2229
12888W        W28962   6.319   9.555  17.009 -0.0905 -0.1471 -0.0755
12889W        W28963  14.661  16.546  15.100 -0.2004  0.2680  0.1274
12890W        W28964   7.955   9.908   5.600 -0.1496 -0.2364 -0.1238
12891W        W28965   4.936   8.627  13.325  0.1656  0.1443 -0.0800
12892W        W28966   3.799   0.254  15.094 -0.1619  0.0294  0.0438
12893W        W28967  11.031  10.966  13.356 -0.2767  0.3539  0.1069
12894W        W28968  11.370  13.488   1.620 -0.0011  0.0427 -0.3206
12895W        W28969   5.012   8.800   1.603 -0.3220  0.0082 -0.1216
12896W        W28970   6.331   2.717  12.578  0.1048  0.2020  0.0970
12897W        W28971   6.427  12.648  13.036  0.0542 -0.0363 -0.1503
12898W        W28972   7.320   8.890  16.281  0.1954  0.0879  0.0596
12899W        W28973   0.268   0.344   1.530  0.2634  0.0166  0.4376
12900W        W28974   4.415   6.438  11.762  0.0200 -0.1730 -0.1035
12901W        W28975   7.108   4.280  16.661 -0.0200 -0.0458 -0.0458
12902W        W28976   4.198  15.828   3.482  0.3508 -0.2143  0.0436
12903W        W28977  13.573  15.755  12.274  0.5981  0.1911 -0.1012
12904W        W28978  15.997  13.899   4.664 -0.0876  0.0023  0.2398
12905W        W28979  12.225  12.828   2.729  0.2343 -0.1212  0.0006
12906W        W28980   4.088   1.012   3.865 -0.2085  0.0110 -0.2831
12907W        W28981  16.736   6.185  14.284  0.0770  0.0088 -0.1753
12908W        W28982   7.771  17.053  13.728  0.2418  0.0144  0.1135
12909W        W28983   9.316   9.674  15.383  0.2848 -0.2667  0.0554
12910W        W28984   5.787  17.244   6.315 -0.0741 -0.1070 -0.2950
12911W        W28985   7.545  15.021  15.672 -0.1854  0.1083 -0.2546
12912W        W28986  11.578  13.645   0.407 -0.0517  0.0678 -0.1395
12913W        W28987   6.834   2.796  12.702  0.1777 -0.0768 -0.2780
12914W        W28988   4.644   4.718   4.046 -0.2124  0.1827 -0.0412
12915W        W28989  13.396   1.366  12.322  0.2257 -0.0484 -0.1247
12916W        W28990  10.708   2.081   2.830 -0.3796 -0.1585 -0.1871
12917W        W28991  11.247   1.679   1.623 -0.0400 -0.1797  0.0518
12918W        W28992  13.271   6.257   5.879  0.0598 -0.1599  0.0967
12919W        W28993   3.529  13.136  12.294  0.0770 -0.1635 -0.0119
12920W        W28994  11.805   8.940  13.079 -0.2125 -0.0049  0.1408
12921W        W28995   2.939   0.070   2.847 -0.0303 -0.2178  0.0748
12922W        W28996   5.105   0.363  14.991 -0.1981  0.2293 -0.1984
12923W        W28997  15.693   0.743  11.031 -0.0527  0.0162  0.2095
12924W        W28998   9.690   6.126   1.952 -0.2409  0.0814 -0.0474
12925W        W28999  14.871   7.325   0.453 -0.1305  0.3963  0.1241
12926W        W29000   0.302  10.646  16.668  0.0203  0.1438  0.2847
12927W        W29001   2.457  12.928   0.226 -0.0430 -0.0434 -0.1020
12928W        W29002  14.912   8.435  13.469 -0.0379  0.0523 -0.0810
12929W        W29003  16.266  10.317   1.407 -0.0791 -0.1833  0.0753
12930W        W29004   5.199   3.523  13.569  0.0750 -0.1395 -0.2495
12931W        W29005  16.877   2.610   1.773 -0.1670 -0.1779 -0.0396
12932W        W29006  11.490   8.822   1.481  0.1218  0.0491 -0.2311
12933W        W29007   9.894  17.008   0.795  0.1830 -0.3302 -0.1747
12934W        W29008  11.655   8.226   6.132 -0.1148 -0.1354 -0.3994
12935W        W29009  17.723   3.703  16.488  0.3141 -0.1881  0.2587
12936W        W29010  11.879  15.081   3.001  0.2681 -0.2834 -0.1164
12937W        W29011  13.098  10.620   1.516 -0.0983  0.2927 -0.1225
12938W        W29012  13.571   4.397  14.965  0.0148  0.0081 -0.2107
12939W        W29013   8.097  13.901  16.355  0.0257  0.0780 -0.0152
12940W        W29014  13.725   7.221   2.173 -0.1716  0.0934  0.0531
12941W        W29015   6.211  13.497   0.306 -0.2480 -0.0283 -0.1745
12942W        W29016  16.380   7.627   1.355 -0.0099  0.0382  0.0169
12943W        W29017  14.518   7.702   4.730  0.1466 -0.0616  0.0144
12944W        W29018   2.640   0.435   6.446  0.1544  0.0151  0.0140
12945W        W29019   2.222   0.855  11.990 -0.3834  0.2139  0.0585
12946W        W29020  17.495  14.443  11.302 -0.1040 -0.1874  0.1841
12947W        W29021   8.777   8.926  11.541  0.2866  0.1023 -0.2630
12948W        W29022  15.450   1.840  14.638  0.1213 -0.0166 -0.0436
12949W        W29023  12.429   7.242  16.021  0.0068  0.2995  0.0766
12950W        W29024  12.275  15.249   3.437 -0.1348  0.2085  0.2971
12951W        W29025  17.597   2.003  13.153 -0.0652 -0.3130 -0.1144
12952W        W29026   6.086   2.377   5.348 -0.2387 -0.1928 -0.3556
12953W        W29027   1.570   3.487   1.974  0.0258 -0.1505  0.0334
12954W        W29028  13.390   5.904  12.700  0.1636  0.0393 -0.0055
12955W        W29029   8.714   8.790   5.365 -0.0133 -0.2057 -0.0970
12956W        W29030   9.327   9.482  12.517  0.2080 -0.2730 -0.2576
12957W        W29031   9.481  13.879  13.854 -0.3814 -0.0427  0.0486
12958W        W29032   0.033   9.618  14.190 -0.0426  0.1816  0.0186
12959W        W29033  10.376  13.338   3.967  0.1104  0.1847 -0.0349
12960W        W29034   1.718  16.545  14.427  0.0994 -0.2573  0.2088
12961W        W29035  15.072   5.681   5.213 -0.1053 -0.1217  0.3726
12962W        W29036  15.288   9.321   5.274 -0.0108  0.0098  0.0841
12963W        W29037  14.733  14.239   5.160  0.0347 -0.2289  0.0812
12964W        W29038   9.494   3.106  15.898  0.0309  0.3871 -0.4172
12965W        W29039   0.106  14.246   0.399 -0.3191 -0.1076  0.0132
12966W        W29040   2.977   0.278  17.023 -0.0251  0.1243  0.1877
12967W        W29041  14.133  12.936   4.268  0.4835  0.2288 -0.0101
12968W        W29042   2.291  12.195   5.015  0.0282 -0.2799  0.1047
12969W        W29043  16.977   7.216  12.210 -0.0127 -0.1741 -0.1676
12970W        W29044   1.287  10.088  11.894 -0.3221 -0.1584  0.1300
12971W        W29045   6.358   9.707  11.668 -0.0841  0.2294  0.0039
12972W        W29046  15.498   0.415   2.516 -0.0450 -0.0409 -0.1705
12973W        W29047  11.922  13.504   1.306  0.0952 -0.1128  0.0619
12974W        W29048   3.850   5.550   0.590 -0.4155  0.1079  0.1801
12975W        W29049   5.735   6.417   6.022  0.2960  0.1161 -0.1087
12976W        W29050  14.168   0.863  16.775 -0.1151  0.2127  0.2357
12977W        W29051  15.881   5.789   2.533 -0.0075 -0.0048  0.2790
12978W        W29052  14.678   0.013   2.028 -0.1077 -0.3281  0.0687
12979W        W29053   1.889   4.555  12.603 -0.2285  0.2213 -0.1060
12980W        W29054  12.494   1.351   1.412 -0.0010 -0.2270 -0.0668
12981W        W29055  12.170   3.547  15.000  0.2649  0.2276 -0.0442
12982W        W29056  10.130  15.936   3.628  0.0603  0.1461  0.0286
12983W        W29057  17.443  16.174  12.857 -0.0105  0.1731  0.2690
12984W        W29058   3.590   3.805  14.465  0.0253 -0.2465 -0.0323
12985W        W29059  15.115   2.045   0.068 -0.3097  0.1814  0.0732
12986W        W29060   0.275  12.600  15.395  0.1212  0.1467 -0.0548
12987W        W29061   5.380  10.410  13.201 -0.2319 -0.0644  0.2318
12988W        W29062  10.293  15.125   1.930 -0.0850 -0.2820 -0.1932
12989W        W29063  14.333   4.647   4.722  0.1198 -0.1053 -0.1225
12990W        W29064   0.397  15.839   4.527 -0.1552  0.1081  0.0428
12991W        W29065  16.374  12.996   0.521 -0.0681 -0.0322 -0.4558
12992W        W29066   4.587  10.584   1.714 -0.2504  0.0823 -0.3094
12993W        W29067   2.280   5.158   0.181 -0.0922 -0.3881  0.1764
12994W        W29068  17.694   9.643   5.154  0.1490  0.1836  0.0582
12995W        W29069  14.615   4.221   4.482  0.0621  0.0377 -0.1650
12996W        W29070  16.556   1.743   1.392 -0.0529  0.1238  0.0575
12997W        W29071   9.428  11.379   2.023  0.1213 -0.2426  0.2083
12998W        W29072   7.527   7.887  17.035  0.2055  0.1319 -0.1771
12999W        W29073   2.417   4.355  14.120 -0.0430 -0.0886 -0.0703
13000W        W29074   0.495  12.375   2.896 -0.0226 -0.0852  0.0202
13001W        W29075  15.102  10.933  15.911  0.0511 -0.1531 -0.1278
13002W        W29076  16.848  13.708  11.448 -0.2490 -0.1847 -0.3716
13003W        W29077   5.236  11.484  12.079  0.1089  0.1924  0.0223
13004W        W29078   7.533  11.673  15.901  0.0621 -0.1418 -0.2023
13005W        W29079   3.067   5.030   5.740 -0.2825  0.0648 -0.1059
13006W        W29080  11.243   4.630  14.645 -0.1466 -0.0383 -0.1032
13007W        W29081   6.064  17.509   2.320 -0.1309 -0.0025 -0.2022
13008W        W29082   4.456  12.837   1.567 -0.0462 -0.0039 -0.4563
13009W        W29083  12.173   2.818   4.016  0.4121 -0.0781 -0.2042
13010W        W29084  10.312  10.816  14.525  0.0797 -0.1087  0.3657
13011W        W29085   8.324  10.500  14.739  0.0648  0.0171  0.1468
13012W        W29086   1.830  17.171   2.500 -0.2168  0.3719 -0.0817
13013W        W29087   1.317   9.620   2.621 -0.0594  0.0576 -0.2501
13014W        W29088  11.317  15.849  15.726  0.0319 -0.1610  0.1072
13015W        W29089   7.111   5.942   5.376 -0.1328  0.1538  0.3144
13016W        W29090  15.766   8.432   5.689  0.1436  0.1860 -0.0412
13017W        W29091   8.087   9.632  13.531  0.0768 -0.2640 -0.1499
13018W        W29092   5.492   4.407   0.366  0.0605 -0.1363 -0.0025
13019W        W29093  17.474  11.978   4.799 -0.0107  0.2429 -0.0654
13020W        W29094   5.097   5.383  13.652 -0.0713 -0.0448 -0.1295
13021W        W29095   6.910  16.762  13.207  0.2586 -0.2420 -0.0087
13022W        W29096   3.102  12.865  14.198 -0.1821 -0.0457  0.2457
13023W        W29097   7.500   1.865   1.973 -0.1193  0.1748 -0.1202
13024W        W29098  11.739  10.912  11.781 -0.0727  0.4492  0.3112
13025W        W29099   5.804  13.765  14.954 -0.1282 -0.1518 -0.1827
13026W        W29100  15.288  11.206  16.832 -0.2494  0.0586  0.0599
13027W        W29101  14.115  15.929   2.608  0.1923  0.0933  0.0266
13028W        W29102  14.217   5.005   2.752 -0.0299  0.0136 -0.3686
13029W        W29103   2.668   7.218  11.598 -0.2150  0.0671  0.0876
13030W        W29104   9.656   4.784  13.881 -0.1025  0.1708  0.1604
13031W        W29105   9.965  13.494   2.689  0.0193  0.0290 -0.0337
13032W        W29106  14.618   2.498   3.538  0.3542 -0.1230 -0.0202
13033W        W29107  12.304   4.616  12.160  0.1632 -0.2197  0.1580
13034W        W29108  13.148  13.641   4.745 -0.0719 -0.3144 -0.3659
13035W        W29109   8.599  10.092   0.364  0.2228 -0.0364  0.1673
13036W        W29110   0.466  13.304  14.241 -0.1111 -0.1159  0.1558
13037W        W29111   3.249  11.667   0.383 -0.0244 -0.0185 -0.1072
13038W        W29112   9.615  17.216   3.933  0.0381 -0.0212 -0.2195
13039W        W29113   0.224   2.970   3.163  0.2147 -0.1478 -0.0591
13040W        W29114   5.708   1.156   3.262 -0.0185 -0.0092  0.2812
13041W        W29115   1.259  11.908   1.213  0.0298  0.0572  0.1721
13042W        W29116  16.697   8.162  12.345  0.0731  0.1995 -0.1068
13043W        W29117   7.202   4.115   1.633 -0.0430 -0.2293 -0.1139
13044W        W29118   1.807   8.004  16.483  0.0547 -0.1560 -0.1721
13045W        W29119  15.833   7.743  13.761  0.1813 -0.2005 -0.0120
13046W        W29120  13.228   0.617  12.594 -0.3200  0.1477 -0.0135
13047W        W29121   4.574  16.232   1.072 -0.1527 -0.0375 -0.2218
13048W        W29122  15.158   1.037  15.110 -0.1365  0.2044 -0.1516
13049W        W29123  13.022   2.368   1.025 -0.2286 -0.0027  0.0702
13050W        W29124   5.019  10.750  14.001  0.1022 -0.0129  0.0310
13051W        W29125   5.393   6.490   3.642 -0.2188  0.2811  0.1290
13052W        W29126  16.090   4.253  15.336  0.2763  0.0835 -0.0826
13053W        W29127   5.126   6.090   4.801  0.4891 -0.2248  0.2122
13054W        W29128   6.072   0.365   2.431  0.0786 -0.3339  0.0899
13055W        W29129  11.264   4.843   1.380  0.1465  0.2000 -0.1097
13056W        W29130   0.346  10.728  15.728  0.0090  0.1821  0.2233
13057W        W29131  13.587   8.360  16.831 -0.3663 -0.1376 -0.1475
13058W        W29132  12.516   8.898  15.129 -0.2337  0.0353 -0.0593
13059W        W29133  12.930   5.067   0.225 -0.1370  0.1058 -0.0104
13060W        W29134   3.658  10.219  12.790 -0.1071  0.0111 -0.2109
13061W        W29135  15.854  16.756  16.018 -0.1592  0.0441 -0.1817
13062W        W29136   5.307   2.479  15.852 -0.0575 -0.0376 -0.2998
13063W        W29137   7.123  15.535   1.755 -0.0772  0.0541 -0.1948
13064W        W29138  15.092   6.907   0.721 -0.1290  0.0777 -0.1474
13065W        W29139  11.368  11.765   0.759 -0.1033  0.2659  0.1538
13066W        W29140   2.905   8.946   6.167  0.1293  0.0061  0.1173
13067W        W29141   8.492   9.299   1.982  0.2697 -0.2299 -0.0882
13068W        W29142   0.499   1.586   3.895 -0.2365 -0.0619  0.0011
13069W        W29143  15.899  14.427  12.252  0.1025 -0.2428 -0.3008
13070W        W29144   0.346  15.986  15.207 -0.0688 -0.1205 -0.0790
13071W        W29145   6.638  15.338  16.778  0.0186  0.1484  0.3176
13072W        W29146   2.386  11.257  14.614 -0.0293  0.0319  0.0758
13073W        W29147  10.690  11.341   4.170  0.1475  0.2094 -0.2794
13074W        W29148   0.264  17.086   0.061  0.0352 -0.4204  0.1435
13075W        W29149   4.668  16.891   3.397 -0.1039  0.2407 -0.2220
13076W        W29150   0.242  16.968   1.875  0.0209 -0.0834 -0.0660
13077W        W29151   5.142  16.325  16.404 -0.0145  0.3496 -0.1013
13078W        W29152   9.887   1.181   3.320 -0.3513 -0.0480 -0.0525
13079W        W29153   3.730  16.658  14.169  0.0839  0.1437 -0.2165
13080W        W29154  12.143  17.340   1.438  0.2066  0.3703  0.0307
13081W        W29155  17.269   1.734  14.165 -0.0368  0.0221 -0.0387
13082W        W29156  12.454   3.197   4.042  0.1048  0.3581 -0.2423
13083W        W29157   3.728  15.626   2.142 -0.0094  0.1838 -0.0336
13084W        W29158  13.075  15.716   1.139 -0.1738  0.3336  0.0554
13085W        W29159   9.582   0.656  14.771  0.0151 -0.1142  0.1707
13086W        W29160  16.357  11.767   5.790  0.2154  0.1362 -0.1900
13087W        W29161   6.559   0.056   1.071  0.2080  0.0164 -0.1435
13088W        W29162  12.011   2.211   0.956  0.1171 -0.1287  0.1378
13089W        W29163   7.219   1.286   3.997 -0.1518  0.0790 -0.0976
13090W        W29164   3.015   1.295  13.163 -0.0568 -0.0457  0.0493
13091W        W29165   3.682  14.761  11.792 -0.1112  0.1065 -0.4229
13092W        W29166   1.208   7.563   2.032  0.2211 -0.2176 -0.0420
13093W        W29167   4.063   0.734   1.107 -0.6294  0.2032  0.0791
13094W        W29168   0.604  14.910   3.282  0.0596  0.1186 -0.2209
13095W        W29169   1.089   8.327   4.643 -0.1864 -0.2336 -0.1687
13096W        W29170   0.223  17.569  12.123  0.4359  0.0520  0.1994
13097W        W29171  15.451  10.280   5.712  0.2221 -0.0027  0.0047
13098W        W29172   7.350  15.922   3.882  0.1066  0.0829 -0.1193
13099W        W29173  15.749  12.683  16.000  0.0590 -0.0189  0.1417
13100W        W29174  16.573   3.362   6.050  0.1354 -0.0641 -0.2210
13101W        W29175   4.521  15.789  16.699  0.0555  0.1776  0.1578
13102W        W29176  17.610  17.624   0.893 -0.2997 -0.2322  0.1500
13103W        W29177  12.988   8.180  11.597 -0.4303  0.1322 -0.2248
13104W        W29178   6.515   9.174  11.876  0.0745 -0.0385  0.5874
13105W        W29179  14.162   3.884  16.565  0.2083  0.1020 -0.3398
13106W        W29180  17.231   9.770   5.313  0.0524 -0.1995  0.3954
13107W        W29181   5.390   3.391  15.342  0.0369  0.2843 -0.0586
13108W        W29182   8.672  15.639  11.590  0.1681  0.4031 -0.3254
13109W        W29183   6.025   2.334   3.518 -0.0571  0.0141  0.3731
13110W        W29184  11.135   4.340   3.971  0.2083 -0.0628  0.5301
13111W        W29185   0.775  17.228   1.064  0.2160 -0.2265 -0.2988
13112W        W29186   5.082   4.945  12.363  0.1574  0.0212 -0.0423
13113W        W29187  14.697   7.560  16.570  0.1793  0.0845 -0.0431
13114W        W29188  12.615   9.393  14.413 -0.0551  0.0263 -0.1127
13115W        W29189   5.479   4.734  12.615 -0.0155  0.3959  0.0966
13116W        W29190  11.937  13.066  16.232 -0.2255  0.1868  0.0052
13117W        W29191   1.878   2.255   5.039 -0.0072  0.4369 -0.0753
13118W        W29192   0.301   0.087  16.634 -0.0455  0.0103  0.1674
13119W        W29193   0.629   2.794   4.170 -0.0551  0.0032 -0.0605
13120W        W29194  16.479   1.448  16.495  0.0212  0.0954  0.1016
13121W        W29195   3.486   4.334   4.819  0.1580  0.0577 -0.1817
13122W        W29196   6.197  14.961   5.473 -0.3359  0.1466 -0.1245
13123W        W29197   6.624   5.902   5.255  0.1853 -0.1505  0.1089
13124W        W29198  14.446   5.385  13.491  0.1451  0.1485  0.0561
13125W        W29199  14.206   2.928   4.162 -0.0897  0.0356 -0.1565
13126W        W29200   6.646  11.715   6.031 -0.1624  0.0226 -0.1109
13127W        W29201   5.000  14.072   3.241 -0.1096 -0.0765 -0.0499
13128W        W29202   3.592  11.120   0.240  0.4173 -0.1828  0.1523
13129W        W29203   4.651   4.969   4.923  0.0665  0.0817 -0.2951
13130W        W29204  11.754  10.964   5.995 -0.1630  0.0886 -0.0422
13131W        W29205   5.475  14.379  14.297 -0.0255  0.0833  0.0115
13132W        W29206   5.171   3.966  16.535 -0.0139  0.0075 -0.1616
13133W        W29207  12.656   2.369  15.417 -0.1096 -0.0736  0.2595
13134W        W29208   8.971   5.230  12.221  0.0533 -0.0807 -0.0065
13135W        W29209  12.346  16.372  13.373  0.3462  0.2615 -0.0661
13136W        W29210   4.533   3.642   1.527  0.1918  0.2961 -0.1020
13137W        W29211   1.646   1.605   1.340  0.0053 -0.1538  0.0201
13138W        W29212   2.169   6.964  12.132  0.0995 -0.2522  0.0104
13139W        W29213  16.228   0.538   0.551  0.0551 -0.2245  0.0725
13140W        W29214  11.524   9.183   6.001  0.0273  0.2328 -0.1196
13141W        W29215  13.440   0.028   1.154  0.1017  0.0257 -0.2322
13142W        W29216  13.491  12.765   3.605  0.0329  0.2238 -0.0712
13143W        W29217   3.402   8.991   6.098 -0.1202  0.0491  0.0452
13144W        W29218  14.686   9.412  11.910  0.3993  0.0128 -0.1340
13145W        W29219  17.226   4.848  16.032 -0.0240 -0.1717 -0.1383
13146W        W29220  17.085   1.964   1.002 -0.0177  0.2780  0.1558
13147W        W29221  16.422   2.367  12.560  0.0395 -0.2392  0.0695
13148W        W29222  16.774   8.378  12.891  0.0843  0.1105 -0.0818
13149W        W29223   6.085  12.539   4.530  0.3057 -0.1180 -0.0576
13150W        W29224  11.834  12.169  10.841 -0.2171 -0.0843 -0.3984
13151W        W29225   0.971  15.199  14.185  0.2858 -0.2051  0.2567
13152W        W29226   5.969  16.647  14.783  0.1052 -0.1494 -0.1590
13153W        W29227  15.514   5.270   0.341  0.0369 -0.2025 -0.0213
13154W        W29228   8.931   0.229   5.012  0.2164  0.0168 -0.0417
13155W        W29229   3.762  13.834   3.676  0.1195  0.0301 -0.0143
13156W        W29230   1.305   2.472  12.006  0.0823 -0.0178  0.1386
13157W        W29231   6.064   6.236  16.525  0.1424  0.1170  0.0526
13158W        W29232   4.067   7.223   2.553  0.0578 -0.0742 -0.0599
13159W        W29233  10.563  16.988  14.360  0.0364 -0.0340  0.0756
13160W        W29234   7.910   4.029  15.314 -0.1743 -0.0920 -0.0232
13161W        W29235   3.055  10.479  15.112 -0.0244 -0.1277  0.1218
13162W        W29236   9.261   1.603  16.638  0.2844  0.0246 -0.0976
13163W        W29237   8.680  10.892  17.099 -0.0178  0.1345 -0.3232
13164W        W29238   1.262  17.203  13.712  0.2145  0.0957  0.0239
13165W        W29239   1.985  11.254  13.190 -0.1545 -0.0602  0.2322
13166W        W29240   4.317  13.880  14.141 -0.0303 -0.1923 -0.0454
13167W        W29241  13.014  16.025  17.057 -0.1504 -0.0620 -0.0472
13168W        W29242  17.074   7.439   2.825  0.0967 -0.0221  0.1061
13169W        W29243  10.666  13.377   5.119  0.1198 -0.3156 -0.0327
13170W        W29244   9.155  17.609   2.360 -0.1451  0.0992  0.3992
13171W        W29245  15.334  12.177   0.592 -0.1304 -0.0773 -0.0380
13172W        W29246   9.935   3.105   2.133 -0.1271  0.3688 -0.0886
13173W        W29247  13.070   1.948   6.203  0.0067  0.0241  0.2365
13174W        W29248  13.849  13.622   3.457 -0.0272 -0.2671 -0.0663
13175W        W29249   2.448   2.803   0.229 -0.0216 -0.3572 -0.0301
13176W        W29250   1.850   0.519  15.419 -0.0822  0.0405  0.1676
13177W        W29251  16.028   4.853  13.178 -0.1168  0.1004  0.2476
13178W        W29252   7.362  17.459   5.330  0.3334  0.0268  0.0030
13179W        W29253  10.641   7.065   2.638  0.1419 -0.0787 -0.0667
13180W        W29254   8.202   1.247  13.526 -0.2350  0.0074  0.0816
13181W        W29255  13.244   7.677  11.612  0.2344  0.0743 -0.0356
13182W        W29256   5.768  12.435   3.288 -0.0400  0.0573  0.0940
13183W        W29257   8.117   6.681   1.576 -0.0481 -0.1695 -0.4234
13184W        W29258   0.942  14.183  12.466 -0.0046 -0.3432  0.0069
13185W        W29259  16.211  16.346   3.012 -0.1478  0.2515  0.0204
13186W        W29260  16.385  16.095   5.281  0.1423 -0.2856  0.4578
13187W        W29261  13.229  14.818   6.665 -0.0208  0.0790  0.1903
13188W        W29262   6.548   7.437  14.309 -0.0578 -0.0761  0.1183
13189W        W29263   0.864   2.329   1.609 -0.0766 -0.0399 -0.0460
13190W        W29264  12.646   2.678   3.857  0.0302  0.2929  0.0703
13191W        W29265  16.848   7.700  12.096  0.0797 -0.0754  0.0978
13192W        W29266  13.276   8.333   2.041  0.1258 -0.1539  0.0209
13193W        W29267  10.012   3.024   3.495  0.0032 -0.3399 -0.0958
13194W        W29268   4.805   6.528  11.466  0.1119 -0.0423  0.0502
13195W        W29269  10.530  13.117  15.160  0.1424 -0.0238  0.0989
13196W        W29270  15.981   2.044  14.598  0.0944  0.0982  0.1030
13197W        W29271  16.496   8.190   1.428  0.2749  0.2736 -0.1901
13198W        W29272  17.563   8.206  13.574  0.0922 -0.1992  0.0807
13199W        W29273   9.211   8.996   4.320  0.1689  0.0017  0.1741
13200W        W29274   3.119   7.210   4.444  0.0518 -0.1024 -0.0459
13201W        W29275   7.330   7.926  12.100  0.0565  0.0963 -0.0854
13202W        W29276  13.727   7.899  16.980  0.0675  0.2961 -0.4317
13203W        W29277   9.341  10.951  12.751  0.1905 -0.0278  0.0756
13204W        W29278   9.177   2.020   0.806 -0.0237  0.1395 -0.3607
13205W        W29279   9.550   1.760  14.785 -0.0251 -0.2060  0.0008
13206W        W29280   6.112  11.164   1.743  0.3068  0.2575 -0.1306
13207W        W29281  13.808   6.496   3.545  0.4136 -0.2980  0.0064
13208W        W29282  12.684  15.862   3.257 -0.2585  0.2736 -0.0587
13209W        W29283   5.284  12.263  16.742  0.0126  0.2293 -0.0352
13210W        W29284  11.837  10.791   5.110  0.1006  0.2424 -0.1814
13211W        W29285  16.678  15.738  12.815  0.0296 -0.1373  0.0714
13212W        W29286  11.470  12.418  12.324 -0.1024  0.1209  0.1547
13213W        W29287  15.287   4.639   4.795 -0.0604 -0.1719  0.1086
13214W        W29288  13.298   3.851   0.685  0.0386  0.0287  0.0453
13215W        W29289   5.182   3.016   2.761  0.0043  0.2044  0.2420
13216W        W29290  15.854  12.209   0.879 -0.0122  0.1253  0.3266
13217W        W29291   6.615   8.075   3.605  0.0345 -0.0608 -0.1252
13218W        W29292  13.050   4.327   3.277 -0.3603 -0.2622  0.1605
13219W        W29293  15.874  11.478   5.891 -0.0729 -0.0708 -0.1494
13220W        W29294  12.977   6.145   4.040  0.0318  0.1378 -0.0916
13221W        W29295   5.066   1.036  11.289  0.1851 -0.3331 -0.2533
13222W        W29296   6.759  14.625   2.754 -0.0241 -0.0208 -0.0367
13223W        W29297   4.707  17.262   1.310 -0.0126  0.0249 -0.1358
13224W        W29298   1.195   3.537  16.786  0.1262  0.0381 -0.3068
13225W        W29299   6.503   6.339   1.499  0.1564  0.0537 -0.2472
13226W        W29300  13.828  16.659  15.534 -0.0429 -0.0066 -0.0225
13227W        W29301   1.340   4.364  16.185  0.3517 -0.1120  0.1602
13228W        W29302  16.399  17.565  16.530 -0.1908 -0.5079  0.0872
13229W        W29303   0.989   1.219   0.147 -0.2693  0.2484  0.0287
13230W        W29304  10.150  12.818   0.851 -0.0334 -0.0488 -0.0592
13231W        W29305   2.352   5.982  13.461  0.2523 -0.1899 -0.1234
13232W        W29306   3.509  13.065  13.700 -0.0657 -0.0637 -0.1048
13233W        W29307  17.083   1.579   3.980 -0.0493  0.0601  0.2071
13234W        W29308   9.535   9.307   5.303 -0.0333 -0.0999  0.0531
13235W        W29309  10.002   9.333   5.121 -0.2321  0.1221  0.0911
13236W        W29310  12.209  13.374   2.769 -0.0221  0.3310 -0.1706
13237W        W29311   3.272  13.561  16.068 -0.0221 -0.0347 -0.0439
13238W        W29312  10.254  14.992   4.856 -0.0460 -0.2839 -0.3146
13239W        W29313  10.998   9.743   5.163  0.0224 -0.0785  0.1012
13240W        W29314  15.321   8.220  15.054 -0.1469 -0.0124  0.0190
13241W        W29315  10.523  10.133  15.199  0.0345  0.0493 -0.2981
13242W        W29316   7.029   7.998   3.221  0.1793 -0.0964 -0.0670
13243W        W29317   8.770   2.903  15.015 -0.0906 -0.0431 -0.0650
13244W        W29318   0.021  15.803   1.036  0.1717  0.0760  0.1344
13245W        W29319  16.270   1.042  14.980 -0.1720  0.4226  0.0228
13246W        W29320   7.283  12.996  15.039  0.1063  0.4589 -0.0176
13247W        W29321   1.702   9.959  15.880 -0.1793 -0.0067 -0.1154
13248W        W29322  16.203   6.122  14.487 -0.1880  0.1611 -0.0979
13249W        W29323   6.463   2.007   5.302 -0.0033  0.2499 -0.2463
13250W        W29324   1.416  10.256  10.940 -0.1148 -0.0308 -0.1688
13251W        W29325   2.025  17.648  16.852 -0.0481 -0.3373 -0.0107
13252W        W29326  16.902   6.045   3.101 -0.1727  0.0052  0.0641
13253W        W29327   2.045   0.942  13.692 -0.0471 -0.0995  0.0485
13254W        W29328   8.955   2.699   2.834  0.0192  0.0814  0.4216
13255W        W29329  11.976   8.248  12.650  0.0990 -0.0521 -0.0152
13256W        W29330  13.537   4.647   3.367  0.2928  0.0517  0.0530
13257W        W29331   9.561  11.786   4.520 -0.0990  0.1410  0.1214
13258W        W29332  17.630  16.514  14.418  0.0444 -0.1653 -0.1611
13259W        W29333   9.540  11.874   5.396 -0.0904 -0.0592  0.2617
13260W        W29334  12.253  11.853   2.240  0.0339  0.1202  0.3483
13261W        W29335   2.973   8.115   2.246  0.0846  0.2733 -0.0612
13262W        W29336   8.039  16.560   0.470 -0.2368  0.4776  0.0788
13263W        W29337   9.390   4.858  16.356  0.2440  0.1730  0.3736
13264W        W29338   0.313   0.018   4.589  0.0597 -0.2102 -0.1559
13265W        W29339  16.213   8.125   2.534 -0.3771  0.1014 -0.1195
13266W        W29340   7.390   7.135   0.947  0.0796  0.2276  0.0769
13267W        W29341  10.155   8.685   0.841 -0.3268  0.0228  0.2111
13268W        W29342  11.962  13.292   5.197  0.2270 -0.2075  0.2851
13269W        W29343   1.347  15.180  12.602 -0.1555 -0.1427  0.1018
13270W        W29344  15.545   8.341  14.075 -0.0687 -0.0138  0.3608
13271W        W29345  16.910  16.879  13.248  0.1847 -0.1038  0.2934
13272W        W29346   3.439  14.690   4.418 -0.1787  0.3262 -0.1642
13273W        W29347  13.053  10.367   0.156 -0.1191 -0.0401  0.0259
13274W        W29348   7.086   0.632   2.548  0.1803 -0.2303 -0.1285
13275W        W29349  14.708  13.644   1.850  0.0019  0.0629  0.0237
13276W        W29350   8.483   3.073   5.980 -0.1059 -0.1157 -0.1259
13277W        W29351  13.733  15.571  14.938 -0.2052  0.1277  0.0318
13278W        W29352   6.354   7.148  13.246 -0.0051 -0.2022  0.1611
13279W        W29353  10.971   7.537   1.099 -0.0669 -0.2025  0.1691
13280W        W29354  15.122  14.149  16.811 -0.1042 -0.2539  0.1489
13281W        W29355  10.542   7.275  13.431  0.0486  0.2583  0.1713
13282W        W29356   6.900   4.091   0.696  0.0926  0.1129  0.0510
13283W        W29357   4.372   3.304  11.230 -0.0609 -0.1638 -0.1805
13284W        W29358   1.068   7.776  14.566 -0.0945 -0.1408 -0.2340
13285W        W29359  12.151   3.546   1.286 -0.1074  0.2601  0.0634
13286W        W29360   0.730  11.018   3.849 -0.0034 -0.0695  0.5775
13287W        W29361  10.068  16.287   1.756  0.0401  0.1617  0.1011
13288W        W29362   3.953  13.473  13.118  0.2965  0.1435  0.2325
13289W        W29363   7.088   6.509   0.255  0.0140  0.1550  0.1250
13290W        W29364   4.560  15.743   0.983 -0.1414  0.1162 -0.1255
13291W        W29365  10.110  15.073  17.070  0.0373 -0.0467 -0.1543
13292W        W29366  10.774  17.590  15.097 -0.0361 -0.3998 -0.2936
13293W        W29367  13.709   0.125  13.734  0.1253 -0.1013  0.0690
13294W        W29368   7.195   1.810  14.714  0.1086  0.1833 -0.3441
13295W        W29369  16.854   0.053  16.771 -0.1305  0.0757 -0.0341
13296W        W29370   7.205  16.995   0.813 -0.2059 -0.2283  0.1638
13297W        W29371  10.485  14.677   3.928  0.0382  0.1640 -0.1380
13298W        W29372  17.340  12.864  14.335  0.0049  0.0550  0.1179
13299W        W29373  11.620   7.316  16.912  0.1607  0.3162 -0.1475
13300W        W29374   8.796   4.401  14.373  0.2716 -0.0119  0.0910
13301W        W29375  14.440   8.802   3.167 -0.3900 -0.0553 -0.0131
13302W        W29376  15.378  13.697  13.850  0.0391 -0.0071  0.1357
13303W        W29377  12.711   9.395   1.005  0.0752  0.1476 -0.2227
13304W        W29378   1.988   2.039  15.498  0.1498 -0.2314  0.2150
13305W        W29379   7.928   2.247  13.275 -0.3203 -0.1114  0.1369
13306W        W29380   6.893  13.027  15.953 -0.1941 -0.2071  0.0972
13307W        W29381   1.244   1.541   1.681 -0.3270 -0.1682  0.1009
13308W        W29382  12.910  14.070   3.618  0.1072  0.0005  0.4154
13309W        W29383   4.356   7.875   3.805 -0.0239  0.1357 -0.1087
13310W        W29384   7.659   6.583   5.824 -0.3482  0.0151  0.4125
13311W        W29385   6.735  16.982   3.375 -0.0120 -0.0161  0.1063
13312W        W29386  11.184  13.394  14.577  0.3584 -0.2406 -0.0841
13313W        W29387   6.210   9.648  14.052 -0.2144 -0.3468 -0.1208
13314W        W29388   9.294   9.202  12.938  0.0139 -0.0500 -0.0711
13315W        W29389  12.899  15.664   2.796  0.2365  0.0126 -0.2328
13316W        W29390  10.412  12.245  14.230 -0.2355  0.1194 -0.2531
13317W        W29391   7.522  16.241   5.244  0.1097  0.2836  0.0664
13318W        W29392  14.635  12.600  13.507  0.1608 -0.1609 -0.0445
13319W        W29393   7.548   3.901  13.033  0.4001 -0.0177 -0.0001
13320W        W29394   5.045  15.108  17.048  0.1166 -0.1297  0.0155
13321W        W29395   9.897   8.918   1.722 -0.1365  0.0438  0.1166
13322W        W29396  11.109  12.921  16.570 -0.0657  0.0000 -0.0165
13323W        W29397   3.088  14.534  15.602 -0.0169 -0.1524  0.0573
13324W        W29398  11.093   8.878   5.889  0.1952 -0.0850  0.0704
13325W        W29399  16.817   5.801   5.455 -0.0301 -0.2154  0.1686
13326W        W29400   6.572  11.889  16.688  0.1234  0.1616 -0.1182
13327W        W29401   4.175   0.216  15.474 -0.0541 -0.0040 -0.0130
13328W        W29402   6.412  10.850   3.723  0.1692 -0.2718  0.0861
13329W        W29403  13.027   9.750   1.675  0.0690 -0.4425 -0.2846
13330W        W29404  14.113   4.557  14.323 -0.0542  0.1982 -0.0102
13331W        W29405  15.736   0.374  12.377  0.0406  0.0870  0.0198
13332W        W29406   3.844  11.780   0.985 -0.1034 -0.0022 -0.1954
13333W        W29407   1.437   6.859   0.003  0.1951 -0.2365 -0.1131
13334W        W29408  14.706   1.684   3.149 -0.0817  0.1265  0.3610
13335W        W29409   8.094   0.487  12.959  0.2719 -0.0164  0.0067
13336W        W29410   4.209   3.995  15.681  0.0164  0.0616  0.0346
13337W        W29411   5.663   7.844  14.390  0.0726  0.1282 -0.2002
13338W        W29412  13.487  16.700   2.820 -0.0823 -0.1832 -0.0921
13339W        W29413   4.038   3.586   0.257 -0.0276 -0.2772  0.0915
13340W        W29414   4.577  12.719   4.009 -0.0009  0.0131  0.0370
13341W        W29415  16.171   1.516  15.232  0.2404  0.2833  0.0538
13342W        W29416   6.843  10.278   5.623 -0.0272  0.0343  0.0995
13343W        W29417   3.796   3.565   4.116  0.0404  0.0887 -0.0337
13344W        W29418   5.570  13.075   3.935 -0.0536  0.2608 -0.1644
13345W        W29419   2.399  10.528  13.638 -0.1362 -0.1133  0.1324
13346W        W29420   9.235   3.193  12.191  0.1140  0.3057  0.2317
13347W        W29421  12.364   2.258   5.401 -0.0332 -0.1093 -0.0998
13348W        W29422  11.642   7.917   4.333 -0.0079  0.0183  0.1204
13349W        W29423  10.282  15.180  13.372  0.2153  0.2737 -0.0589
13350W        W29424   2.043  10.612   2.355 -0.0291  0.2669 -0.0004
13351W        W29425   5.626   8.252   4.232  0.0019 -0.1474 -0.0534
13352W        W29426   4.493  13.233  13.656  0.2845  0.1417  0.0500
13353W        W29427   4.790   4.826   3.577 -0.2442  0.0102  0.0987
13354W        W29428   1.866  12.095   2.328 -0.0321  0.4667  0.1327
13355W        W29429   7.683   3.614   2.670 -0.3217  0.2000 -0.1176
13356W        W29430   4.975   9.275  16.047 -0.3016  0.1922 -0.0563
13357W        W29431  17.375  13.356  14.275  0.4259  0.0640  0.1081
13358W        W29432  15.041  15.028  14.129 -0.2300 -0.2509  0.0518
13359W        W29433   8.817   7.937   4.553  0.1603  0.0336  0.3151
13360W        W29434  12.979  17.474  13.000 -0.1448 -0.1536 -0.0531
13361W        W29435   7.563   5.718   1.074  0.3031 -0.0463  0.2768
13362W        W29436   6.256   1.618  13.937  0.1110  0.1480 -0.0353
13363W        W29437  12.806  12.055  14.421 -0.1018  0.0697  0.1417
13364W        W29438  16.778  14.998   1.003  0.1113  0.0059  0.0932
13365W        W29439  12.035   6.410   2.557  0.2650 -0.1015  0.1069
13366W        W29440  10.050   4.757   2.242  0.4879 -0.1865 -0.0036
13367W        W29441  14.564   5.334   3.618  0.0588  0.1527 -0.2846
13368W        W29442   2.621  17.152  13.887  0.0884 -0.3078 -0.1387
13369W        W29443  13.598  10.402  14.242  0.0124  0.0682 -0.2948
13370W        W29444   1.206   9.975   0.795 -0.0174 -0.1796  0.3425
13371W        W29445   1.982   2.901  17.150  0.0780 -0.1917 -0.0235
13372W        W29446   6.205   6.889   2.663  0.0276  0.1275 -0.0900
13373W        W29447  12.666   8.639  11.526 -0.1917 -0.3332 -0.1648
13374W        W29448   4.740   2.185   5.410  0.1995 -0.3706  0.1337
13375W        W29449   7.913   4.457   1.209  0.2024  0.2394 -0.2377
13376W        W29450   1.937   7.993   0.602  0.0772 -0.1260 -0.1247
13377W        W29451  13.185  15.261   5.480 -0.1514 -0.2207 -0.2535
13378W        W29452   6.712  11.345  13.891 -0.5143  0.3534  0.2423
13379W        W29453   7.320   3.457   0.425  0.4357  0.1078  0.0926
13380W        W29454   0.471  13.881   5.453  0.0961  0.0365 -0.0203
13381W        W29455  15.634  16.636   1.334 -0.3077  0.0490 -0.3182
13382W        W29456  15.509  15.141  13.361 -0.0471 -0.3065 -0.1554
13383W        W29457  11.012   5.277   4.135 -0.3950  0.0010  0.1177
13384W        W29458  15.427   0.645  11.450 -0.1278  0.0779  0.1358
13385W        W29459   7.051   3.661   5.076 -0.0786 -0.0084  0.1040
13386W        W29460   6.569   9.077   4.797 -0.0108 -0.1651  0.1788
13387W        W29461   3.587  17.139   1.706  0.1970  0.2249  0.3116
13388W        W29462  14.017  15.775   5.595  0.2074  0.1275  0.0307
13389W        W29463   6.605  16.952  17.126  0.1486 -0.0339  0.0147
13390W        W29464  12.294   8.339  12.089  0.1180 -0.0732 -0.2034
13391W        W29465  12.487  15.592   3.735 -0.1118  0.0530  0.0933
13392W        W29466   9.724   1.251  12.648  0.5142  0.0233  0.1676
13393W        W29467   2.826  16.366   0.675  0.2329 -0.2871 -0.4477
13394W        W29468  15.617  13.813  12.502  0.1706  0.0920 -0.2691
13395W        W29469   1.671   0.634  13.566 -0.0639 -0.3192  0.1084
13396W        W29470  17.716   1.067  12.737  0.2975 -0.1567 -0.2114
13397W        W29471   9.894   7.344  13.926 -0.0661 -0.1376  0.2140
13398W        W29472   1.604   7.719   3.303  0.1858  0.1439 -0.0328
13399W        W29473  13.134   2.865   4.026  0.1282  0.0028  0.1226
13400W        W29474   2.096   7.914   1.912 -0.1640  0.1354 -0.2735
13401W        W29475  12.441   8.131  11.587 -0.2474  0.0174 -0.3239
13402W        W29476  13.750  12.734  13.901 -0.1809  0.0507 -0.1435
13403W        W29477   2.112   2.944   4.615  0.0976  0.0414 -0.0580
13404W        W29478   5.568  15.482  12.556 -0.1588 -0.3487  0.1875
13405W        W29479  14.176   8.726  12.846  0.1570  0.0972  0.3385
13406W        W29480   1.272  12.149  14.161 -0.1106  0.0740 -0.2176
13407W        W29481   1.616  17.332   3.811  0.0116 -0.0745 -0.2357
13408W        W29482  13.088  15.768   3.559  0.0529  0.0062  0.0587
13409W        W29483   2.456  16.353   3.859 -0.2807 -0.1340  0.0316
13410W        W29484  15.688  13.688  16.350 -0.0306  0.1878 -0.3007
13411W        W29485   7.522   6.342   0.546  0.0331  0.2280 -0.1489
13412W        W29486   2.069   3.378  12.192 -0.2354  0.0682  0.0181
13413W        W29487   3.020   5.296  15.773  0.1841  0.2186  0.0114
13414W        W29488   6.342  11.703  11.811 -0.0458  0.1246  0.4311
13415W        W29489  12.946  10.719   5.087  0.0768 -0.2100  0.4964
13416W        W29490  13.843   8.497   1.884 -0.0367  0.1922 -0.0319
13417W        W29491  11.152  13.001  15.200  0.1094 -0.0942  0.1976
13418W        W29492   9.983   1.187  13.241  0.3182 -0.1197  0.0175
13419W        W29493  11.155   4.037   0.865  0.1652 -0.2036  0.0060
13420W        W29494  15.072  15.233   2.412 -0.2124  0.1176 -0.1023
13421W        W29495   0.554  16.446   2.588  0.1210  0.1848  0.1304
13422W        W29496   7.883  10.393   1.917  0.1280  0.2789  0.1886
13423W        W29497  13.819  12.868   1.899 -0.4252 -0.0522  0.3825
13424W        W29498   7.004   0.259  14.922  0.2638 -0.1592  0.0065
13425W        W29499   7.421   9.581   0.578  0.0310  0.0780 -0.0805
13426W        W29500   6.995   0.800  12.350  0.0652  0.1351 -0.0784
13427W        W29501   5.762   3.362   2.789  0.1145 -0.2448  0.3011
13428W        W29502   5.695   2.514   2.766  0.3390  0.0207  0.2280
13429W        W29503   4.994  15.488   3.467  0.1231 -0.0149  0.0919
13430W        W29504   1.580   5.736   4.909 -0.2789 -0.0757  0.5598
13431W        W29505  11.165   7.178   1.990 -0.1309  0.1862  0.0089
13432W        W29506  12.031   5.878  12.581  0.4563  0.0014 -0.6640
13433W        W29507  11.370   0.962  11.563  0.2675 -0.0452 -0.2926
13434W        W29508   8.905  13.395  11.764 -0.1786  0.2482 -0.2825
13435W        W29509   0.645  11.763   1.410 -0.2116  0.1550 -0.1983
13436W        W29510  12.713  11.382  12.607  0.1741  0.2313 -0.1158
13437W        W29511  11.842  14.762  13.727 -0.2257 -0.0254  0.3232
13438W        W29512  11.723  17.474   2.732 -0.1232  0.2347  0.1394
13439W        W29513  16.589  12.731   3.908  0.1298 -0.0919 -0.0071
13440W        W29514  16.741   1.395   4.266  0.1194  0.0648  0.0325
13441W        W29515   2.491   5.121  14.582  0.0012 -0.1230 -0.1686
13442W        W29516  14.573  15.932   2.681 -0.1402 -0.4778 -0.1360
13443W        W29517  15.979  16.297  15.686 -0.0772  0.1883 -0.1014
13444W        W29518   1.619   3.358  16.959 -0.0532  0.1071 -0.1643
13445W        W29519   9.789   8.953   2.480  0.1662  0.1773  0.1768
13446W        W29520  16.016  14.775  15.470  0.0678 -0.0685  0.1143
13447W        W29521   1.691   8.366  14.200 -0.1621  0.1006  0.4500
13448W        W29522  12.794  10.296   1.785 -0.0122  0.3373 -0.0838
13449W        W29523   1.801   7.845  12.464  0.0551  0.1526 -0.2130
13450W        W29524   5.083  14.615  12.233  0.1973 -0.1259  0.3925
13451W        W29525  12.646   7.633  12.517 -0.1685  0.0896 -0.4394
13452W        W29526  12.444   5.988   6.074  0.1031  0.2400  0.2297
13453W        W29527   8.691  11.932   3.540  0.0659 -0.0311 -0.1808
13454W        W29528  16.864   9.398  12.480 -0.1445 -0.2697  0.5568
13455W        W29529   8.964  13.502   4.303  0.1479  0.0074 -0.1124
13456W        W29530  10.965   2.769  12.870 -0.2150 -0.1279 -0.1441
13457W        W29531   0.180  13.630   0.195 -0.2702 -0.1369 -0.0521
13458W        W29532   0.890   8.492   0.512 -0.1215 -0.2358 -0.0723
13459W        W29533   9.422   1.991   3.134  0.0742  0.0770 -0.0917
13460W        W29534   9.054   2.361  12.533 -0.1842  0.1653 -0.2147
13461W        W29535  16.448  11.813   0.332 -0.1293  0.0876  0.3398
13462W        W29536  14.264   1.200  15.039 -0.2358  0.2208 -0.1476
13463W        W29537   3.300   1.310  17.145  0.1377  0.0908  0.1397
13464W        W29538   2.886  11.479   1.684 -0.0342  0.2305 -0.4482
13465W        W29539   8.908   8.211   3.941 -0.0123 -0.0439 -0.0130
13466W        W29540   8.559   7.065  11.867 -0.0830  0.2112  0.0084
13467W        W29541   4.875  12.394   4.254 -0.0329  0.1015  0.1873
13468W        W29542   5.198   1.871  15.803  0.2809  0.1756  0.2602
13469W        W29543   7.094   5.006   3.647 -0.0038 -0.0223 -0.0522
13470W        W29544   1.761   1.996  13.364  0.0049  0.1913  0.0474
13471W        W29545   9.450  14.174  15.071 -0.1423  0.0386 -0.2683
13472W        W29546   2.128  15.121  12.264 -0.0608 -0.0826 -0.0758
13473W        W29547   7.473   0.696  12.548 -0.0133  0.1658 -0.1551
13474W        W29548  15.683   8.786  14.879  0.1224  0.0640  0.0823
13475W        W29549  17.441  14.369  14.440  0.0919  0.0537  0.3755
13476W        W29550  15.752  13.382   2.926  0.1268  0.3128  0.1578
13477W        W29551  13.867   5.293   0.251  0.0491  0.3276 -0.0350
13478W        W29552  11.492  13.190  16.804 -0.2240 -0.3241  0.3469
13479W        W29553  11.694   2.163  16.212 -0.0074 -0.1211 -0.2764
13480W        W29554  11.714  15.664  14.830 -0.0287  0.0946  0.0742
13481W        W29555  16.344   0.219   5.426 -0.4399 -0.1049 -0.0571
13482W        W29556   6.654   9.421   2.776 -0.0155 -0.1162  0.3647
13483W        W29557  16.405   9.271   4.603 -0.1004  0.0955  0.1784
13484W        W29558   5.433   1.592   5.337  0.1448 -0.1731 -0.4773
13485W        W29559   8.937   3.952  13.645 -0.1171 -0.1123 -0.3554
13486W        W29560   1.337  10.275   1.663 -0.0268  0.0041  0.0933
13487W        W29561  16.337   6.758  16.812 -0.0931  0.1606 -0.1085
13488W        W29562  16.842  13.072  14.017  0.0968 -0.4318 -0.0738
13489W        W29563  10.224   9.829   4.703  0.2524 -0.1406 -0.1668
13490W        W29564   7.779   9.128  16.263 -0.2436  0.2139 -0.0879
13491W        W29565   7.201   0.384   2.990  0.0373  0.2988 -0.1000
13492W        W29566  17.733   7.748  13.501  0.1509  0.1746  0.0771
13493W        W29567  11.633   0.197   1.991  0.1394  0.1154 -0.3588
13494W        W29568   5.583   6.774   1.486 -0.1285  0.3761  0.0200
13495W        W29569  15.143  14.186   3.786  0.1094 -0.0556 -0.0430
13496W        W29570   5.594   8.914   1.611  0.1854 -0.1220  0.0504
13497W        W29571  11.443  15.969  13.840  0.0404  0.1174  0.2416
13498W        W29572   0.569  13.328   1.000  0.1143  0.0673  0.3692
13499W        W29573  12.311   2.358  16.850 -0.0882 -0.1433  0.0785
13500W        W29574  16.136   6.406   5.109  0.2339 -0.0057 -0.1158
13501W        W29575  14.678   5.302   2.026 -0.0436 -0.0235 -0.1432
13502W        W29576   5.614   1.620   2.873 -0.0539  0.2400  0.0217
13503W        W29577  10.036  10.588   2.045 -0.1688 -0.1449 -0.0922
13504W        W29578   0.610   6.086   4.766  0.3740 -0.2030 -0.2736
13505W        W29579  12.036   7.462   3.719 -0.1346  0.0990  0.1298
13506W        W29580  15.325   4.165  15.521 -0.0480  0.2623  0.0318
13507W        W29581  11.394   3.107  13.038  0.3806 -0.0481 -0.0597
13508W        W29582  16.210   8.073   5.443 -0.0374  0.2530  0.1028
13509W        W29583  11.070  13.652   5.492  0.4478 -0.1893 -0.0319
13510W        W29584   8.753  15.493   4.132  0.3409  0.0415 -0.0081
13511W        W29585   9.956  11.643  12.098  0.1873 -0.0299 -0.2459
13512W        W29586  15.416  14.228   5.845 -0.4874  0.0932 -0.1656
13513W        W29587  12.075   3.291   1.767 -0.3760 -0.1868  0.0335
13514W        W29588   0.902   7.955   1.296 -0.1327  0.0072 -0.2049
13515W        W29589  12.304  11.683  11.502 -0.0107 -0.0699  0.4400
13516W        W29590  11.450   0.500   2.519 -0.0776 -0.1612  0.2479
13517W        W29591   7.650   5.858  15.367  0.2387  0.0945  0.2643
13518W        W29592  13.106   4.793   0.645 -0.0830  0.1752  0.0381
13519W        W29593   4.839   4.926   5.995 -0.0772  0.1319  0.2276
13520W        W29594   8.464  11.117   2.834 -0.1166  0.0482 -0.0343
13521W        W29595   3.405  13.869   1.622 -0.0433 -0.0292  0.2057
13522W        W29596   5.116   4.468  16.605  0.1462  0.1334  0.0838
13523W        W29597   0.156   8.232  15.662  0.0631  0.3902 -0.0870
13524W        W29598  16.624  13.354   2.984 -0.2389  0.2120  0.3078
13525W        W29599  11.445  14.690   3.428  0.0707  0.2725  0.1397
13526W        W29600  14.387   0.762   3.086  0.2417  0.1061 -0.3452
13527W        W29601  13.606   1.583  13.439 -0.2139 -0.0322 -0.1163
13528W        W29602   5.034   1.999   3.752 -0.1741  0.0266  0.2335
13529W        W29603  14.888   9.685   1.215 -0.0206 -0.0578 -0.2661
13530W        W29604   2.558  12.499   0.658 -0.0206  0.0400 -0.2396
13531W        W29605   9.442   4.212  12.011 -0.3790  0.0145 -0.0327
13532W        W29606  12.203  10.224  12.258  0.0324 -0.1076  0.0272
13533W        W29607  11.070   4.569   0.799 -0.2351  0.1507 -0.1330
13534W        W29608   0.277   9.192   2.113 -0.2021 -0.2159 -0.2238
13535W        W29609   7.828   0.895   6.101 -0.0203  0.0839  0.0553
13536W        W29610   3.887  16.024   0.212  0.1902  0.0068 -0.2187
13537W        W29611  11.592   3.664   1.850 -0.0360 -0.0840  0.1460
13538W        W29612   9.014  12.887  13.831  0.3790 -0.0136 -0.3560
13539W        W29613   3.704   1.816   2.715  0.0681  0.1142 -0.3155
13540W        W29614  11.050  17.645  15.660  0.1356 -0.0200  0.0421
13541W        W29615  16.009   6.557   0.442 -0.1468 -0.1370  0.0522
13542W        W29616   9.134  12.339  16.735  0.0208 -0.1972 -0.1247
13543W        W29617  14.888  11.332  15.031 -0.0076 -0.1151 -0.2444
13544W        W29618   3.998  17.100  15.985  0.1750  0.1276 -0.2019
13545W        W29619  10.361   7.686  13.822  0.0169  0.1331 -0.3625
13546W        W29620   6.112  11.033   4.736 -0.2102 -0.3628 -0.0946
13547W        W29621   5.000   5.282   3.374  0.0495 -0.2199 -0.1721
13548W        W29622   4.920   3.432  13.971 -0.2805 -0.0039  0.2367
13549W        W29623   8.472  11.816  11.579 -0.3229 -0.1276 -0.1568
13550W        W29624  11.959   7.503   0.054 -0.1070  0.2331 -0.3809
13551W        W29625  13.921   0.230   1.343 -0.1211  0.3016  0.0943
13552W        W29626   2.988   8.238   5.519 -0.1668  0.2596  0.1905
13553W        W29627  10.859   1.547   2.294  0.0224 -0.0292  0.0410
13554W        W29628   9.091   8.541  13.462  0.1056  0.1478  0.0917
13555W        W29629   4.916  10.935   4.050  0.0586 -0.2551  0.0571
13556W        W29630   7.844   1.375  14.361  0.0122  0.0595  0.0165
13557W        W29631  15.029  11.601  16.118 -0.1364 -0.1997 -0.1572
13558W        W29632   1.543   7.846  11.910 -0.0997  0.2256 -0.0488
13559W        W29633   0.254   2.057   6.188 -0.3243  0.3532  0.2324
13560W        W29634  16.477   9.267  14.490  0.2846  0.1406 -0.0626
13561W        W29635   6.425  12.041   0.701 -0.0049 -0.0262 -0.0265
13562W        W29636  12.110  14.171   4.948  0.1419  0.1078  0.2916
13563W        W29637   1.412   7.532   1.246  0.0589  0.2745 -0.3210
13564W        W29638   6.400   8.680  12.505  0.1098 -0.1258  0.2765
13565W        W29639   7.064   0.090  11.698  0.0240  0.2136  0.3247
13566W        W29640  12.022  17.417   3.551 -0.2595  0.0085  0.0949
13567W        W29641  13.618  11.197  13.005 -0.2281  0.1223  0.2314
13568W        W29642   1.097   9.372  14.882  0.1156 -0.1086 -0.1520
13569W        W29643   4.088   4.382  12.407  0.1115  0.0511 -0.0029
13570W        W29644   7.598  13.963   3.247  0.3688  0.0516  0.0439
13571W        W29645   6.617   2.381   5.653 -0.1863 -0.1142 -0.0268
13572W        W29646   6.363   7.309   1.371  0.1204  0.0595 -0.0998
13573W        W29647  17.320   4.326   5.769  0.2318 -0.0834 -0.1372
13574W        W29648  11.979  12.006  16.052 -0.3299 -0.0835  0.0829
13575W        W29649  15.402  13.057  16.157 -0.3218 -0.1865 -0.0203
13576W        W29650  15.832   4.505   1.643  0.0378 -0.3410  0.3172
13577W        W29651   1.788   9.927  14.160 -0.1065 -0.3021 -0.2196
13578W        W29652   3.619   4.661   4.365  0.2981 -0.2169  0.1974
13579W        W29653   1.807  12.757   5.605 -0.2292  0.1312 -0.2439
13580W        W29654  12.863  14.283  14.062 -0.0977  0.2098  0.0971
13581W        W29655   5.509  15.319   2.901  0.3200  0.2941  0.2272
13582W        W29656  17.742   9.392   2.882 -0.0762 -0.4212  0.2491
13583W        W29657  10.321  16.265   0.921  0.1906 -0.0531  0.4283
13584W        W29658  17.211   8.566  15.261 -0.3503 -0.0192  0.2383
13585W        W29659  15.618  13.556  14.760  0.0586  0.1261  0.1733
13586W        W29660   1.943   2.383   1.325 -0.0588 -0.1279 -0.2145
13587W        W29661   9.393  15.918  16.702  0.2187  0.0140 -0.1581
13588W        W29662  11.281   9.937  14.356  0.1147 -0.2270  0.0403
13589W        W29663   3.426   5.785  12.818  0.1754 -0.2638 -0.1303
13590W        W29664   6.999  14.933  13.665  0.1932  0.2596  0.0497
13591W        W29665   9.113  14.071   2.410  0.1003 -0.0866  0.0349
13592W        W29666  11.419   8.314  14.134 -0.4868  0.1339 -0.0599
13593W        W29667  15.600  11.772   3.900  0.0262  0.2726  0.0248
13594W        W29668   5.432   3.407   4.575  0.2974 -0.1719  0.4229
13595W        W29669   5.540   2.159  11.561  0.1788  0.1715 -0.1378
13596W        W29670  14.056   8.486   4.386  0.4143 -0.0321 -0.0145
13597W        W29671  13.716   1.948  16.705  0.0114 -0.1215  0.2162
13598W        W29672  17.325  14.084   1.932 -0.0419  0.0791 -0.0842
13599W        W29673   2.084  17.346  13.705 -0.0180  0.0866 -0.0916
13600W        W29674  16.786   0.925  14.944  0.0131  0.1554  0.0448
13601W        W29675   6.581  17.393   4.309 -0.1904 -0.0668  0.1411
13602W        W29676  16.134   3.609   0.114  0.0126 -0.0962  0.0658
13603W        W29677  13.147   1.550   5.906 -0.1303  0.1795  0.2827
13604W        W29678  10.920   7.342  14.558 -0.2096 -0.3105  0.1457
13605W        W29679   7.391   0.313   3.596 -0.1364  0.2111 -0.1528
13606W        W29680   2.413  11.802   3.993  0.0387 -0.0609 -0.0222
13607W        W29681   3.812  10.811   2.462 -0.0395 -0.1634  0.0814
13608W        W29682  12.322   8.597   5.830  0.2258 -0.3584  0.1151
13609W        W29683  12.343  10.291   3.020  0.0626  0.1590  0.0405
13610W        W29684  14.483   0.647   0.991 -0.0996 -0.1731 -0.0512
13611W        W29685   2.111   8.163   1.484  0.1515 -0.1348 -0.0671
13612W        W29686   9.018  12.610  17.158  0.1987  0.2071  0.1069
13613W        W29687   7.616   6.989  11.865 -0.0598  0.2273  0.1195
13614W        W29688   0.350   9.936  16.149 -0.2774  0.0294 -0.2532
13615W        W29689   2.856   7.131  13.011  0.1273  0.0897  0.1587
13616W        W29690   7.202  12.894  15.539  0.2623  0.1256  0.0447
13617W        W29691  16.346  11.475  15.725  0.0860 -0.2513 -0.1118
13618W        W29692   1.643  16.126   4.611 -0.0084  0.0826  0.0019
13619W        W29693   0.400  16.514  11.817  0.1726 -0.2450 -0.1007
13620W        W29694  11.825   4.184  11.829 -0.2676  0.1388 -0.0545
13621W        W29695   5.401   9.151  16.265 -0.2749  0.2895 -0.0877
13622W        W29696  15.809  10.105  11.731 -0.0405 -0.2636 -0.0489
13623W        W29697  14.306  11.102  16.953  0.4078 -0.0540 -0.0192
13624W        W29698  16.297   4.964  11.649  0.1980 -0.4005  0.0270
13625W        W29699   3.855   4.086  13.835  0.2012  0.1903 -0.0172
13626W        W29700   7.177  13.543   0.234  0.0444 -0.0021  0.1868
13627W        W29701  10.712  12.555  12.892  0.3052 -0.0921 -0.0254
13628W        W29702  16.194  13.324   2.749  0.1113 -0.1222  0.2087
13629W        W29703   1.330   5.221  16.434 -0.3640  0.0362  0.4732
13630W        W29704   2.103  13.514  14.339  0.1851 -0.1540 -0.1024
13631W        W29705   6.012   6.634  14.242 -0.0361 -0.2706 -0.1117
13632W        W29706  12.888   1.062   1.371 -0.3195 -0.0359 -0.0013
13633W        W29707   8.169  14.267  16.760  0.1283 -0.0647  0.1424
13634W        W29708  15.511  16.094   0.125 -0.2224 -0.2209  0.2217
13635W        W29709   4.462   5.269   3.434  0.1095 -0.2037 -0.3899
13636W        W29710  12.643   9.479  13.846 -0.0536  0.3018 -0.2053
13637W        W29711  13.578   1.978   2.491 -0.1661 -0.1897  0.1231
13638W        W29712  13.227  16.175   0.876  0.2246  0.0582  0.0956
13639W        W29713   1.633   3.793  12.332 -0.0885  0.0767  0.1216
13640W        W29714  14.471   2.622  12.097  0.1865  0.0286 -0.3043
13641W        W29715   7.269  12.857  13.336  0.0677  0.0597  0.2242
13642W        W29716  12.676  17.214  15.866 -0.0808  0.0179  0.0252
13643W        W29717   3.600  16.025   5.121  0.1228  0.1687 -0.3117
13644W        W29718   0.662   1.526   4.401  0.2291 -0.0102  0.1485
13645W        W29719   2.766  14.693  13.922  0.0727 -0.1689 -0.0125
13646W        W29720  11.481   6.714   2.579 -0.3560  0.1521  0.0787
13647W        W29721  14.476   4.029   3.070 -0.0797 -0.0746 -0.1394
13648W        W29722   8.395  17.604   3.889 -0.1125 -0.0910  0.2845
13649W        W29723   8.642   5.212  12.729 -0.2988 -0.3382 -0.0190
13650W        W29724  10.724  11.113   4.565 -0.1779  0.0848  0.1030
13651W        W29725   6.821   2.789   0.831 -0.0867  0.1264 -0.0962
13652W        W29726   2.508  16.941  11.711 -0.1466 -0.0503 -0.1661
13653W        W29727   2.321  17.186  12.205 -0.2565  0.2149 -0.2560
13654W        W29728  10.053  11.481   0.148 -0.1111  0.2543 -0.2754
13655W        W29729  14.294  13.786   5.502 -0.0058  0.1221  0.0855
13656W        W29730   8.007   4.559  12.363 -0.4059 -0.1038  0.2884
13657W        W29731   9.106   6.047   4.525 -0.0111 -0.2291  0.3805
13658W        W29732  11.772   2.999  13.954 -0.0812  0.3099 -0.0594
13659W        W29733   7.950  17.492  14.636 -0.2171 -0.0350  0.1969
13660W        W29734   9.697   9.248   2.117 -0.1733  0.0585 -0.1148
13661W        W29735   0.716   5.993  16.084  0.0505 -0.0245  0.2031
13662W        W29736  10.355  13.526   1.556 -0.0734  0.1814 -0.0937
13663W        W29737   6.774   5.324  14.056 -0.0444  0.0922  0.1901
13664W        W29738   4.853  16.450   0.185 -0.0263  0.2476  0.0060
13665W        W29739   1.239  12.797   1.903  0.0775 -0.0778 -0.1069
13666W        W29740  16.493  10.193   0.976 -0.0713  0.0982 -0.1379
13667W        W29741  15.438   6.531   3.407  0.0755 -0.2358 -0.1545
13668W        W29742  11.636  13.703   3.639 -0.1384  0.1906 -0.0279
13669W        W29743   4.081   4.122   5.393 -0.0055  0.2612  0.0302
13670W        W29744   9.725  17.439   0.832  0.0621 -0.2660 -0.2462
13671W        W29745   1.091  16.532   2.371  0.1085 -0.7001  0.0753
13672W        W29746   6.916  15.844  14.198 -0.0139  0.0114 -0.1873
13673W        W29747   0.796   6.343   6.541 -0.1557 -0.1655  0.2718
13674W        W29748   5.431  14.074  16.991  0.0897 -0.1576  0.2183
13675W        W29749   2.231  13.156  14.699 -0.0656 -0.3286  0.1448
13676W        W29750  17.233  10.620   1.346 -0.1308  0.3727 -0.0519
13677W        W29751  16.495   9.175  12.785  0.1552  0.2527 -0.2406
13678W        W29752   2.617   1.028   4.528  0.3899 -0.1297  0.1869
13679W        W29753  16.654   5.085  13.390 -0.0492 -0.0529 -0.1405
13680W        W29754   7.478   5.051  12.267  0.2687  0.1971 -0.0423
13681W        W29755   4.218  13.242   1.701  0.1345  0.2642  0.3292
13682W        W29756   8.621   7.744  12.981  0.3400  0.0793  0.1655
13683W        W29757   5.741  14.074  15.387  0.2273  0.0406 -0.1126
13684W        W29758  13.027   9.942  16.089 -0.0576  0.2695 -0.1154
13685W        W29759   9.580  14.132   2.372 -0.1398  0.0869  0.0528
13686W        W29760  10.241   3.314   0.254 -0.0243  0.1749  0.3355
13687W        W29761   8.147  12.073   5.136  0.0780 -0.3725 -0.1454
13688W        W29762   4.675  15.946  15.571  0.0475  0.0974  0.1438
13689W        W29763  16.621  10.699   3.352 -0.0388  0.1267  0.1401
13690W        W29764   6.093  13.293   2.224 -0.3231 -0.2709  0.2012
13691W        W29765  16.313   2.904  16.929  0.3036 -0.2971 -0.1277
13692W        W29766   6.239   6.859  16.221 -0.1791 -0.1660 -0.1687
13693W        W29767   6.002   6.497   3.908  0.3211  0.2574 -0.1666
13694W        W29768   3.507  13.361   3.669 -0.1031  0.0626 -0.1080
13695W        W29769   3.963  13.141   3.599 -0.3660  0.0061 -0.0938
13696W        W29770   4.339   4.938  14.174  0.3196  0.2941  0.0151
13697W        W29771  17.624  10.822   2.274 -0.2833  0.1884  0.3565
13698W        W29772  14.769  16.707   0.185  0.0455 -0.1838  0.0612
13699W        W29773   8.467  14.478  17.133 -0.0184  0.2361  0.0145
13700W        W29774   2.149   0.464   6.513  0.1366 -0.1657 -0.0873
13701W        W29775   8.238   5.319   1.834  0.1850 -0.2917 -0.1499
13702W        W29776  17.389   9.694  11.510  0.4966  0.0011 -0.2328
13703W        W29777  15.586  17.104   3.668  0.3629 -0.1413 -0.2065
13704W        W29778   3.385  12.724  13.337 -0.1829  0.1052  0.0785
13705W        W29779  15.263  10.744  13.847 -0.4284 -0.1682 -0.0218
13706W        W29780  11.080   1.854  16.871  0.0649  0.0372 -0.1102
13707W        W29781  11.711   7.061   0.165 -0.1063  0.1913 -0.3162
13708W        W29782   7.722  11.748   1.434 -0.0787  0.3159 -0.0541
13709W        W29783  16.185   7.911   4.968  0.1878 -0.4232 -0.0246
13710W        W29784   9.879  12.372   3.929  0.0742 -0.0666  0.1654
13711W        W29785   0.500  11.374  13.229 -0.2627  0.1589  0.2143
13712W        W29786  14.380   8.450  12.307  0.0577  0.1112  0.1076
13713W        W29787   2.020   9.540  12.831 -0.0735 -0.1476  0.0730
13714W        W29788  13.546  16.239  12.103  0.0516  0.0268 -0.1860
13715W        W29789  14.067   1.593   0.808 -0.1109  0.1110  0.1465
13716W        W29790  16.658   1.081   5.478 -0.1906 -0.0579 -0.1528
13717W        W29791  14.711  13.247   3.201  0.2641 -0.3989  0.0223
13718W        W29792  14.369  17.501   0.712  0.3022 -0.1733 -0.2482
13719W        W29793   9.648   2.244  17.104  0.0746  0.1878  0.0092
13720W        W29794  15.409   8.183  15.573  0.2729  0.5366  0.0661
13721W        W29795  14.061  17.237  17.070 -0.0256 -0.1272  0.0969
13722W        W29796  10.994  15.540   2.086  0.2477 -0.0756  0.4201
13723W        W29797   1.348   4.178   2.950  0.0679  0.2174  0.0759
13724W        W29798  16.882  13.662  13.467 -0.0680 -0.2624  0.1690
13725W        W29799  14.277   1.101   0.068 -0.0148 -0.2601 -0.1198
13726W        W29800   9.301   7.647   1.565 -0.1015  0.2192  0.2385
13727W        W29801   3.137   8.542   0.951  0.0525  0.1924 -0.1144
13728W        W29802  14.643   9.144  13.555  0.1515  0.0101  0.1983
13729W        W29803   0.246  16.899   0.524  0.0128  0.2166  0.1303
13730W        W29804   0.775   9.668  16.314  0.0670 -0.0887  0.0441
13731W        W29805   0.183   2.651  16.132 -0.3531  0.0823  0.0361
13732W        W29806  14.866   0.739   3.948  0.0390  0.5115 -0.1193
13733W        W29807   3.913  11.649   2.118 -0.2532 -0.1034  0.1877
13734W        W29808   7.223   2.360  14.445 -0.1209  0.1484  0.2846
13735W        W29809  11.211  11.726  16.700  0.1886  0.0861 -0.0078
13736W        W29810  12.563  14.421  16.227  0.0231 -0.1079  0.2429
13737W        W29811  12.182   7.955   4.933  0.0593  0.0326  0.1748
13738W        W29812   7.302  14.413   5.213  0.0003  0.1887  0.2178
13739W        W29813  12.426   4.940   4.257  0.3291 -0.0703 -0.1123
13740W        W29814   1.538  14.766   4.339 -0.2212 -0.2045 -0.0304
13741W        W29815  12.162   8.289   0.268  0.1368  0.3902 -0.0060
13742W        W29816   7.075  11.110  13.640 -0.1431  0.2852 -0.1212
13743W        W29817   6.427   8.686   0.106  0.0822 -0.2461  0.1194
13744W        W29818   6.555  16.021  14.496 -0.1023  0.4263  0.0410
13745W        W29819  12.360  16.328   1.784  0.1587  0.0253 -0.2399
13746W        W29820   7.396  15.971  14.291  0.0096  0.3159 -0.1609
13747W        W29821   1.891   6.635   0.691  0.0053 -0.0016 -0.0713
13748W        W29822   4.575  12.087  13.523 -0.1653  0.0102 -0.1378
13749W        W29823   9.591  14.659   3.243 -0.0066  0.0262  0.0844
13750W        W29824  10.643   0.801   0.560  0.2900  0.0614  0.3427
13751W        W29825   4.104  15.274  13.537 -0.5802 -0.2005 -0.1038
13752W        W29826  11.431  10.465  15.154 -0.1058 -0.1497 -0.4069
13753W        W29827  14.279   0.518  16.427  0.0795 -0.2147  0.0275
13754W        W29828   7.804  14.357   5.133  0.0869 -0.1714 -0.0451
13755W        W29829  10.604  15.613  12.433 -0.0116  0.1000 -0.0280
13756W        W29830  16.107  10.708  15.476  0.0431 -0.2681  0.0280
13757W        W29831  10.625   7.852  14.607 -0.0100 -0.3168 -0.1607
13758W        W29832   8.677   8.649  13.955  0.2120  0.2480 -0.1253
13759W        W29833   1.733   6.491  16.832 -0.1846  0.2095  0.2037
13760W        W29834   7.641   7.674  15.202  0.2694  0.1762 -0.0566
13761W        W29835   8.519  14.257   2.397  0.0321 -0.0600  0.1660
13762W        W29836   0.307  17.492  13.433 -0.1844  0.0450  0.0034
13763W        W29837  17.226   3.438  11.264 -0.1905  0.1728 -0.0954
13764W        W29838  10.400  13.999  13.924  0.1169 -0.2096 -0.3199
13765W        W29839   4.915   7.234   1.649  0.1687  0.0479  0.0334
13766W        W29840   9.735  10.646  11.681 -0.0323 -0.1894  0.0519
13767W        W29841   4.381   3.435  12.308 -0.0031  0.0431 -0.2121
13768W        W29842   9.638   2.218   2.507  0.3152  0.1925  0.1150
13769W        W29843  12.362  15.744   6.369  0.0336 -0.1725 -0.0283
13770W        W29844   5.035   6.352  12.401  0.0225  0.4960  0.0270
13771W        W29845  16.536   6.129   0.350  0.0013 -0.3149 -0.1158
13772W        W29846   2.927   3.940  16.696 -0.0819 -0.0839  0.2172
13773W        W29847  13.312   5.790   4.264  0.0735  0.4268 -0.0723
13774W        W29848   2.692  10.198  16.828 -0.5009  0.1257 -0.0721
13775W        W29849   1.808   1.917   1.728  0.1443  0.2719  0.1047
13776W        W29850   7.118   9.793  13.302  0.0979 -0.0699  0.0111
13777W        W29851  14.386  10.599  11.841 -0.4142  0.2930 -0.2464
13778W        W29852   0.785   7.820   2.390 -0.4008 -0.0788  0.0269
13779W        W29853  10.698   4.524   2.272  0.1046  0.0903  0.1864
13780W        W29854   3.979   6.315   2.533  0.1237  0.2167 -0.2430
13781W        W29855   2.436  15.209   6.026 -0.1036  0.2329  0.1045
13782W        W29856  16.132   8.667  15.669  0.2187 -0.0814 -0.0994
13783W        W29857  17.684   7.121   2.327  0.2176  0.0869 -0.4208
13784W        W29858   9.293   3.091   3.042  0.0637  0.1609  0.0585
13785W        W29859   1.194  10.657   0.279 -0.0041 -0.2179  0.1368
13786W        W29860   4.209   1.273   0.952  0.0658  0.1266 -0.0462
13787W        W29861  16.798  10.907  16.166  0.2337 -0.1296  0.0068
13788W        W29862  16.608  11.573   3.729 -0.0235 -0.1381 -0.0125
13789W        W29863   2.025  16.754   6.341 -0.4597  0.0319  0.2480
13790W        W29864   8.137   4.569   1.685  0.1706  0.1574  0.1456
13791W        W29865   9.059  11.243  15.684  0.1344 -0.1247  0.1091
13792W        W29866   3.305  12.789   3.063 -0.3402  0.0938 -0.2205
13793W        W29867  11.243  17.064   3.413 -0.0986  0.0047 -0.3188
13794W        W29868  13.130   6.995   3.445  0.1191 -0.0202  0.2239
13795W        W29869   9.229  13.978  14.679 -0.2573 -0.1186 -0.0330
13796W        W29870   4.808   9.453   4.301 -0.0154  0.2720  0.1374
13797W        W29871   2.058   2.037  14.666  0.0924 -0.0745 -0.1289
13798W        W29872   6.369   3.740   6.218 -0.0274  0.0791  0.1196
13799W        W29873  14.111   3.322   0.498  0.0198  0.1718  0.1679
13800W        W29874   5.999   4.312   4.393  0.3372  0.0812 -0.3101
13801W        W29875  14.481   8.818   1.220  0.0316  0.0939 -0.4401
13802W        W29876  11.233   1.398   4.480  0.0274  0.1777  0.1028
13803W        W29877  15.645  11.718   2.984 -0.2994 -0.4158 -0.2130
13804W        W29878   3.366   5.002  11.978  0.1321  0.0527  0.2051
13805W        W29879   7.875  12.467   3.684 -0.1569 -0.0037 -0.1269
13806W        W29880  10.820  15.975  11.701  0.2918 -0.1451  0.0548
13807W        W29881  17.507  14.929  15.906  0.1933  0.0061  0.2773
13808W        W29882  16.240   1.768  13.375 -0.0986  0.1470  0.0800
13809W        W29883  10.361   9.592  15.130 -0.2820  0.0992  0.1038
13810W        W29884   7.289   5.811  16.146  0.0388 -0.1934 -0.3286
13811W        W29885   3.129  12.104   2.247 -0.3340  0.0302 -0.1972
13812W        W29886  11.053  16.128   2.047  0.1129  0.0140 -0.2253
13813W        W29887   5.929  17.332  13.022  0.3371 -0.0780  0.0477
13814W        W29888   6.982  10.031   1.906 -0.2146  0.0155  0.1687
13815W        W29889   3.533  11.704   4.642  0.2335 -0.0012  0.0147
13816W        W29890  11.194   6.196   5.622  0.1954  0.2372  0.1350
13817W        W29891  16.451  13.386  11.812 -0.0358  0.0840  0.0946
13818W        W29892   3.693  15.264  16.673  0.1428 -0.2358  0.0991
13819W        W29893   5.938   4.204  11.979  0.2383 -0.0593 -0.0009
13820W        W29894   9.696   5.692   6.376 -0.1749  0.2668  0.2898
13821W        W29895  15.297   8.316  11.495 -0.0005 -0.0745 -0.1443
13822W        W29896  14.357   2.328  16.546 -0.1024 -0.2249  0.2319
13823W        W29897  16.144   0.416  12.074 -0.1735 -0.0946 -0.0420
13824W        W29898   3.193   3.180  12.908  0.0590  0.1018 -0.0854
13825W        W29899  15.963   6.762  15.042  0.0979 -0.0670  0.0206
13826W        W29900   5.522  13.093  15.947 -0.0925  0.1382 -0.2606
13827W        W29901   7.618   1.401   3.634  0.1578 -0.1380 -0.1336
13828W        W29902   4.165  15.495   0.830  0.1884  0.4523 -0.2242
13829W        W29903  15.283   4.450   3.075  0.0160 -0.2700  0.0130
13830W        W29904   6.579   6.778   3.890 -0.4474  0.2296 -0.0457
13831W        W29905   1.291   9.410   4.181 -0.0629 -0.0081  0.2709
13832W        W29906   2.772   0.908  15.740 -0.1274 -0.3817 -0.0890
13833W        W29907   8.917  11.812  13.854  0.0125  0.1659  0.3133
13834W        W29908   5.703  10.499   2.589  0.2550  0.2803 -0.2366
13835W        W29909  11.482  12.804   0.830  0.1978 -0.1874  0.0888
13836W        W29910   4.020   4.980   3.379 -0.0589  0.0220  0.1346
13837W        W29911  17.618   2.501  15.582 -0.1147  0.2471  0.0302
13838W        W29912  13.886  14.286   4.764  0.1363  0.1331  0.0788
13839W        W29913   2.033  13.769   2.638 -0.0902 -0.2283  0.2377
13840W        W29914   3.114  10.279   1.904  0.0233  0.0530  0.0711
13841W        W29915  13.319  10.355   3.182 -0.1927  0.1609 -0.3505
13842W        W29916  10.350  17.684  15.481 -0.0665 -0.2366  0.1003
13843W        W29917   0.467  15.266   6.259 -0.3916  0.1827 -0.3808
13844W        W29918  13.751  17.126   5.684  0.1108  0.0018  0.0310
13845W        W29919  13.710  16.093   3.917 -0.1236 -0.3063 -0.0229
13846W        W29920   3.560   1.855   3.976 -0.0910  0.1045 -0.0671
13847W        W29921   0.161   4.907  13.579 -0.0960 -0.0787 -0.0805
13848W        W29922  11.906  15.161   0.156 -0.0799 -0.4889  0.3199
13849W        W29923  12.151   9.133   5.276 -0.0636  0.0452  0.2558
13850W        W29924  10.911   6.107   1.771 -0.3093 -0.1742 -0.1569
13851W        W29925   2.550   3.578   0.528 -0.0834  0.2299  0.0311
13852W        W29926  17.547   8.317   0.469 -0.1482  0.0543 -0.2254
13853W        W29927  10.721  12.434   2.484  0.0011 -0.4418 -0.1635
13854W        W29928  12.551   5.745   4.791  0.0030  0.1902  0.1254
13855W        W29929   7.883   6.602  14.789 -0.1483 -0.2409 -0.0050
13856W        W29930  17.516   1.905   0.408 -0.2778  0.1196  0.2506
13857W        W29931  10.910   8.880   1.914 -0.0662  0.0066 -0.2010
13858W        W29932   4.810   4.095   5.556 -0.1157 -0.0375  0.3108
13859W        W29933   1.178  17.605  16.481 -0.1509 -0.0085 -0.2890
13860W        W29934  16.671  15.677   3.170 -0.1360  0.1944 -0.0578
13861W        W29935   8.485  10.364  13.832 -0.0188  0.0455  0.0834
13862W        W29936  17.187  12.315   4.881  0.2622  0.4108  0.3642
13863W        W29937   9.510   2.493   3.026  0.0759 -0.2609  0.1006
13864W        W29938  10.517   4.934   2.469  0.0167 -0.0174  0.0217
13865W        W29939  11.224  10.177   3.929 -0.2901  0.0515  0.1538
13866W        W29940   9.456   1.623   2.195  0.3531 -0.1920  0.0725
13867W        W29941  10.040  11.384  13.281 -0.2066  0.0003  0.1323
13868W        W29942   6.906  14.165   5.473  0.1838 -0.2016  0.0112
13869W        W29943   5.348  14.694   0.712 -0.0069 -0.0095  0.0180
13870W        W29944  14.270  14.962   3.628  0.2880 -0.2701 -0.0917
13871W        W29945   6.491   2.904  15.492  0.0007  0.1941 -0.0327
13872W        W29946  15.377  13.753  15.581  0.0449  0.3948 -0.0928
13873W        W29947   3.532   1.758  17.075 -0.2180  0.0426  0.1774
13874W        W29948  10.449  10.785   1.763  0.0372  0.1813  0.1440
13875W        W29949   1.694  15.519   3.130 -0.2988  0.2066 -0.2047
13876W        W29950   3.413  12.973   0.527  0.1280  0.2037 -0.1484
13877W        W29951   6.104   5.631  17.053  0.2743 -0.0816 -0.0244
13878W        W29952   3.149   8.263  16.678 -0.2726 -0.1629  0.0932
13879W        W29953   7.457  17.694  17.111 -0.0863  0.0957 -0.0492
13880W        W29954  13.681   1.536   1.694 -0.1929  0.2805  0.4740
13881W        W29955   1.893   2.883  13.634  0.1125 -0.1453 -0.0166
13882W        W29956   1.956  11.795   3.398  0.1168  0.0266 -0.1105
13883W        W29957  16.587  15.046  14.400 -0.2058 -0.3601 -0.2037
13884W        W29958   7.764   3.371   5.668 -0.1746  0.1229  0.0258
13885W        W29959   5.799   9.212  12.459  0.0763 -0.1618  0.0324
13886W        W29960  13.218   1.032   5.627 -0.3933  0.1314  0.0609
13887W        W29961   7.272   5.259  15.278  0.4367 -0.1722  0.1014
13888W        W29962  17.045   9.628   0.780  0.0390  0.0216 -0.1069
13889W        W29963  15.432   3.105  14.167 -0.0888  0.1338  0.1825
13890W        W29964   8.043   9.568   1.554 -0.1033 -0.3627  0.0574
13891W        W29965   8.068  15.615   3.647  0.0284  0.5191  0.0995
13892W        W29966   5.671   3.771   1.856 -0.0400 -0.1731  0.1565
13893W        W29967   9.489  13.111   1.458 -0.3245 -0.0007 -0.3653
13894W        W29968  16.215   8.681  15.030  0.3577 -0.0231  0.1245
13895W        W29969  17.008  16.509  12.263 -0.1071 -0.0929  0.0718
13896W        W29970   5.103  10.327   0.657 -0.2578  0.0793 -0.0606
13897W        W29971  12.516   2.309   1.175 -0.1212 -0.1613  0.3824
13898W        W29972  13.437   5.481   1.203 -0.1158  0.0843 -0.2047
13899W        W29973  10.966   9.092  11.882  0.1951  0.2387 -0.1516
13900W        W29974  13.817   2.364   0.283 -0.0204  0.1127  0.0818
13901W        W29975   9.179   3.849   3.962  0.2713 -0.0129  0.0951
13902W        W29976  17.013  13.365   4.286 -0.1684  0.0210  0.0401
13903W        W29977  16.301  17.043   1.656  0.4963  0.1867 -0.2782
13904W        W29978  13.740  12.462  16.643  0.2628  0.3548 -0.1102
13905W        W29979   7.067  17.381  14.400 -0.0984 -0.1684 -0.0713
13906W        W29980   6.349   6.793   1.299 -0.0037  0.1655 -0.2140
13907W        W29981   8.624  12.580  16.609  0.1329 -0.0395  0.3497
13908W        W29982   4.567   4.245   6.583 -0.3142  0.1412  0.1175
13909W        W29983  14.887  16.867  12.652  0.1156  0.2058  0.2439
13910W        W29984  15.804   0.867   5.741  0.1363 -0.0489  0.0258
13911W        W29985  15.773   2.281  13.228  0.1295  0.4886 -0.0228
13912W        W29986   3.910   5.069  16.809 -0.2257  0.0332 -0.0522
13913W        W29987  16.671  16.078  12.229  0.1081  0.2487  0.0703
13914W        W29988   6.543   9.573  12.134  0.1344 -0.0794 -0.1933
13915W        W29989  13.489  15.744   0.639  0.0052 -0.0871  0.0166
13916W        W29990   9.075  16.263  14.339  0.4727  0.1319  0.1615
13917W        W29991  15.375   6.050   2.777  0.4843 -0.0374  0.0505
13918W        W29992   5.242  17.657  16.718 -0.2244  0.1031  0.1264
13919W        W29993  10.921  13.739   4.957  0.2507  0.0469 -0.1740
13920W        W29994   8.235   6.498  15.862 -0.0442 -0.1974 -0.0564
13921W        W29995  11.164  15.050   1.098 -0.0921  0.2352 -0.1326
13922W        W29996   3.496   3.863   6.360  0.0378  0.1542  0.1612
13923W        W29997  16.231   4.132   5.836 -0.1391 -0.0589 -0.5105
13924W        W29998  15.275  11.782   0.377  0.0776  0.1216  0.0300
13925W        W29999   1.230  14.748  15.028 -0.0210 -0.0508  0.2189
13926W        W30000  13.692   8.343   3.999 -0.4926 -0.0608  0.1901
13927W        W30001   9.792   5.321   0.071  0.0836  0.0192  0.5806
13928W        W30002  14.528  10.777   5.083  0.0588  0.1800 -0.1238
13929W        W30003  11.700   8.942   4.226  0.2563 -0.0865 -0.2921
13930W        W30004  16.075   8.910   5.649 -0.1013  0.2047 -0.1454
13931W        W30005   7.444  14.833   4.421  0.0594 -0.0471  0.2623
13932W        W30006  14.970  10.024   0.235  0.1121  0.1797 -0.1816
13933W        W30007   9.717   1.687   1.424  0.2839  0.2188 -0.0055
13934W        W30008   6.942   6.685   1.757  0.0225 -0.0215 -0.1717
13935W        W30009  15.496   4.455   3.538  0.1099  0.4346  0.1621
13936W        W30010   2.105   5.031  16.800  0.0138  0.2866  0.1010
13937W        W30011  10.586  10.162  12.001  0.1621 -0.2535  0.0102
13938W        W30012  13.989  17.545   5.026  0.3119  0.1407 -0.3029
13939W        W30013   0.012   2.991  15.732 -0.0128 -0.1585  0.0871
13940W        W30014   9.108   3.624  16.056 -0.2353 -0.0994 -0.1448
13941W        W30015   2.170   3.320   1.930  0.1610 -0.0926  0.0526
13942W        W30016  11.744  14.224   2.650  0.0399 -0.2333 -0.1015
13943W        W30017   0.407  16.427   2.053 -0.0439  0.0867 -0.0689
13944W        W30018  13.567  15.582  13.144 -0.1168 -0.0562  0.3223
13945W        W30019   3.110   7.541   1.105  0.3100 -0.1457  0.2062
13946W        W30020  17.033   7.475   3.970 -0.0734 -0.0802 -0.2370
13947W        W30021   8.992   8.246   0.612  0.0613  0.2198 -0.2658
13948W        W30022  12.179  15.506  12.913 -0.2899 -0.0141 -0.3137
13949W        W30023   9.851   7.239  16.122  0.1242 -0.1241 -0.0433
13950W        W30024   2.578   8.065  13.529 -0.3931  0.2918 -0.1278
13951W        W30025  13.800   3.680   0.403 -0.1155  0.0191  0.0238
13952W        W30026   0.032   1.242   1.763  0.2405 -0.0112  0.1753
13953W        W30027  11.060  14.105  15.815  0.1140 -0.1573 -0.0844
13954W        W30028   2.839  14.862  14.415  0.0689  0.0419 -0.4650
13955W        W30029   4.245  13.084  13.123 -0.0970  0.0679  0.4460
13956W        W30030   8.033   9.886  12.201 -0.1749 -0.2983 -0.2758
13957W        W30031   3.806  13.340  16.064  0.0210 -0.0410  0.2211
13958W        W30032  17.234  15.271   1.798 -0.0082 -0.2049  0.0877
13959W        W30033   0.021  13.342  11.762  0.0539  0.0440 -0.1984
13960W        W30034  13.815   7.682  15.398 -0.1585  0.0443  0.3370
13961W        W30035   8.971   9.333   4.659 -0.2251 -0.0782  0.2636
13962W        W30036   4.628  17.233  12.662 -0.0381 -0.0905  0.0990
13963W        W30037   3.778  10.115   1.698 -0.0936  0.1521  0.0307
13964W        W30038  12.904   5.100   3.003 -0.0665  0.0357 -0.0896
13965W        W30039  17.168   6.037   1.681  0.0770 -0.1277  0.2860
13966W        W30040   1.700   2.528  13.352 -0.0337 -0.3777  0.0693
13967W        W30041  15.446  16.400   5.614 -0.0369 -0.1691  0.0176
13968W        W30042   7.025   2.585   4.749  0.1070  0.1635  0.2271
13969W        W30043   0.841   5.652   4.259 -0.0634  0.0913  0.3992
13970W        W30044   7.860  11.462  16.440 -0.1466 -0.1499 -0.0767
13971W        W30045   9.145   5.345  12.761  0.0086  0.3401 -0.1214
13972W        W30046  10.427  16.363   1.416  0.1797  0.1982 -0.0041
13973W        W30047   6.888  16.526  12.162 -0.0121 -0.2066  0.2249
13974W        W30048  13.743   3.326   4.016  0.3069  0.1620  0.3464
13975W        W30049   5.224  10.512  11.695 -0.1662  0.2642 -0.0847
13976W        W30050   5.558   9.576  16.976 -0.0401 -0.1421 -0.1567
13977W        W30051  12.880   6.259   4.992  0.0446 -0.0442 -0.1305
13978W        W30052   5.696   9.426  13.276  0.3251 -0.1423  0.2468
13979W        W30053  11.860  14.716   4.869  0.1674  0.1080  0.0234
13980W        W30054   2.588  15.589   0.964 -0.0081 -0.0125 -0.1496
13981W        W30055   7.092   1.633  15.803 -0.2624 -0.1405  0.2527
13982W        W30056  13.888  10.177  16.309  0.0544 -0.1067 -0.1412
13983W        W30057   2.655   7.156  16.705 -0.0111  0.0992 -0.0144
13984W        W30058   6.132   8.618   0.508  0.2335  0.2233  0.0885
13985W        W30059  16.405  12.545   0.276  0.1712 -0.0995  0.0311
13986W        W30060   5.503  16.140   5.753 -0.1944 -0.0796 -0.2111
13987W        W30061   3.365   1.633   3.045  0.1494  0.0502  0.1501
13988W        W30062  17.401   9.402  16.863 -0.3176  0.0939 -0.2163
13989W        W30063  15.297   6.435   0.846  0.1535 -0.1808  0.0540
13990W        W30064   5.301  16.811   2.182  0.1037  0.0473  0.1971
13991W        W30065  12.161  11.510  17.054  0.0238 -0.0128  0.2275
13992W        W30066   2.579  15.770  14.182 -0.1809  0.2754  0.0480
13993W        W30067  15.602  14.920   2.426  0.2541  0.2292  0.0188
13994W        W30068   2.277  10.764  13.158 -0.0190 -0.0986 -0.0172
13995W        W30069   9.887   5.236   3.265 -0.2745  0.1522 -0.0209
13996W        W30070   0.164   7.438  12.553  0.1245 -0.2177 -0.1862
13997W        W30071   8.702   8.497   0.259 -0.2863 -0.0525  0.1838
13998W        W30072   0.489   6.877   3.760  0.0490 -0.3005  0.2830
13999W        W30073   7.742   2.691  13.842  0.1877  0.1897  0.0929
14000W        W30074  12.217  14.519   3.057  0.1340 -0.0332 -0.0547
14001W        W30075   3.169  11.209  13.820 -0.0457 -0.0191  0.1258
14002W        W30076  14.727   7.837  12.667 -0.0004 -0.2129  0.1051
14003W        W30077   8.273   2.390   2.896  0.1524 -0.1146 -0.0979
14004W        W30078  15.275  12.830  16.582  0.0913 -0.0587 -0.2448
14005W        W30079  17.268   7.106   3.622 -0.3953 -0.1645  0.0384
14006W        W30080  14.907  17.685   0.437  0.1410 -0.0373  0.0982
14007W        W30081  14.120   4.614   2.367 -0.3544 -0.0652 -0.0485
14008W        W30082  10.700   7.036  17.126 -0.0092  0.3393  0.2071
14009W        W30083   5.104  11.049  14.440 -0.0872  0.3456  0.1362
14010W        W30084  14.950   7.986  15.760  0.2271 -0.1943  0.3460
14011W        W30085   2.170   8.151   2.860 -0.1346  0.2181 -0.1859
14012W        W30086  17.110  14.498  12.461  0.2862 -0.1663 -0.1597
14013W        W30087   4.320  12.510  13.240  0.1433 -0.2516  0.0507
14014W        W30088   3.734   9.407   2.089 -0.2573  0.0700 -0.2893
14015W        W30089   9.834  14.754   0.239 -0.0348  0.0668  0.3835
14016W        W30090   1.482   4.195   1.148 -0.1745  0.2545 -0.1018
14017W        W30091   3.594  14.982   5.427  0.0626  0.0370 -0.2358
14018W        W30092  15.187   4.490  16.479  0.0264  0.4327  0.1985
14019W        W30093   6.826  11.592   5.582 -0.0621 -0.2102 -0.2676
14020W        W30094  12.320  15.664  14.283  0.2402  0.1247  0.0319
14021W        W30095   1.557   9.508  13.719 -0.3414  0.1488 -0.1298
14022W        W30096   9.786  13.793  16.012 -0.1565 -0.1340  0.1630
14023W        W30097   5.184  12.826   4.225  0.0806  0.3462  0.0675
14024W        W30098   8.656  15.694   2.861 -0.0223 -0.0961  0.1814
14025W        W30099   4.314   7.534   4.955 -0.2985 -0.2048 -0.2458
14026W        W30100   3.227  13.693   3.427 -0.0347  0.2862 -0.0528
14027W        W30101   8.393  15.267   5.935 -0.1324 -0.1090 -0.1384
14028W        W30102   9.494   1.739  15.291  0.1776  0.1941  0.2295
14029W        W30103   1.367   0.932  13.961  0.3190  0.2447 -0.1337
14030W        W30104  17.033  16.000  14.931  0.2259  0.2044  0.0891
14031W        W30105   3.527  13.807   5.515  0.2093 -0.0126  0.2844
14032W        W30106  13.208   4.778  15.689 -0.2859 -0.0722  0.0652
14033W        W30107   7.959   7.379   5.911  0.1342 -0.0190  0.2841
14034W        W30108   4.600   1.618  12.478 -0.2829 -0.1305 -0.0797
14035W        W30109   2.921  16.577   4.263 -0.1473 -0.1550 -0.0008
14036W        W30110   2.189  13.831   0.469 -0.4392 -0.1368  0.2944
14037W        W30111   0.011  16.505   5.193 -0.1143 -0.1256 -0.0681
14038W        W30112   3.358  14.038  16.319 -0.2129  0.4572 -0.1947
14039W        W30113  11.963  12.411   6.205  0.1168  0.1834  0.0859
14040W        W30114  16.524  11.672   5.104  0.2991  0.2313  0.0418
14041W        W30115  15.941   3.584   3.433  0.3176  0.1651 -0.2152
14042W        W30116   5.427  11.387   5.315 -0.0123  0.2115 -0.0371
14043W        W30117   5.498  12.653  15.729 -0.0396 -0.0206 -0.0050
14044W        W30118  14.042   3.014   1.977  0.2010 -0.0653  0.4404
14045W        W30119   8.801  15.085  16.550  0.3127 -0.2265  0.0409
14046W        W30120  10.416   6.421   6.297 -0.0244 -0.1853 -0.1310
14047W        W30121   6.813  10.547  15.661  0.3958  0.3187  0.2353
14048W        W30122  11.470   2.408   0.392 -0.0161 -0.0757 -0.1626
14049W        W30123   1.600  13.548  15.241 -0.0742  0.1527 -0.0159
14050W        W30124  16.294   0.295   6.540 -0.0235 -0.0630  0.0378
14051W        W30125   1.060   1.322  12.146 -0.0761  0.0947  0.1642
14052W        W30126   8.917  11.222   5.689 -0.1606 -0.1932 -0.0323
14053W        W30127   3.449   3.360   5.520 -0.2719 -0.0250  0.0878
14054W        W30128   8.053   8.372   0.738  0.2881 -0.0865 -0.0155
14055W        W30129   7.237   7.357  15.267 -0.3634 -0.1924  0.2867
14056W        W30130   8.069  10.622   4.765 -0.0933 -0.0779  0.1597
14057W        W30131  13.984  10.048  14.309 -0.1082  0.2858 -0.0105
14058W        W30132  10.925  17.662   2.387 -0.2802 -0.2643 -0.0327
14059W        W30133  10.240   1.492  16.834  0.3174  0.1943 -0.0160
14060W        W30134   7.400  12.395  15.482  0.0203 -0.1472 -0.3050
14061W        W30135   5.589  16.137   1.924  0.2875 -0.0757 -0.0221
14062W        W30136  15.365   2.398   3.509 -0.1667 -0.0174  0.3230
14063W        W30137  13.672   0.645   4.042 -0.0535  0.2578  0.0018
14064W        W30138  13.732   5.424  14.611  0.1337 -0.1768 -0.0533
14065W        W30139  13.749  10.345  13.049  0.0631  0.2488  0.3243
14066W        W30140   9.245   9.333  14.305 -0.0134  0.1100 -0.0443
14067W        W30141  14.858   3.738   3.323 -0.1468 -0.0573  0.2518
14068W        W30142   3.414   9.352  15.345  0.2783  0.2319 -0.0314
14069W        W30143   4.466   9.786  14.468 -0.0727  0.1097 -0.0170
14070W        W30144   3.040   5.907   5.767 -0.0345 -0.2186 -0.1641
14071W        W30145   0.979   1.607   4.032  0.0343 -0.4360 -0.1171
14072W        W30146   6.670  13.601  13.492  0.0150 -0.0389 -0.2471
14073W        W30147  10.431   1.564  15.141  0.0873  0.2577  0.0383
14074W        W30148  10.028   7.474  13.460 -0.0621 -0.3562 -0.4153
14075W        W30149   8.816   4.491   4.687 -0.1081 -0.0219 -0.0010
14076W        W30150  16.019  15.127   1.501  0.0768  0.0249 -0.2242
14077W        W30151  12.262   3.961  15.788  0.2127  0.0126  0.4296
14078W        W30152   1.663   1.555  14.362 -0.0327 -0.1533 -0.1935
14079W        W30153  15.656   1.013  13.565 -0.0420 -0.0588  0.0809
14080W        W30154  17.216  16.276  16.210 -0.1647 -0.2245 -0.0616
14081W        W30155   0.289   7.746   3.510  0.0300  0.2544 -0.0842
14082W        W30156   0.894  13.911  13.814  0.1502 -0.1080 -0.3542
14083W        W30157   6.716  16.236  13.433 -0.1378  0.1071 -0.2402
14084W        W30158   9.096   4.874   3.883 -0.0694  0.2090 -0.0489
14085W        W30159  11.736   7.198   4.989 -0.1158  0.2729  0.0648
14086W        W30160   6.217  16.526   1.031  0.0566  0.0328 -0.0497
14087W        W30161   2.709   4.388  13.690 -0.2739 -0.0608  0.1388
14088W        W30162  11.737   2.214  15.648 -0.0484 -0.0271 -0.0327
14089W        W30163  16.523  14.646   4.689  0.0116  0.0465  0.1491
14090W        W30164  13.476  12.418  12.063 -0.1396  0.1271 -0.2639
14091W        W30165   4.950   8.815   4.130  0.1073  0.2447 -0.3281
14092W        W30166   8.233   8.809   0.464 -0.0496  0.0316 -0.1426
14093W        W30167  15.769  16.933   1.715 -0.1110  0.1621 -0.2535
14094W        W30168  10.025  13.830   6.120 -0.3019  0.2695  0.1648
14095W        W30169  14.720   9.877   3.830  0.3590 -0.0128 -0.0172
14096W        W30170   0.825   3.805   5.062 -0.0217 -0.1055  0.0270
14097W        W30171   2.889   8.070   3.438  0.2797  0.0719 -0.1360
14098W        W30172  13.578   7.245  15.751  0.2474 -0.1229  0.4178
14099W        W30173   2.872   6.468  14.798 -0.0900  0.1829  0.1033
14100W        W30174   9.882   9.472  14.144 -0.2770 -0.0139  0.0463
14101W        W30175   7.736   5.672  16.373 -0.1932 -0.0529  0.0413
14102W        W30176  15.822  12.870   1.221 -0.0209 -0.0305  0.0582
14103W        W30177   4.024  13.804  15.660 -0.0851 -0.0956  0.2139
14104W        W30178   4.284  16.419   6.233 -0.1062 -0.2203  0.0996
14105W        W30179   6.929  10.840  12.232 -0.2175 -0.0297  0.1478
14106W        W30180  10.726  10.104  14.601  0.0739 -0.0326 -0.1671
14107W        W30181   8.843   9.019   0.497 -0.0764  0.1793 -0.2635
14108W        W30182   4.387   3.067  14.683 -0.1815  0.0143  0.1412
14109W        W30183   1.668  13.775   2.241  0.1151  0.2573  0.1810
14110W        W30184   5.020  16.468   0.740 -0.1189 -0.1373 -0.1342
14111W        W30185   0.737  17.370  16.013  0.1546 -0.1303  0.1184
14112W        W30186  13.311  16.178   1.720  0.0574 -0.0299 -0.1542
14113W        W30187  12.346  14.177   2.181 -0.1289  0.2539  0.0381
14114W        W30188   8.610  15.477   5.491 -0.0837  0.3376  0.1123
14115W        W30189  10.931   8.452   0.927 -0.0435 -0.0220 -0.0054
14116W        W30190   7.311   4.629  14.052  0.0555 -0.1802  0.0476
14117W        W30191  13.292  16.792   3.291 -0.0233  0.0154 -0.0490
14118W        W30192   7.779  11.362  15.607 -0.0546  0.1522  0.3467
14119W        W30193   0.829   3.933  16.031 -0.2468 -0.2514 -0.2074
14120W        W30194  17.282  12.892   0.814  0.2309 -0.0803  0.1080
14121W        W30195   5.739   3.472  15.746  0.0972 -0.0018 -0.3598
14122W        W30196  17.349  16.227   3.410 -0.3849  0.1953 -0.1667
14123W        W30197  14.215  11.303  15.081 -0.1302 -0.0626  0.1200
14124W        W30198  13.848   9.391   3.834  0.3396 -0.1846  0.2255
14125W        W30199   9.898  14.578  14.135 -0.0121  0.0215 -0.2050
14126W        W30200   6.415  13.949  14.533 -0.2084  0.0427  0.0048
14127W        W30201  11.387  12.267   6.205 -0.2173 -0.1916 -0.0225
14128W        W30202   1.673  11.339  15.858 -0.0408 -0.2008 -0.0141
14129W        W30203   3.730  15.579   2.645 -0.0771  0.1105 -0.2398
14130W        W30204  16.002  14.408   4.712  0.2332 -0.2803  0.3983
14131W        W30205  14.960   7.645   2.363  0.1263 -0.0584 -0.1283
14132W        W30206   4.195   6.179   5.089  0.1619 -0.2722  0.1861
14133W        W30207   5.081   6.893   5.444  0.1480 -0.0013  0.1792
14134W        W30208  14.218  17.682   3.737  0.1315  0.1045  0.1455
14135W        W30209  11.283  11.061   3.376 -0.1595  0.1384  0.3743
14136W        W30210  11.810   7.051  14.944 -0.1304 -0.0971  0.0469
14137W        W30211  11.043  17.489  13.090  0.0586  0.0048  0.2405
14138W        W30212   2.676   2.080   5.682  0.2479 -0.0973 -0.3157
14139W        W30213   0.322   2.347   3.136  0.0206  0.1136 -0.4636
14140W        W30214   4.084   3.482   3.636  0.0756 -0.1396 -0.3056
14141W        W30215   7.699   5.149   0.534  0.0542  0.0009 -0.0482
14142W        W30216   2.107   5.984  16.724  0.0573 -0.2245 -0.0223
14143W        W30217   8.131   5.929  17.106  0.0710 -0.1628 -0.0676
14144W        W30218  16.413  11.218  13.803  0.0472  0.0615  0.0299
14145W        W30219  10.120   0.821  13.565 -0.0588 -0.1106 -0.0814
14146W        W30220  14.953  15.565  14.945 -0.1733 -0.2057 -0.0271
14147W        W30221  17.083   1.391   4.614 -0.0586 -0.4691  0.0642
14148W        W30222  15.355  12.070   2.733  0.2665 -0.1428  0.3013
14149W        W30223   1.832  11.980   6.340 -0.0484 -0.2151  0.0900
14150W        W30224   0.342   6.225   1.370 -0.1057 -0.2903 -0.1196
14151W        W30225  14.433  11.482  15.554  0.0120  0.2314 -0.0492
14152W        W30226   2.835   9.984   1.123 -0.4162  0.0147 -0.2072
14153W        W30227   6.720   5.330   2.479  0.2200 -0.2723  0.1373
14154W        W30228  10.156  13.957  12.027 -0.0465 -0.1890 -0.0927
14155W        W30229  16.464  10.706   5.506 -0.1763  0.2541  0.0277
14156W        W30230   2.901   2.877   2.316 -0.0373 -0.1732  0.2210
14157W        W30231  17.463   1.697   0.839  0.4099 -0.0260 -0.4141
14158W        W30232  12.512   4.571   5.744 -0.0257 -0.1639  0.1244
14159W        W30233   9.799   4.320   2.467 -0.3297 -0.2889 -0.1450
14160W        W30234   1.218  15.626  14.155  0.0692 -0.0578  0.0991
14161W        W30235   5.016   7.351   4.012  0.1437 -0.1361 -0.0949
14162W        W30236   3.524   8.263   3.668  0.3711  0.2174 -0.1407
14163W        W30237  11.667  15.696  14.329  0.3278 -0.0699 -0.0643
14164W        W30238  11.609   6.429  16.635  0.2036 -0.2419  0.0918
14165W        W30239  15.333   9.707   4.473  0.0380 -0.2250  0.0991
14166W        W30240   2.326   7.674   1.476  0.0162 -0.0185  0.0685
14167W        W30241  12.594  16.493  14.605  0.1234  0.0009 -0.1996
14168W        W30242   5.918  12.053   4.408 -0.1969 -0.0878  0.1247
14169W        W30243  16.070  17.696  16.884 -0.0733  0.1137 -0.2051
14170W        W30244   7.934   3.570  15.353  0.1360 -0.1082  0.0198
14171W        W30245   4.850   2.712   4.379  0.0976  0.0696 -0.1567
14172W        W30246   7.646   8.892   4.540 -0.1222  0.0056 -0.1219
14173W        W30247  10.416   4.488  15.948  0.3713 -0.1758  0.0064
14174W        W30248  17.565  10.678   0.263 -0.0143 -0.1869 -0.1786
14175W        W30249   8.629   3.694   0.562 -0.0508 -0.0192  0.1807
14176W        W30250  12.217  16.799  14.360 -0.0816 -0.2238 -0.0477
14177W        W30251  15.987   2.024  16.141 -0.2336 -0.0174 -0.2215
14178W        W30252   7.106   4.214  15.334  0.0478  0.2175  0.1469
14179W        W30253   0.515   2.881  16.534 -0.0890  0.0222  0.0463
14180W        W30254   3.379   0.388  16.132 -0.0951 -0.1627  0.0526
14181W        W30255   3.232  16.951   4.076  0.2933 -0.1747  0.0218
14182W        W30256   9.481   3.123  13.755  0.0080  0.0711 -0.2421
14183W        W30257  12.108  17.540   4.358  0.0291  0.2717  0.0992
14184W        W30258   5.182  12.846  13.234  0.2475 -0.0687 -0.2551
14185W        W30259   8.808   4.473   0.183  0.4462 -0.0138  0.0973
14186W        W30260  13.169   7.526   4.386 -0.1378 -0.0120 -0.4354
14187W        W30261  17.528  17.575  15.042 -0.1311 -0.0575 -0.1085
14188W        W30262   3.012  10.918  12.815  0.1529 -0.0108  0.0453
14189W        W30263   8.321  15.532  12.553 -0.0325 -0.0873 -0.0757
14190W        W30264  13.952  17.449   2.843  0.1423 -0.2361  0.2670
14191W        W30265   0.298   8.196   4.200  0.2317  0.2872  0.2117
14192W        W30266  10.902   3.377   5.900 -0.0017  0.3066  0.0244
14193W        W30267   0.613  15.571  14.978 -0.1576 -0.1068 -0.4316
14194W        W30268   0.143   0.249   0.980  0.2741 -0.4168 -0.2257
14195W        W30269   7.387   4.090   3.534  0.2651 -0.1985 -0.0018
14196W        W30270   7.556  14.989   1.231  0.2104 -0.0206  0.0698
14197W        W30271  16.335   1.173   1.284 -0.3454 -0.1165 -0.0159
14198W        W30272  13.645   0.050   3.856 -0.3702 -0.1975 -0.0527
14199W        W30273   7.375   7.653  15.847  0.3325 -0.0772 -0.2289
14200W        W30274   0.806  14.057   1.809  0.1976  0.0413  0.0203
14201W        W30275  12.437   4.284   0.352  0.2030  0.0704 -0.0666
14202W        W30276   7.073  17.728   3.285 -0.0588  0.2163  0.0137
14203W        W30277  11.167   0.060   3.274  0.0250 -0.1216 -0.1149
14204W        W30278  14.556  15.598   5.960 -0.0405  0.0877  0.0396
14205W        W30279  14.440   3.432  15.151 -0.1483  0.0916  0.2319
14206W        W30280   1.766  14.647  13.176 -0.1632  0.1867  0.1634
14207W        W30281   5.862  11.885  12.693 -0.1584  0.0148  0.0643
14208W        W30282  14.470   3.998  15.051 -0.3647  0.0241 -0.1093
14209W        W30283  15.438  13.152   0.436  0.2958  0.2080 -0.0460
14210W        W30284   2.114  12.034  14.608  0.1564  0.0742 -0.0746
14211W        W30285  14.878  11.890   4.433 -0.2491  0.1220 -0.0606
14212W        W30286  15.684   7.691  13.166 -0.0354  0.1883 -0.0497
14213W        W30287  11.525   8.053  14.616  0.2387  0.1212  0.0658
14214W        W30288  17.161   8.396   2.561 -0.1160 -0.3961  0.1064
14215W        W30289   8.756   9.355  14.080 -0.0321  0.1690  0.2267
14216W        W30290  11.821  13.232   3.591  0.0063  0.0838 -0.0269
14217W        W30291   0.546  17.250   1.576  0.3082 -0.0249 -0.1006
14218W        W30292   9.031   5.262   5.092  0.0116  0.0133  0.2035
14219W        W30293  10.403   4.656   3.621 -0.2489  0.3162 -0.1949
14220W        W30294  15.604  14.926  15.694  0.0040 -0.5188 -0.1372
14221W        W30295   5.014  12.809  13.710  0.0784 -0.0423  0.1423
14222W        W30296   9.790   3.502  16.707 -0.1088 -0.1266  0.3183
14223W        W30297   5.188  14.556  15.799  0.2433  0.0158  0.1912
14224W        W30298   6.169   2.041   2.218 -0.0157  0.3070 -0.0953
14225W        W30299   3.840  16.214  14.380  0.0164 -0.0067 -0.1950
14226W        W30300   3.349   8.723  14.261 -0.0475  0.3234  0.0325
14227W        W30301   1.032   0.680  14.412 -0.1561 -0.2020 -0.2653
14228W        W30302  13.888   1.062   4.318 -0.0195 -0.0604  0.0855
14229W        W30303  15.748  12.621  16.558  0.1905  0.1156 -0.2606
14230W        W30304  14.997  17.251   2.727  0.0425 -0.1438 -0.0919
14231W        W30305  16.645  10.837   5.050 -0.0181 -0.1049 -0.2202
14232W        W30306   6.276   5.757  15.214 -0.0926 -0.1486  0.0032
14233W        W30307   8.445  15.241  12.195  0.0702 -0.1139 -0.1236
14234W        W30308   2.682  16.639   3.407  0.0414 -0.0125  0.0542
14235W        W30309  10.154  15.142  15.684 -0.0502  0.1858 -0.0550
14236W        W30310   0.573   6.819   0.171 -0.3261 -0.1116 -0.0712
14237W        W30311   5.961   0.570  13.850  0.0178 -0.3437  0.0503
14238W        W30312  10.767  11.696   1.509  0.1495 -0.0526  0.1141
14239W        W30313  11.795  10.540   5.761 -0.0521  0.1412 -0.2308
14240W        W30314   1.941  15.245   3.521  0.0849  0.2251 -0.0075
14241W        W30315   5.128   4.389  12.360  0.1525  0.1312  0.0609
14242W        W30316  10.950  14.565  15.545  0.1479 -0.0679  0.0103
14243W        W30317  10.156   9.671   5.587 -0.0328 -0.0254 -0.2295
14244W        W30318   2.577  12.272  16.048 -0.0843 -0.2350 -0.0017
14245W        W30319   3.280   9.207   3.766  0.1360 -0.1306 -0.0948
14246W        W30320   9.532  11.824   0.362  0.0624  0.1337  0.4239
14247W        W30321   9.468  15.595  12.729 -0.0370  0.1267 -0.2673
14248W        W30322   2.258   5.272  13.710 -0.1665 -0.1456  0.0613
14249W        W30323   4.972   6.015   0.757  0.1832 -0.2612 -0.2206
14250W        W30324   5.995  14.503   5.579 -0.0785  0.1965  0.0248
14251W        W30325  11.853   9.584  15.438  0.1617 -0.1751 -0.1199
14252W        W30326  16.349  15.308   1.938  0.2500 -0.0146  0.1133
14253W        W30327   4.482  12.024  15.841 -0.3439 -0.0705 -0.0647
14254W        W30328   9.917   9.349   4.659 -0.1416 -0.3708 -0.0893
14255W        W30329  17.357   4.956  15.124  0.0507 -0.2848 -0.0070
14256W        W30330   3.299  13.836   3.961  0.0861 -0.1051 -0.1836
14257W        W30331  16.018   9.207   4.892 -0.1029  0.0027 -0.0239
14258W        W30332   7.636   8.819  15.313  0.0476  0.0433  0.0715
14259W        W30333  13.848  10.354   2.181  0.1761  0.1970 -0.2109
14260W        W30334  16.389  13.020  13.216 -0.1186 -0.5871 -0.4048
14261W        W30335   0.063  12.181  15.503 -0.0808 -0.0091 -0.0966
14262W        W30336  16.402  12.486   1.105  0.0871  0.0739 -0.1360
14263W        W30337  12.007  16.004   0.975 -0.0077  0.0981  0.0458
14264W        W30338   1.551   7.032   2.599  0.1256 -0.1855 -0.0486
14265W        W30339   7.151   1.379   3.018  0.0505  0.0859  0.2280
14266W        W30340   5.607   8.549  16.316 -0.2123 -0.0817 -0.0665
14267W        W30341  11.528  14.420  17.089 -0.0351 -0.1334  0.4643
14268W        W30342  10.883  17.233  15.476  0.4591  0.2834  0.0543
14269W        W30343   2.508  16.956   6.175  0.0212 -0.2149  0.0094
14270W        W30344   5.083   0.992  16.994 -0.2323  0.2635  0.0324
14271W        W30345   2.553  14.651  14.825 -0.1984  0.1435 -0.0788
14272W        W30346   8.524   9.799  13.853  0.1760  0.1719  0.0318
14273W        W30347  17.207   7.915   2.588 -0.0230 -0.0841  0.1909
14274W        W30348   0.016   5.031  12.734  0.1313  0.0335  0.3036
14275W        W30349  11.942  12.234  15.147  0.0012  0.0212 -0.1371
14276W        W30350  16.711  13.755   2.704 -0.3360 -0.0227  0.0458
14277W        W30351   5.021   7.204  14.720 -0.2948  0.0298  0.2079
14278W        W30352   0.689  16.084  13.039 -0.0431 -0.1381  0.3835
14279W        W30353   3.503   4.792  16.756 -0.0237 -0.1596 -0.0235
14280W        W30354  17.454   5.017   0.466 -0.0936 -0.0058 -0.1037
14281W        W30355   9.026   7.463  17.130 -0.0218 -0.4396  0.2566
14282W        W30356   8.640   0.652  14.410  0.1193 -0.1406 -0.2078
14283W        W30357  12.961   3.662   3.363  0.1739  0.0996  0.1008
14284W        W30358  11.541   6.072  13.185 -0.1361 -0.0830  0.0653
14285W        W30359  16.243  12.730  16.603 -0.2644 -0.0808  0.1935
14286W        W30360   7.563  14.240   2.231 -0.2775 -0.2633 -0.0032
14287W        W30361   9.921   8.562  16.813  0.3316  0.0570  0.0379
14288W        W30362   9.839   2.528   5.833 -0.1186 -0.1392  0.3520
14289W        W30363   0.948   4.535  12.600 -0.3259 -0.0196  0.1439
14290W        W30364   6.407  17.633  13.110  0.0394 -0.0031 -0.2099
14291W        W30365   0.261  17.635   3.694 -0.1645  0.1155 -0.1147
14292W        W30366   3.874  12.731  16.754 -0.0762 -0.1693  0.0341
14293W        W30367   5.481   8.416   1.760  0.1120 -0.1037 -0.0076
14294W        W30368   6.917  15.357  12.748 -0.2336 -0.1656 -0.3007
14295W        W30369   8.106  10.516  14.172  0.2822  0.0273  0.1946
14296W        W30370   0.929   8.738   5.641  0.0912  0.0308 -0.1270
14297W        W30371  16.280   7.856  10.671  0.1572  0.1173  0.1789
14298W        W30372   0.076   7.079  12.986 -0.0830  0.3433  0.2860
14299W        W30373  17.021   6.475  15.540 -0.1530  0.0212  0.5354
14300W        W30374  10.832   6.201  17.158 -0.0872  0.1628 -0.1985
14301W        W30375   8.072   0.947   0.728  0.1862  0.0676  0.0901
14302W        W30376   5.618   5.547   4.475 -0.0951 -0.2234  0.2386
14303W        W30377  17.370   2.931  16.488  0.2131  0.0196  0.0956
14304W        W30378   1.862   9.409  15.003  0.1835  0.0108 -0.0047
14305W        W30379  12.695  16.046   3.764 -0.0194  0.0202 -0.0207
14306W        W30380   3.488   8.743   2.758  0.1315 -0.0449 -0.1082
14307W        W30381   3.251  15.378   6.204 -0.0705  0.2701  0.1255
14308W        W30382  16.899   5.069  13.843  0.0448 -0.0862  0.1137
14309W        W30383  16.667  13.331   5.565 -0.1341  0.1962  0.2200
14310W        W30384   0.191  15.706   1.536 -0.1416  0.1200 -0.0633
14311W        W30385  11.484   4.711   4.614 -0.2320  0.2168 -0.1345
14312W        W30386   9.374   8.114   2.046  0.1380 -0.3161  0.1291
14313W        W30387   8.318   8.316   2.311 -0.2741 -0.0703 -0.0287
14314W        W30388   6.278   1.094  15.376 -0.0145 -0.1828 -0.0034
14315W        W30389   4.401   7.641  13.153  0.0491 -0.0721 -0.4071
14316W        W30390  15.312   1.231   2.024 -0.0851 -0.0563  0.2644
14317W        W30391   4.351  13.379  14.088 -0.1061 -0.1470 -0.1138
14318W        W30392  17.072  17.488  14.808  0.0774 -0.0877 -0.1271
14319W        W30393  17.700   7.572  14.600  0.3055  0.1311 -0.2161
14320W        W30394  12.170   9.409   2.620  0.2093  0.3305 -0.0855
14321W        W30395   5.742   3.837  12.689 -0.0362  0.0034  0.1042
14322W        W30396   2.854  13.546   4.033  0.3034  0.2390 -0.0247
14323W        W30397   7.259   6.129   3.798  0.1089  0.0971 -0.0570
14324W        W30398   4.757   2.411   3.853  0.0011  0.2096  0.0581
14325W        W30399  16.496   0.673  13.622 -0.2523  0.0596  0.0394
14326W        W30400   6.961  16.002   6.135 -0.3964  0.1210  0.0900
14327W        W30401   4.348  12.801  15.682  0.0866 -0.1292 -0.5900
14328W        W30402   9.495   9.608   1.421 -0.2088 -0.0448 -0.0766
14329W        W30403   2.080   7.899  11.950  0.0086 -0.0676  0.0878
14330W        W30404   5.455   4.149   3.531  0.0209 -0.2318 -0.0010
14331W        W30405   2.891   9.095   1.056  0.2697 -0.1338  0.1812
14332W        W30406   8.659  13.181  14.534 -0.1964 -0.3197 -0.1509
14333W        W30407   3.415  13.404   2.217 -0.0483 -0.2967  0.0090
14334W        W30408  12.010   4.177   3.961  0.2339 -0.0840 -0.1719
14335W        W30409  11.767   8.316  15.508  0.1024  0.1607  0.2477
14336W        W30410  11.924   6.743  13.850 -0.2084 -0.1969  0.1815
14337W        W30411   6.030  16.828   1.526 -0.2019 -0.0840 -0.0538
14338W        W30412   1.184  10.714  15.568  0.1267  0.1414  0.1178
14339W        W30413   0.456   1.804  15.656  0.2790 -0.0380  0.0060
14340W        W30414  10.861  15.352  16.640 -0.1956 -0.0043 -0.0185
14341W        W30415   2.198  12.151   1.914 -0.0648 -0.1499  0.2010
14342W        W30416  14.518  16.213  14.238  0.1213 -0.1943  0.0801
14343W        W30417  14.205   8.478  16.202 -0.0617  0.0817 -0.0594
14344W        W30418  12.314   2.611  14.512 -0.2055 -0.2673  0.2799
14345W        W30419   5.876   1.678   3.534 -0.1638  0.0264  0.0729
14346W        W30420  16.187   8.911   1.116  0.1334 -0.1525  0.1698
14347W        W30421   7.520  11.874  14.890 -0.2171  0.0188  0.1111
14348W        W30422  17.143  14.482  10.923  0.2094 -0.0967 -0.0684
14349W        W30423  10.564  11.939   0.725  0.2787 -0.1651  0.0227
14350W        W30424  15.283   6.864   2.103  0.0033  0.3471  0.0283
14351W        W30425  12.872  15.186   2.664  0.0609  0.4463  0.4256
14352W        W30426   4.807   2.168   4.601 -0.2338 -0.0817  0.3466
14353W        W30427   5.242   9.291   1.709 -0.2566  0.0890 -0.2744
14354W        W30428   5.151   9.102   2.572 -0.2359  0.0767  0.0266
14355W        W30429   4.695  12.927  11.657 -0.2521 -0.3193 -0.3980
14356W        W30430  14.587  16.476   5.644  0.0023  0.3051  0.1316
14357W        W30431   0.202   9.502  13.503  0.0038  0.1424 -0.0573
14358W        W30432   7.539   0.972  12.942  0.1850  0.0643 -0.1570
14359W        W30433   3.513   9.149   4.662 -0.2966 -0.1986 -0.1527
14360W        W30434   0.449   9.300  12.375 -0.1952 -0.1253  0.0974
14361W        W30435   5.307  17.586   2.907  0.1245  0.0075 -0.2093
14362W        W30436  14.171   6.358  13.244  0.2091  0.0557  0.0696
14363W        W30437   0.115   2.266  14.257 -0.1092  0.0307  0.0675
14364W        W30438   2.713   2.638  15.947 -0.1024 -0.1982  0.0742
14365W        W30439  11.862  17.706  13.510  0.2354 -0.0886 -0.1815
14366W        W30440   3.404   1.634  13.124 -0.0817  0.1836  0.0664
14367W        W30441   8.379  12.520  15.138 -0.0845 -0.1895  0.1754
14368W        W30442  17.455  16.440   4.696 -0.1193 -0.1336 -0.0791
14369W        W30443   8.963  12.632  13.389 -0.1102  0.0032 -0.3144
14370W        W30444   2.807   0.100  15.949  0.1026  0.1670  0.0412
14371W        W30445  16.077   9.920  12.686 -0.1450 -0.0700  0.2480
14372W        W30446  14.807   6.702  12.170  0.0836  0.1858 -0.1882
14373W        W30447  14.484  10.679  13.788 -0.3555  0.1179  0.0918
14374W        W30448  12.136  10.867   5.584 -0.2306 -0.5098  0.0801
14375W        W30449  10.774   7.887  15.273  0.0865 -0.2062 -0.0485
14376W        W30450  17.042   0.951   3.317  0.1367  0.0020  0.0254
14377W        W30451   7.496   3.137  12.147 -0.3099 -0.0727  0.1342
14378W        W30452  13.478   8.928  13.895  0.2057 -0.0057  0.0388
14379W        W30453  13.653   4.364   2.475 -0.1076 -0.1965  0.3764
14380W        W30454   6.024   5.134   3.259  0.2974  0.4536  0.1458
14381W        W30455   8.615   2.108   0.997  0.4269  0.2716  0.0188
14382W        W30456  14.097  16.553   1.031 -0.2759  0.2927 -0.1834
14383W        W30457  17.631  13.461   0.635 -0.0996  0.6197  0.0207
14384W        W30458  17.508   9.188  12.713  0.2798  0.1026  0.2006
14385W        W30459   6.013   6.174  13.279  0.1617  0.1072  0.5786
14386W        W30460  11.444   6.626  12.521 -0.2151  0.3199  0.2890
14387W        W30461   1.270   5.503   0.692  0.2486 -0.1193  0.4046
14388W        W30462   8.975  17.303   1.518  0.1998 -0.2910  0.0586
14389W        W30463   9.512   1.970  14.325 -0.0849 -0.1847 -0.0437
14390W        W30464  11.748   5.133  14.250  0.0361 -0.0468 -0.2385
14391W        W30465   3.649  15.033  15.848 -0.1615  0.1089 -0.0032
14392W        W30466   6.304   3.833  11.705  0.1267  0.0115 -0.3294
14393W        W30467   2.605  10.332  16.390  0.0903  0.3886  0.0685
14394W        W30468  13.964  16.185   1.425  0.0901 -0.3519  0.0321
14395W        W30469   7.758  14.435   5.653  0.1535  0.2423 -0.2019
14396W        W30470   8.028   9.451  15.849  0.0812  0.2392 -0.1072
14397W        W30471  12.511  10.156  16.535 -0.3209  0.0798  0.1338
14398W        W30472   5.064  17.088   3.684  0.0607  0.0724 -0.2047
14399W        W30473  13.187   6.547   2.601 -0.0095  0.0214  0.0409
14400W        W30474   8.149  15.476  13.920 -0.0166 -0.2860 -0.1351
14401W        W30475   7.999  14.000  13.578 -0.0732 -0.0719 -0.0318
14402W        W30476   8.991  13.911   4.593  0.0505 -0.1883 -0.0445
14403W        W30477   3.570  12.965   4.001 -0.0866 -0.2445 -0.2898
14404W        W30478  13.081  15.302   0.433 -0.2490 -0.0443 -0.1229
14405W        W30479  10.617   5.705  14.654 -0.0535 -0.0898  0.1382
14406W        W30480   2.068  17.358  12.646 -0.2678  0.1078  0.2772
14407W        W30481  13.119  15.962  12.419 -0.2209  0.0464  0.0283
14408W        W30482   6.401   4.488  12.813 -0.4112 -0.2551 -0.0571
14409W        W30483  10.289   5.809  16.600  0.1062  0.3334  0.3863
14410W        W30484  16.329  15.621  17.090  0.2504  0.3106 -0.0881
14411W        W30485   7.330  16.001  16.519 -0.2255 -0.2495  0.0187
14412W        W30486  12.054   3.767   0.537 -0.0944 -0.0666 -0.1755
14413W        W30487  17.329   7.985  13.998 -0.1095 -0.0175 -0.4021
14414W        W30488   6.586   8.205  11.907  0.1756  0.1056  0.0463
14415W        W30489  12.434  12.042   1.799  0.2562  0.0659  0.0140
14416W        W30490   2.352  12.502  12.064  0.0255  0.2474 -0.0350
14417W        W30491  11.025  17.636   0.253  0.2362  0.0577  0.1749
14418W        W30492   8.663  11.006  12.948 -0.0010  0.4259 -0.1599
14419W        W30493   1.388  16.878   2.740  0.0043  0.0684 -0.2899
14420W        W30494   6.144  11.105   0.461 -0.2777  0.0547  0.2159
14421W        W30495  15.939   5.883  11.305 -0.1034  0.2360  0.1370
14422W        W30496   4.122  10.330  16.964  0.1669 -0.0413  0.2823
14423W        W30497  17.201   2.441   1.212 -0.1021 -0.2072  0.3164
14424W        W30498   9.457   5.701   3.859 -0.1659 -0.2206  0.1238
14425W        W30499  13.526   6.252   3.911 -0.0129 -0.0284 -0.2557
14426W        W30500  10.242   6.919  13.714 -0.0548 -0.1029 -0.1024
14427W        W30501  17.270   6.992  15.673  0.2189 -0.0394  0.1439
14428W        W30502   2.808  12.804   4.733 -0.0994 -0.2161  0.2901
14429W        W30503   7.691  11.605   5.804  0.1854  0.0008  0.4509
14430W        W30504   0.630   8.432  15.817 -0.1724 -0.0612  0.1637
14431W        W30505  16.647  15.671  11.931 -0.0708 -0.0715  0.3243
14432W        W30506   6.779   7.470   1.690  0.0672  0.3279 -0.1116
14433W        W30507  11.077   3.121  13.396  0.3130  0.2568 -0.0202
14434W        W30508   2.888  12.749  11.992 -0.1594 -0.0036 -0.0404
14435W        W30509  17.392   2.089  14.503 -0.3320 -0.1200 -0.0607
14436W        W30510  14.112   1.095   6.380 -0.0160  0.1793  0.2382
14437W        W30511  16.639   9.468  15.275  0.1334 -0.0940 -0.1561
14438W        W30512  16.116  16.343   3.993 -0.0486 -0.4027 -0.2240
14439W        W30513   1.608   7.070  12.964  0.3245 -0.1166  0.0897
14440W        W30514  16.092   0.078  11.488 -0.0843  0.2865  0.1773
14441W        W30515   2.277   3.194   3.597  0.1579 -0.2476 -0.0167
14442W        W30516   3.496   7.964   4.570 -0.0590  0.3141 -0.1188
14443W        W30517   0.735   0.682   5.568  0.3151  0.0737 -0.2034
14444W        W30518  15.237   7.639  14.785  0.0743  0.2070  0.0804
14445W        W30519  15.146   2.986   2.276 -0.0522  0.0526 -0.3687
14446W        W30520  11.194  15.175   3.409 -0.0702  0.0865 -0.2065
14447W        W30521  12.473   5.027   3.631 -0.0206  0.0279  0.0502
14448W        W30522  14.351  14.727  11.833  0.1793 -0.1245 -0.3754
14449W        W30523   7.446  15.476   1.357  0.3367  0.1037 -0.1856
14450W        W30524   1.145   6.650  15.837 -0.1001 -0.0766  0.0462
14451W        W30525   4.658   1.676   5.073  0.0871 -0.1213  0.2227
14452W        W30526   8.170   5.166  16.342  0.0639 -0.0098  0.0049
14453W        W30527   3.360   7.491   4.821  0.2113 -0.0626 -0.0279
14454W        W30528   7.191   2.083   3.803  0.1606  0.2419  0.1591
14455W        W30529  13.899   8.024   4.358  0.2010 -0.1146  0.1049
14456W        W30530  16.269  12.687  16.016  0.0727  0.2647 -0.2720
14457W        W30531  11.037   5.694   2.550 -0.1736 -0.2823  0.1549
14458W        W30532  17.354   8.814   6.239 -0.0577  0.2662  0.2689
14459W        W30533  16.714  15.418  14.078  0.2781 -0.3470 -0.1085
14460W        W30534  14.672  17.617   3.037  0.0825 -0.0201 -0.0633
14461W        W30535   2.838  15.248   1.816 -0.3673  0.0965 -0.3264
14462W        W30536  13.786   6.262  12.384  0.4972 -0.0412 -0.0322
14463W        W30537   4.053  13.136  14.468 -0.2071  0.1291  0.1056
14464W        W30538  13.438  17.467   1.967 -0.1451  0.0273  0.2662
14465W        W30539  15.700   5.851   4.231  0.0404 -0.1035  0.1555
14466W        W30540   1.327  14.435  13.197 -0.0194  0.2009  0.1792
14467W        W30541   8.776  12.967  16.901  0.4966 -0.1073 -0.0731
14468W        W30542  15.303  15.251  12.451 -0.0654 -0.1462  0.0289
14469W        W30543   6.519   4.318   3.510 -0.0199  0.2284  0.2865
14470W        W30544   8.021   6.793   3.139  0.2364  0.0810  0.0292
14471W        W30545  10.294  12.482   5.518 -0.1246 -0.3813 -0.3959
14472W        W30546   6.292   4.272   3.933  0.0422 -0.4476  0.2593
14473W        W30547  13.438  11.284  15.872  0.0880  0.0205 -0.0776
14474W        W30548   8.769  16.618   4.440 -0.0703  0.0744 -0.2770
14475W        W30549   6.876   0.473   0.269  0.1135 -0.1294  0.0273
14476W        W30550  15.917  14.729   5.093 -0.1270  0.3705 -0.2766
14477W        W30551   0.626  11.524   3.171  0.1536  0.0465  0.1226
14478W        W30552  17.099   7.081   4.270  0.0545  0.2442 -0.1794
14479W        W30553   2.724  14.888   5.161 -0.1081 -0.1387  0.1000
14480W        W30554  10.258   4.465  17.002 -0.0129 -0.3169  0.2451
14481W        W30555   4.382  14.932   1.020  0.3637  0.1318 -0.0125
14482W        W30556  16.926  12.053   2.418 -0.2403  0.1418 -0.0924
14483W        W30557  12.514  13.789   3.795 -0.0960 -0.1058 -0.2014
14484W        W30558  13.166   0.573   5.361 -0.1159 -0.0631  0.0818
14485W        W30559   7.671  13.926   4.666 -0.2466 -0.1006 -0.0178
14486W        W30560  12.450   9.358   4.389 -0.0224 -0.0752 -0.1915
14487W        W30561   1.256   0.653  17.005 -0.2296  0.0647 -0.1788
14488W        W30562  14.856  16.995   3.096 -0.2494  0.0605  0.0230
14489W        W30563   8.036   3.041   3.675  0.3108  0.0202 -0.1915
14490W        W30564  17.321   3.396   4.913  0.1847  0.1906  0.0749
14491W        W30565   8.499   1.305  16.234 -0.3377  0.0373  0.5220
14492W        W30566   6.596  11.113   4.413  0.1413  0.1088 -0.0111
14493W        W30567   9.162  13.444   1.625  0.3510 -0.3778 -0.2234
14494W        W30568   6.163   4.025  14.414 -0.2267 -0.3092 -0.1990
14495W        W30569   4.063   5.758   4.381 -0.1860  0.0461  0.0796
14496W        W30570   7.946   0.196   2.625  0.1273 -0.0713 -0.0223
14497W        W30571  15.766   6.089   0.915 -0.0439  0.2817 -0.1940
14498W        W30572  12.338  13.138   5.753 -0.0735  0.3224 -0.3440
14499W        W30573  16.984  16.863   2.936  0.3244  0.0373  0.0486
14500W        W30574   5.505   8.906  13.999 -0.2460  0.0272 -0.0384
14501W        W30575  10.948  16.313   1.095 -0.0264  0.0573 -0.0900
14502W        W30576  14.299   7.976  16.090  0.2140  0.2180 -0.3957
14503W        W30577   0.194  13.517   5.012 -0.0595  0.4359 -0.0509
14504W        W30578   1.286  13.137  15.486  0.0896 -0.2853  0.1120
14505W        W30579   2.214  10.531   5.307 -0.1379 -0.1701  0.1930
14506W        W30580   3.659   9.453  14.352 -0.0330 -0.1256  0.3204
14507W        W30581   0.535  14.232   0.944 -0.3409 -0.3978  0.2051
14508W        W30582  12.580  17.173   3.010  0.1493 -0.0412 -0.1521
14509W        W30583  16.896   0.359   3.550  0.0520  0.1597  0.0582
14510W        W30584  14.451   2.907   3.711  0.1238  0.3661  0.0130
14511W        W30585   0.101  15.866  12.877 -0.0758 -0.0719 -0.0718
14512W        W30586  17.439   6.289  15.034  0.1893 -0.1544  0.0384
14513W        W30587   2.901  14.368  15.108 -0.2770  0.2416 -0.0524
14514W        W30588   1.638   8.793   2.511 -0.1865 -0.1187  0.6089
14515W        W30589  13.090  13.361   1.783  0.1128 -0.0100 -0.0540
14516W        W30590  12.016   3.011  12.487 -0.0563 -0.0049 -0.1808
14517W        W30591  13.559   8.727   1.252  0.0518 -0.1734  0.0751
14518W        W30592   6.368   2.902  14.662 -0.1002  0.0244 -0.0290
14519W        W30593   6.184  15.872   0.035  0.2833 -0.1409  0.0875
14520W        W30594   5.014  16.294  13.229 -0.1894  0.0632 -0.2370
14521W        W30595   8.051  14.355  12.706 -0.1784 -0.0973 -0.0696
14522W        W30596   1.911  14.403  15.407  0.0907 -0.0539 -0.3784
14523W        W30597  16.651  11.431  12.551 -0.0358 -0.1226  0.2340
14524W        W30598  15.491   4.061   0.888 -0.3421 -0.0364  0.0609
14525W        W30599  11.219   0.744  13.700 -0.1365 -0.1532  0.2073
14526W        W30600   1.429  13.529   2.633  0.1450  0.2948  0.1546
14527W        W30601   4.595  10.236   2.533 -0.0083 -0.0378 -0.1256
14528W        W30602  13.478  14.636   4.962 -0.1716  0.0220 -0.0972
14529W        W30603  11.899  17.446   2.190 -0.0680  0.1912 -0.2363
14530W        W30604   5.187   5.812   2.187 -0.0749  0.1516 -0.0016
14531W        W30605   9.860   1.741  15.653  0.2144 -0.3865 -0.0659
14532W        W30606  14.787   6.153   5.997 -0.3307 -0.2166 -0.0036
14533W        W30607  11.471  10.151   4.465 -0.0083  0.2000 -0.0377
14534W        W30608   9.042   2.741  13.799  0.0094 -0.0252  0.0497
14535W        W30609   1.399  14.681  13.609  0.2497  0.0881 -0.2220
14536W        W30610  12.413   3.366   4.655  0.1220  0.0474  0.0799
14537W        W30611   0.759  14.642  15.877  0.1677  0.1525 -0.0430
14538W        W30612  12.881   1.669   0.125 -0.0489  0.0015  0.0322
14539W        W30613   3.918  12.279   0.835 -0.2042  0.0413 -0.0516
14540W        W30614  12.484  10.770   2.725  0.1037  0.0090 -0.1904
14541W        W30615  17.447  12.431  13.013  0.0384  0.0428 -0.1090
14542W        W30616   1.771   9.458   3.023 -0.0287 -0.2097 -0.0026
14543W        W30617   2.687   6.592  16.770 -0.0673  0.0025 -0.1554
14544W        W30618   1.427   5.042   0.563 -0.0758  0.1713 -0.2908
14545W        W30619  15.747   7.874  16.074 -0.1839  0.1116 -0.2557
14546W        W30620   8.915  17.301  15.926  0.1449  0.0419 -0.0729
14547W        W30621   7.009   9.438   2.015 -0.0216  0.0493  0.3259
14548W        W30622   0.415   0.324  13.353  0.0248 -0.2628 -0.1715
14549W        W30623  11.440  11.847   1.275 -0.0638  0.0285 -0.1334
14550W        W30624  15.319   7.403   1.317  0.1832  0.1886  0.0030
14551W        W30625  16.624  17.332  13.034 -0.2655 -0.3113  0.1565
14552W        W30626  13.112  12.105  16.045 -0.1251  0.1668  0.0353
14553W        W30627   9.430  14.101  13.378 -0.0283  0.0906  0.2522
14554W        W30628  13.523   3.314  14.002 -0.3072 -0.0649 -0.1007
14555W        W30629   7.400   3.555   4.682  0.1259 -0.1252  0.2510
14556W        W30630  17.083  10.306  13.149  0.0778  0.0345 -0.2258
14557W        W30631   6.767  13.613  16.818  0.2619 -0.2858 -0.0695
14558W        W30632   2.777   9.162  14.629 -0.0664  0.0393  0.0238
14559W        W30633   1.057   3.399   0.803  0.0825  0.3225  0.5395
14560W        W30634  10.764   1.511   1.763  0.2795  0.0253  0.4750
14561W        W30635  16.280  10.031  16.196 -0.0004 -0.0614  0.1574
14562W        W30636   7.791  14.609   4.035  0.1672  0.2789 -0.1922
14563W        W30637   8.456  17.572  14.421 -0.0333 -0.1251 -0.2987
14564W        W30638  11.146   6.663   0.752 -0.0339 -0.0531 -0.3410
14565W        W30639   3.934  16.335  15.870 -0.1027 -0.0236  0.0816
14566W        W30640   1.443  13.105   4.501  0.3101 -0.0842 -0.0179
14567W        W30641  16.889   0.020   4.037  0.1071  0.2591 -0.0256
14568W        W30642   9.638  16.896  16.346 -0.1756  0.0170  0.1251
14569W        W30643   4.970   6.374   2.590  0.0323  0.1777 -0.0362
14570W        W30644   8.202   7.076   3.587 -0.0599 -0.1154  0.0418
14571W        W30645   4.481   2.577   5.339 -0.1826  0.0621 -0.2374
14572W        W30646   3.705   1.486  14.648 -0.1660 -0.1980  0.0304
14573W        W30647   6.995  17.105   4.200 -0.2698 -0.3883  0.1090
14574W        W30648  17.194  15.211   3.688 -0.1740 -0.0055  0.1792
14575W        W30649   2.344   5.448   5.206 -0.0954 -0.0162 -0.0486
14576W        W30650   4.221  16.177  13.973 -0.1358 -0.1141  0.0745
14577W        W30651   9.262   6.143   0.705  0.1805 -0.2831  0.0694
14578W        W30652   6.710   9.466  12.580 -0.1237 -0.2007 -0.0059
14579W        W30653   8.243  16.565  11.660  0.0448  0.0285  0.2090
14580W        W30654  11.167  10.924  16.688  0.0511 -0.0180 -0.1040
14581W        W30655  12.232   2.507  15.739  0.0427 -0.0209 -0.0028
14582W        W30656  17.658  16.596   0.720  0.0101  0.1293 -0.0518
14583W        W30657   3.011   9.379  12.451  0.1417 -0.2589  0.1309
14584W        W30658   4.269  14.867   1.533 -0.3094  0.1087  0.3033
14585W        W30659   0.399   6.486   3.423 -0.1115  0.0345  0.1163
14586W        W30660   3.691   7.646   1.973 -0.1117  0.3079  0.2497
14587W        W30661   0.790   2.397  14.201  0.0595  0.0887 -0.5877
14588W        W30662   1.130  10.252  14.299  0.1434  0.2327  0.0399
14589W        W30663   1.470   0.719  16.515  0.0660  0.0210  0.1872
14590W        W30664   1.110  16.337  12.843 -0.1916 -0.2895  0.1043
14591W        W30665  14.584  12.482  12.981 -0.1950  0.0150 -0.2276
14592W        W30666  17.564  13.750   3.021 -0.1019  0.1546 -0.1188
14593W        W30667  14.308  10.244   3.801  0.1422  0.1916  0.0924
14594W        W30668  13.714   1.681   5.686 -0.1460 -0.0260  0.1401
14595W        W30669  11.896   5.949  17.115 -0.1036 -0.1318 -0.3595
14596W        W30670  17.075  15.754  14.125  0.0888 -0.2882  0.1625
14597W        W30671   1.489  11.813   4.167 -0.3765 -0.1734  0.1344
14598W        W30672   7.289   0.471  14.302  0.0652  0.2506 -0.0685
14599W        W30673   5.288   6.976  17.074 -0.0282  0.3404 -0.0617
14600W        W30674   4.224  10.498   6.263  0.0172 -0.2621  0.0839
14601W        W30675   8.970   3.987   0.329 -0.1125 -0.4259 -0.1303
14602W        W30676   1.653   3.966  12.776  0.0088 -0.3286  0.0189
14603W        W30677   8.566  17.436   3.033 -0.0703 -0.3711  0.0223
14604W        W30678   0.242   0.819  16.991 -0.0213 -0.0940  0.0661
14605W        W30679   3.228  13.596  12.558 -0.0815  0.1346 -0.3681
14606W        W30680  10.648  17.195  13.871 -0.1878  0.2727  0.0551
14607W        W30681  10.207   1.753   1.006 -0.2987 -0.2995  0.0025
14608W        W30682  15.107  17.724  16.897  0.0796 -0.1325  0.1259
14609W        W30683  10.321  17.256  15.248  0.0186 -0.1315 -0.1115
14610W        W30684  14.617  11.810   1.475 -0.0139  0.2335  0.0316
14611W        W30685  16.643   6.047  13.766  0.3315 -0.1162 -0.1920
14612W        W30686   2.704  11.240  14.174 -0.1169 -0.0444 -0.2143
14613W        W30687   4.037  10.283   0.306  0.2244 -0.3252 -0.1042
14614W        W30688   3.666  15.610  13.814 -0.1999  0.3121  0.3660
14615W        W30689   0.851  12.469  13.783  0.0428 -0.0635 -0.0129
14616W        W30690   3.332   8.466  11.459  0.1749  0.2482 -0.1221
14617W        W30691  16.371   3.088   4.668 -0.1143  0.0453  0.0785
14618W        W30692   5.011   5.946  12.123  0.3576 -0.2700 -0.2335
14619W        W30693  14.853   6.144  11.833 -0.1487  0.1479  0.0258
14620W        W30694  17.536  16.933  16.112 -0.3399  0.2302  0.0693
14621W        W30695   1.079   0.507   1.905 -0.1483 -0.2834 -0.3667
14622W        W30696  15.034   1.061  13.272  0.2961 -0.5591 -0.0210
14623W        W30697   0.024  16.015   6.606 -0.1076  0.1047 -0.0635
14624W        W30698   8.088  16.293   1.334 -0.0156  0.1876  0.2636
14625W        W30699   7.485  13.885  13.390 -0.2611 -0.2172  0.2661
14626W        W30700  13.808   0.007  17.059 -0.2415  0.0049 -0.0357
14627W        W30701   4.029   0.220  12.100 -0.0649  0.0326 -0.2312
14628W        W30702   5.127   5.433   1.144  0.1526 -0.0209  0.0260
14629W        W30703   2.320   0.352  14.854 -0.1495 -0.0255 -0.0726
14630W        W30704  13.146   2.438  13.965 -0.1545  0.1868  0.6497
14631W        W30705   9.658   0.238  14.397  0.3007 -0.3272 -0.1800
14632W        W30706  15.228  12.241   5.768  0.3195  0.0634 -0.1733
14633W        W30707   5.767   5.620   3.325  0.1833  0.0073 -0.0361
14634W        W30708  15.583  17.656  17.002  0.0796 -0.1655 -0.1534
14635W        W30709  11.073  10.478  13.421  0.0077 -0.0377  0.0736
14636W        W30710  14.916   4.555   0.388  0.1085  0.1000  0.0116
14637W        W30711  16.675  12.598  13.174 -0.1472  0.2417 -0.0191
14638W        W30712   6.949  17.145  12.355 -0.0062  0.1423  0.3725
14639W        W30713   0.741   0.698  16.973  0.1092 -0.1545  0.0105
14640W        W30714   7.848  12.048   2.766  0.1763  0.2761  0.0960
14641W        W30715   3.191   2.751  15.775  0.0482 -0.1844 -0.1439
14642W        W30716   0.710   7.759   5.042 -0.1685 -0.1540  0.0672
14643W        W30717  10.704  17.420   0.661 -0.1553  0.1065 -0.0194
14644W        W30718  14.824  11.914  15.471  0.3355 -0.1218  0.2218
14645W        W30719   0.902  13.492  14.653 -0.2670 -0.1599 -0.0298
14646W        W30720  15.651   4.304   4.810  0.1652 -0.0366 -0.1380
14647W        W30721  12.957  10.955  11.731 -0.2585  0.0153  0.3145
14648W        W30722  11.008   4.425  11.662 -0.0166  0.0529  0.2868
14649W        W30723  13.672   8.991   1.753  0.1102 -0.0088 -0.3252
14650W        W30724   2.101   4.615   3.187 -0.1603 -0.1215 -0.0098
14651W        W30725  10.672  10.357   2.365  0.2401  0.2274 -0.0189
14652W        W30726   2.679   2.139  15.025 -0.0143 -0.1178  0.0120
14653W        W30727   9.441   6.877  16.499 -0.0398 -0.2064 -0.3109
14654W        W30728  14.551   7.183   1.701 -0.2464 -0.1613  0.0435
14655W        W30729   6.869  15.933   0.865 -0.0318 -0.2693 -0.3040
14656W        W30730  13.727   3.443   1.948  0.4280 -0.1506 -0.1450
14657W        W30731   8.819   6.575   5.231  0.2663 -0.1908 -0.2302
14658W        W30732   1.227   5.750   1.177  0.0307 -0.0595 -0.2151
14659W        W30733   0.063   4.855  16.786  0.1470 -0.1156  0.0003
14660W        W30734   7.241  14.782  16.479  0.0245 -0.0945  0.0799
14661W        W30735   9.458   8.038   3.145  0.5564  0.4766 -0.1873
14662W        W30736  16.102  11.781  14.461 -0.1120 -0.0777  0.1010
14663W        W30737   6.291   8.860  11.477 -0.0970  0.1929  0.0525
14664W        W30738   5.825   2.673  16.003 -0.0455  0.3069 -0.1372
14665W        W30739  17.477  16.600  12.558 -0.2011 -0.0259 -0.0859
14666W        W30740   7.182   6.489  12.558  0.1941  0.1947  0.0434
14667W        W30741   8.918   1.744   4.746  0.0141  0.0838 -0.1301
14668W        W30742  15.336  16.625  15.697  0.1869  0.0272 -0.3698
14669W        W30743   5.976   6.303  14.776 -0.0138  0.0527 -0.0159
14670W        W30744  13.762   4.222   0.251 -0.2373  0.0773 -0.1200
14671W        W30745  10.811   3.473  14.948  0.0784 -0.0819 -0.0563
14672W        W30746   8.571   2.036   0.529  0.0326 -0.1468  0.1231
14673W        W30747   8.758   0.130  14.736  0.2638  0.4637  0.2693
14674W        W30748  14.453   9.574  12.416 -0.1608 -0.0398 -0.1647
14675W        W30749   1.085   6.173   2.940  0.1016  0.2333 -0.1486
14676W        W30750   2.621   2.790   4.680 -0.0653  0.1286  0.0218
14677W        W30751   0.044  12.414  15.034  0.2583 -0.0646  0.0354
14678W        W30752  11.795   4.201   3.452  0.0982  0.1860 -0.0626
14679W        W30753  10.313  11.369  14.605  0.2107 -0.0122  0.0022
14680W        W30754  11.792   6.518   2.991  0.0349 -0.1318  0.1367
14681W        W30755   4.704  11.603   0.888  0.2422 -0.0269  0.3002
14682W        W30756  10.842   8.092   1.301 -0.1930  0.1753  0.1723
14683W        W30757   9.877   8.633  13.472 -0.0196  0.0772  0.1947
14684W        W30758  17.267   5.032   1.223  0.1091  0.1826 -0.2408
14685W        W30759  17.324   9.155   4.611 -0.1006 -0.0025 -0.0610
14686W        W30760  10.510   3.453   6.274  0.1012 -0.1011 -0.2497
14687W        W30761   0.073   8.213  14.458  0.6271  0.2835  0.3469
14688W        W30762   8.697   1.238  13.610 -0.0207 -0.2307  0.1064
14689W        W30763   8.197  11.174  12.807 -0.2323  0.1400 -0.1772
14690W        W30764  14.619   4.714   2.557  0.2271 -0.1446 -0.1957
14691W        W30765   4.843   0.206  14.441  0.0329  0.1790 -0.1908
14692W        W30766  17.117   0.591  15.158  0.3889 -0.1140  0.3739
14693W        W30767   5.034  17.726  11.833  0.2091  0.2848 -0.1908
14694W        W30768   8.086   1.476   3.936 -0.0726  0.0338  0.2746
14695W        W30769  15.315   3.578   0.369 -0.0618  0.2995  0.1902
14696W        W30770   1.915   5.231  14.648  0.0607  0.1415  0.0304
14697W        W30771  12.747   5.472   2.370 -0.0091  0.0603  0.2169
14698W        W30772  15.651  16.059  12.806 -0.0657  0.1004  0.0789
14699W        W30773  10.885   4.530   3.553  0.0654  0.1682 -0.2392
14700W        W30774  14.164  11.749  13.799  0.2897  0.0535  0.0390
14701W        W30775  10.293  13.485  16.127 -0.0491  0.0805 -0.3015
14702W        W30776   3.883  11.079  13.348 -0.0422 -0.5739  0.1781
14703W        W30777   9.068   4.714   5.018  0.3256  0.0422 -0.1522
14704W        W30778   3.060   9.577   4.516 -0.0492 -0.0880 -0.0704
14705W        W30779   3.203  11.743  13.525 -0.3154  0.0192  0.0437
14706W        W30780  14.156   6.562   4.663 -0.1582 -0.2709 -0.1866
14707W        W30781  13.562  14.121  14.869  0.2661  0.3659  0.3518
14708W        W30782  17.623   9.615   5.842 -0.0298 -0.0753  0.0972
14709W        W30783   1.560   4.883   2.333  0.1872 -0.0850 -0.1324
14710W        W30784  10.146  16.040   5.857  0.0160  0.0955 -0.2004
14711W        W30785   6.298   8.720   2.993 -0.1260  0.3035  0.0520
14712W        W30786  16.482   5.611  12.993 -0.0563  0.0655 -0.1024
14713W        W30787   8.487   4.777   5.021 -0.4170 -0.0299  0.2370
14714W        W30788   3.203   2.105  15.280 -0.0881  0.0937 -0.3020
14715W        W30789   9.635  12.881  14.616  0.0528 -0.0970 -0.1233
14716W        W30790  11.166  16.228   3.536 -0.2708 -0.0457  0.0824
14717W        W30791   8.532  12.621  12.633 -0.0765 -0.1770  0.0407
14718W        W30792   8.561   2.922   0.553  0.3398 -0.3184 -0.1115
14719W        W30793  12.229  12.166  12.824 -0.1093 -0.2377 -0.0623
14720W        W30794  11.626   3.362   3.208  0.0540 -0.0251  0.2630
14721W        W30795   5.435   2.681  13.228 -0.0250  0.1954 -0.2394
14722W        W30796   8.948  17.384  11.769  0.0983  0.1094 -0.0044
14723W        W30797  15.928   5.076   5.329 -0.1995  0.0898 -0.0689
14724W        W30798   6.824   0.946   3.806  0.1274  0.0987 -0.0284
14725W        W30799   3.075   1.911   2.667  0.1324 -0.0504 -0.4785
14726W        W30800  14.547  11.543   1.089 -0.0075  0.1257 -0.0930
14727W        W30801  11.375   2.481  12.953  0.3142  0.0086 -0.3139
14728W        W30802   7.026  16.456  16.427  0.0424  0.0319 -0.1715
14729W        W30803  13.180   3.901  15.729  0.0241  0.2041  0.0447
14730W        W30804  11.883   6.778   2.223 -0.0756  0.0873  0.2634
14731W        W30805  15.113  12.255   0.014  0.5903 -0.0318 -0.0206
14732W        W30806   2.786   0.580   0.274  0.0378  0.2122 -0.2432
14733W        W30807   2.969  11.203   5.433 -0.1979  0.0102  0.1670
14734W        W30808   8.975   4.259   1.274 -0.2927 -0.1494  0.1447
14735W        W30809   4.035   9.125   2.814  0.0993 -0.0011 -0.3636
14736W        W30810  14.626   3.270  16.961 -0.1473 -0.1847  0.2253
14737W        W30811   2.555   0.972   0.486 -0.1222 -0.0779 -0.1023
14738W        W30812  15.955   9.028   0.636  0.3647  0.3047 -0.2679
14739W        W30813  14.874   2.619   3.085 -0.1688 -0.4754  0.1482
14740W        W30814  16.775   1.472  12.783  0.0351  0.0986  0.1753
14741W        W30815   9.935  16.785   3.645 -0.2246 -0.3385  0.0441
14742W        W30816  15.816   6.054   1.467 -0.0996 -0.3479  0.1637
14743W        W30817   1.390   6.657  11.548  0.4403  0.0801 -0.1508
14744W        W30818  10.319  14.612  14.893  0.0449  0.0509 -0.0204
14745W        W30819   6.974  13.267   3.254 -0.2725  0.1872 -0.0669
14746W        W30820   0.871   4.825   5.761 -0.0704  0.0604 -0.0414
14747W        W30821  12.994   7.007   3.977 -0.1012  0.2591  0.2148
14748W        W30822   1.652   4.876  16.674 -0.0296 -0.0833 -0.3491
14749W        W30823  10.226   6.320  13.062  0.1113  0.5288 -0.3263
14750W        W30824   0.799   9.293   3.423  0.1867  0.2185  0.1294
14751W        W30825  15.360   7.302   4.616  0.1397 -0.1069 -0.1033
14752W        W30826   0.909  13.808  12.805 -0.2045  0.0832 -0.0575
14753W        W30827   8.605   2.427  14.914  0.1665 -0.0135  0.0150
14754W        W30828  11.119   6.656   1.259 -0.0150  0.0189  0.2027
14755W        W30829   9.010  17.258   0.103  0.2874  0.0140  0.0119
14756W        W30830   6.661  13.961   2.541  0.3565  0.4092 -0.2506
14757W        W30831   2.780  11.320  12.483 -0.1025 -0.1054 -0.0126
14758W        W30832  16.856  14.011  12.544 -0.0551  0.1495  0.0062
14759W        W30833  14.631  17.231   3.592  0.0058  0.0734 -0.2863
14760W        W30834  10.733  10.600   0.405 -0.1302  0.1588  0.2871
14761W        W30835   2.663   1.425   5.787 -0.0894  0.1745 -0.2803
14762W        W30836   7.420   6.437  15.225 -0.4922  0.0492 -0.0332
14763W        W30837   6.685   3.177  15.926  0.3153 -0.2148 -0.3304
14764W        W30838  11.688   9.427   4.106  0.2377 -0.2277  0.1442
14765W        W30839   6.620   3.392   1.127 -0.0799  0.1175  0.3839
14766W        W30840   1.246   0.099   3.104  0.0366  0.2601 -0.0060
14767W        W30841   3.634   7.434  16.715  0.1002  0.3028  0.0361
14768W        W30842  15.952  14.862  16.011  0.0640  0.0421 -0.0853
14769W        W30843   6.472  14.881  13.869 -0.2864 -0.0236  0.1209
14770W        W30844   5.003   7.969   3.432  0.2769  0.2121  0.1724
14771W        W30845   1.891  17.009  15.333 -0.0826 -0.0726 -0.5333
14772W        W30846  12.547   2.039   2.181  0.0568  0.1700  0.1566
14773W        W30847  11.827   7.376  13.812  0.0437 -0.2178 -0.1289
14774W        W30848  13.786   4.563  13.948 -0.0555 -0.0315  0.4579
14775W        W30849  14.372  13.228  16.575  0.0447  0.0940  0.2905
14776W        W30850   6.671   3.678   4.648 -0.0725 -0.2808  0.0969
14777W        W30851   7.327  14.228   1.783 -0.1729 -0.0773  0.0625
14778W        W30852   3.361   2.644   3.164  0.1074 -0.0778 -0.1108
14779W        W30853   9.174  17.026   1.143 -0.0495  0.0199 -0.0989
14780W        W30854   8.738  11.225  14.555  0.0059 -0.0649 -0.3652
14781W        W30855   2.956   0.601   4.624 -0.3547  0.0653  0.2804
14782W        W30856  10.187   6.157   1.330 -0.0472 -0.1571  0.1778
14783W        W30857   6.649   5.953   1.175 -0.0170 -0.0059 -0.2208
14784W        W30858   1.598  13.333  15.990  0.1832  0.1384 -0.0572
14785W        W30859   9.376   2.022   1.287 -0.2481 -0.0048 -0.2152
14786W        W30860  13.641   6.901  15.228 -0.1446  0.1687  0.1521
14787W        W30861  11.929   5.907   2.581 -0.1591  0.3534  0.0264
14788W        W30862   5.791   7.141   0.560 -0.1115  0.1671  0.0689
14789W        W30863   3.346   2.730   2.137 -0.1111  0.1137  0.0050
14790W        W30864  11.872   4.608   2.264  0.2369 -0.2031  0.0808
14791W        W30865   6.703   6.117  14.468 -0.1096  0.0789 -0.1133
14792W        W30866   0.029   0.836   4.146 -0.1030  0.1515 -0.1274
14793W        W30867   7.103  14.169  16.674 -0.0334 -0.0673  0.0865
14794W        W30868   3.006  17.206   1.888  0.1951 -0.0728 -0.2066
14795W        W30869  11.303   9.237   4.382  0.3567 -0.1287 -0.3142
14796W        W30870  17.314   2.433  16.447  0.1659  0.0830 -0.5019
14797W        W30871  11.499   5.222   4.269  0.0118 -0.2944 -0.1484
14798W        W30872   6.441   9.189   0.154 -0.0402 -0.2731  0.0521
14799W        W30873  12.250  11.372   3.605  0.0999  0.0264  0.1626
14800W        W30874   7.954   6.498  13.217 -0.3539  0.1857  0.1907
14801W        W30875   4.499  16.370  16.834 -0.4097  0.1759 -0.2194
14802W        W30876   5.212   6.530   4.281  0.0202  0.1775 -0.0129
14803W        W30877  14.234  17.249   5.619  0.1911  0.1808 -0.5146
14804W        W30878  13.740   7.875  11.772  0.1268 -0.1159  0.2447
14805W        W30879  14.981   2.213   5.228 -0.2704 -0.1034  0.0391
14806W        W30880  12.176  14.475   0.882  0.1190 -0.0477 -0.0114
14807W        W30881   5.679   6.870   2.978 -0.0647 -0.2093  0.0592
14808W        W30882  17.504   8.173  15.351 -0.1876  0.1573  0.1707
14809W        W30883   0.071  16.046   5.320  0.1076  0.1878  0.1247
14810W        W30884   9.401  14.533  16.525  0.0216 -0.2432 -0.2267
14811W        W30885  12.024  12.945   6.125  0.0280  0.1667 -0.0347
14812W        W30886   9.551   0.342   0.010 -0.1043  0.1161 -0.1461
14813W        W30887   6.525   4.109  15.677 -0.3712  0.0739  0.2133
14814W        W30888   7.529   5.423   3.128 -0.0146 -0.1745 -0.0027
14815W        W30889  14.459   4.247  14.099 -0.1515 -0.2793 -0.2066
14816W        W30890   6.565   1.953  16.990 -0.2360  0.0377  0.1433
14817W        W30891   7.523   0.750   4.346 -0.1734 -0.1803  0.0868
14818W        W30892  16.160   3.291  15.436  0.0017  0.4085  0.1077
14819W        W30893   2.119   8.687  14.028 -0.0389 -0.0971  0.0308
14820W        W30894   6.923  11.008  15.727  0.3282  0.1439  0.0506
14821W        W30895   1.737  16.863  14.873 -0.2827  0.0478 -0.2843
14822W        W30896   1.632   3.752  14.646 -0.0488  0.1759 -0.1558
14823W        W30897   7.003  12.179   6.461 -0.1401  0.1114  0.0343
14824W        W30898   0.356   8.219   3.197  0.0826 -0.0979 -0.0767
14825W        W30899   0.266  11.002  11.729  0.1815 -0.0612  0.2067
14826W        W30900  14.441  11.034  14.155  0.0541 -0.0034  0.2770
14827W        W30901  17.357  12.518  13.525  0.0006  0.3303 -0.0725
14828W        W30902   1.907  13.208  13.090 -0.3067  0.0487  0.1243
14829W        W30903  10.667  12.806  15.529  0.2439  0.0731 -0.4960
14830W        W30904   6.044  15.229   4.552 -0.0206 -0.3534 -0.1184
14831W        W30905  11.642   9.629   2.728 -0.0971 -0.2632 -0.3511
14832W        W30906   9.704   2.223   3.563  0.0177 -0.0737 -0.3661
14833W        W30907  10.082   8.153   0.360  0.1330  0.5173  0.1951
14834W        W30908   6.384   3.044   3.535  0.2535 -0.0262  0.1640
14835W        W30909  10.304  14.404  15.420  0.3034  0.2637 -0.3010
14836W        W30910  14.810  16.983  14.913 -0.2301 -0.0627  0.2991
14837W        W30911  13.451  15.208   0.731 -0.1764 -0.0210  0.0228
14838W        W30912  14.490   0.401   3.927 -0.0181  0.2734 -0.4613
14839W        W30913   2.621   6.721   1.916 -0.2287 -0.1072 -0.2341
14840W        W30914   1.197  10.024   6.053  0.1175  0.0473  0.1033
14841W        W30915  14.063   9.229   1.192 -0.0502  0.2377 -0.3226
14842W        W30916  14.412   7.760  15.643 -0.1261 -0.0079 -0.3936
14843W        W30917   1.218  10.152   0.199 -0.1230  0.1646  0.1903
14844W        W30918   1.644  12.808  16.429 -0.0421  0.0813  0.2551
14845W        W30919  17.011  10.605   4.803 -0.0598 -0.1712  0.0295
14846W        W30920  16.662   8.595   0.136 -0.0044  0.1340  0.0795
14847W        W30921   8.333  17.659  14.904  0.1094 -0.0846 -0.0022
14848W        W30922  14.940  11.975  12.398  0.0943  0.1805 -0.3333
14849W        W30923   6.008  14.843  13.481  0.0357 -0.0423  0.3338
14850W        W30924   0.474   2.281  16.418 -0.0276  0.0925  0.0240
14851W        W30925  13.495  15.717  15.476  0.0242 -0.1891 -0.0307
14852W        W30926  12.406  10.686   0.900  0.1987 -0.1198  0.0500
14853W        W30927  10.795   8.056   0.303 -0.2143 -0.0271 -0.0271
14854W        W30928   1.067   9.724  11.548  0.0949 -0.2056 -0.1687
14855W        W30929   5.681   7.634   3.269  0.3913 -0.1823  0.0547
14856W        W30930   1.227   0.754   0.766 -0.0466 -0.1829 -0.2224
14857W        W30931  15.252  12.639  14.769  0.0500 -0.0769 -0.0155
14858W        W30932   3.895  15.204  14.123  0.0686  0.2212 -0.1996
14859W        W30933   2.660  11.671   1.254 -0.3779  0.1849 -0.3419
14860W        W30934  15.080   8.724  12.239  0.0500 -0.0233 -0.1872
14861W        W30935   9.216  10.469  14.169 -0.0618  0.0135  0.0014
14862W        W30936   9.705   1.930   4.894 -0.2310 -0.3923  0.1299
14863W        W30937   5.291   0.466  13.034  0.4343  0.0850 -0.0142
14864W        W30938  13.119   8.688  11.802 -0.1885 -0.2008  0.2615
14865W        W30939  16.415   8.351   4.940  0.1925  0.1092  0.0805
14866W        W30940  17.734  12.442  16.389  0.5188  0.1649  0.3339
14867W        W30941   9.207  15.669   4.027 -0.0771 -0.1162  0.2483
14868W        W30942  15.819  13.128   2.006  0.1128 -0.1420  0.0992
14869W        W30943   9.293   0.391   2.249 -0.0576 -0.3416  0.2913
14870W        W30944  16.999  16.630   0.158  0.1248 -0.0929  0.1527
14871W        W30945  16.016   6.881   1.397 -0.2149 -0.1406 -0.2932
14872W        W30946   6.585   3.529   2.472  0.2970 -0.1485 -0.0328
14873W        W30947  11.815  13.846  12.585 -0.2613  0.2142 -0.0360
14874W        W30948   9.960   6.872  15.116 -0.0064  0.1247  0.3185
14875W        W30949  16.244  13.862   5.082  0.1271 -0.0906 -0.0209
14876W        W30950  16.704   3.051   3.746 -0.0048 -0.0458 -0.1073
14877W        W30951  10.502   7.165   3.889  0.1374  0.0642  0.0092
14878W        W30952   9.733   9.024   4.337  0.0661  0.0230 -0.3469
14879W        W30953  13.248   4.062   0.078 -0.0219  0.4404  0.0593
14880W        W30954  13.431  12.377   0.663 -0.0483 -0.3083  0.2600
14881W        W30955  13.678  16.802  12.719 -0.0427  0.0809 -0.2653
14882W        W30956  15.975   5.201  13.758 -0.0651  0.0139 -0.3247
14883W        W30957   3.678   2.624  15.519  0.1487  0.3998 -0.4186
14884W        W30958  16.636   0.517  11.844  0.0886  0.2741 -0.1949
14885W        W30959   0.618  13.451   5.305 -0.0352 -0.0343  0.0233
14886W        W30960  13.884  13.754   5.230  0.1438 -0.0749  0.1410
14887W        W30961  14.704   5.415  14.997 -0.2483  0.3733 -0.3516
14888W        W30962  14.008   4.080   6.019 -0.3179  0.0086  0.0363
14889W        W30963  10.635   0.683  15.909  0.0797  0.2522 -0.2349
14890W        W30964   2.450  13.925  15.983 -0.1724  0.1599  0.1368
14891W        W30965   5.635   2.004   0.594 -0.0197  0.1882  0.0137
14892W        W30966  10.947   6.489   3.437  0.1938  0.1712 -0.0399
14893W        W30967   2.586  17.404   0.850  0.0167  0.1060 -0.1145
14894W        W30968  11.038   5.961   3.472 -0.1896 -0.0626  0.1471
14895W        W30969   9.172   2.868   5.044  0.0062  0.1945  0.0361
14896W        W30970  15.979   4.581   5.573 -0.2488  0.0517 -0.0160
14897W        W30971  14.388   2.230   4.523  0.2268  0.0639  0.2049
14898W        W30972   3.338  17.731  15.162  0.3613  0.2227 -0.0196
14899W        W30973   0.502   2.199   0.235 -0.0681 -0.1134  0.2763
14900W        W30974  13.958   4.482  12.327 -0.0736  0.1214 -0.1807
14901W        W30975   3.095   3.227  16.806  0.1811  0.1456 -0.0190
14902W        W30976  10.161   5.898  12.220 -0.0808 -0.2426 -0.0283
14903W        W30977   0.059   9.214  15.765  0.2061 -0.2357 -0.0262
14904W        W30978   0.612   0.436   2.004  0.1515  0.2630  0.1395
14905W        W30979  12.818  12.768   1.095 -0.2913  0.1879  0.2306
14906W        W30980  15.580   7.948   0.701  0.1514  0.0924  0.0901
14907W        W30981  11.147   5.998  15.658 -0.3004  0.1083  0.0339
14908W        W30982  16.924   6.927   1.530 -0.1741  0.0484 -0.0165
14909W        W30983  13.262   3.713   5.561 -0.1326 -0.0669 -0.0518
14910W        W30984   4.070   1.971   3.066  0.0350 -0.0365 -0.3308
14911W        W30985   2.477   5.657   1.889 -0.0138  0.2325 -0.3991
14912W        W30986  16.459  16.588  16.719 -0.1767 -0.1833  0.1042
14913W        W30987  17.066   6.708  11.904  0.1348  0.1911  0.1114
14914W        W30988  12.478   6.525   5.135  0.1169  0.0915 -0.0106
14915W        W30989   4.524   1.056  11.777 -0.0922  0.0931 -0.0602
14916W        W30990  14.296   1.297  14.055  0.2250 -0.1364 -0.0688
14917W        W30991   4.735   9.771  15.762  0.0013  0.1993 -0.0748
14918W        W30992   9.885  13.029  13.318 -0.0073 -0.0305  0.2796
14919W        W30993  13.950   8.825  16.569  0.0080 -0.0753 -0.2461
14920W        W30994  14.938   7.696  12.123 -0.0014 -0.1144  0.3109
14921W        W30995  13.252  14.147  15.754  0.2441 -0.1153 -0.1044
14922W        W30996   0.211  15.713  13.949  0.0657  0.0538 -0.0602
14923W        W30997   8.514   2.880  16.703  0.1573 -0.0981 -0.0922
14924W        W30998   7.629   4.237  14.488  0.0852 -0.1422 -0.0161
14925W        W30999  14.613   7.415   3.968  0.0086  0.1861  0.1172
14926W        W31000  14.793  13.577  13.679 -0.1752  0.1564  0.1704
14927W        W31001   5.591   6.468   2.684  0.0993 -0.1759  0.0536
14928W        W31002   5.806   8.965   3.074 -0.1133 -0.0159  0.0156
14929W        W31003   8.636  13.503   4.734 -0.1180  0.0088 -0.1186
14930W        W31004   1.517  14.961   3.363  0.0172  0.3284 -0.3116
14931W        W31005  16.348   8.033  11.222 -0.0988 -0.1496 -0.1242
14932W        W31006   0.607  16.091   1.263 -0.1378 -0.1171 -0.0716
14933W        W31007  15.439   5.291   6.008 -0.1639  0.2410  0.1862
14934W        W31008   4.832  15.923  12.966 -0.0494 -0.1778 -0.3715
14935W        W31009   3.030  13.177  16.225 -0.1538  0.2259  0.0307
14936W        W31010  15.801   3.072  11.813  0.2512 -0.0990 -0.0362
14937W        W31011  11.107  15.229   4.996  0.0802  0.0852  0.1603
14938W        W31012   0.021  10.750   5.063 -0.0125  0.1663  0.0822
14939W        W31013  17.501  17.475   3.788 -0.2468  0.2296 -0.0183
14940W        W31014   5.853  13.250   1.321 -0.2633 -0.0724  0.2592
14941W        W31015  15.255   2.943  13.665  0.4457 -0.0775 -0.2364
14942W        W31016   3.776  14.047   4.733  0.0101 -0.1098  0.0465
14943W        W31017   5.742  14.489  13.210  0.2847 -0.2116 -0.0871
14944W        W31018  13.640  11.657  12.633 -0.0029  0.1245  0.0461
14945W        W31019   7.672   6.891   2.648 -0.0436 -0.2745 -0.0503
14946W        W31020   7.283  12.530   1.275 -0.1780  0.1421  0.0012
14947W        W31021   0.972  11.908  15.202  0.0738 -0.0819 -0.0915
14948W        W31022  11.781   8.293   5.172  0.4475  0.1456 -0.1024
14949W        W31023   5.017  10.459   5.884 -0.5191 -0.3204 -0.3068
14950W        W31024   5.425   2.576  12.249  0.2573  0.4092 -0.0478
14951W        W31025  17.316  13.284  13.047  0.2740 -0.1287  0.1527
14952W        W31026   6.448  11.462   6.386 -0.0821 -0.1139  0.4169
14953W        W31027   5.332   7.019   4.303 -0.1754 -0.1407  0.1933
14954W        W31028  11.865   8.630   3.432 -0.0243  0.1170  0.2131
14955W        W31029   7.748   0.285  11.546  0.4750 -0.1581  0.0901
14956W        W31030  10.601  12.653  13.405 -0.1344  0.0443 -0.1560
14957W        W31031  17.204  14.581   2.829 -0.0178  0.0903  0.0777
14958W        W31032  13.078   5.937  13.945 -0.0371 -0.0746 -0.0831
14959W        W31033   4.934  13.585   0.345  0.0774  0.1340  0.1229
14960W        W31034   6.108  14.707   1.195 -0.0053  0.0375  0.0152
14961W        W31035  15.289   7.146   0.171 -0.0339 -0.0306  0.0246
14962W        W31036  17.158   9.190   0.609 -0.0879  0.1766  0.1179
14963W        W31037   1.626  17.656   6.017 -0.1378  0.0177 -0.2982
14964W        W31038   7.959   6.112  12.765  0.2363 -0.3564  0.1499
14965W        W31039   7.837  14.091   2.750 -0.0310 -0.0064 -0.1407
14966W        W31040   6.722   1.332   4.194 -0.1366 -0.2780 -0.1297
14967W        W31041  14.568   6.312   5.554 -0.1888  0.0942 -0.0858
14968W        W31042   5.001   5.146  12.807  0.2944 -0.0039 -0.1758
14969W        W31043   2.844   3.067   2.731  0.1706 -0.1169 -0.1225
14970W        W31044   0.184  14.515  13.773  0.1202 -0.1332  0.3421
14971W        W31045   2.788   3.089   5.090 -0.3229  0.3446  0.1550
14972W        W31046  15.695   6.979   4.853 -0.1653  0.2616 -0.0967
14973W        W31047  16.955  11.124   5.603  0.1174 -0.0048  0.0824
14974W        W31048   9.384  15.689  16.043  0.2246 -0.2122 -0.1066
14975W        W31049  12.938  14.087   4.772  0.0712 -0.2289 -0.1771
14976W        W31050   0.687   0.542  15.867  0.1098 -0.4238 -0.2734
14977W        W31051   9.137  12.524  14.388  0.1934  0.2664  0.1810
14978W        W31052   5.840   2.420   4.518  0.0295 -0.0424  0.2070
14979W        W31053   2.028  15.082  13.257 -0.4766  0.0742 -0.1019
14980W        W31054   2.849  13.943   0.487 -0.1902 -0.1383 -0.0083
14981W        W31055  14.126   8.912   2.736  0.4048  0.1546 -0.2437
14982W        W31056   4.456   5.606  16.023  0.1694  0.1568  0.0805
14983W        W31057  14.708  12.832  12.269  0.1267 -0.3570  0.2779
14984W        W31058   5.786   3.806  15.198 -0.0596  0.1544 -0.1936
14985W        W31059  13.758   1.918   1.103 -0.0323 -0.0357 -0.1156
14986W        W31060   1.970   1.720  12.469  0.0611  0.0963  0.3141
14987W        W31061   0.538  12.280   1.593 -0.1818  0.0487  0.0130
14988W        W31062   0.622   5.649   1.927  0.0515  0.1526  0.1746
14989W        W31063  13.874  16.894  13.680 -0.1886 -0.1064  0.0700
14990W        W31064  12.128  15.826   5.783  0.0731 -0.0433  0.2482
14991W        W31065  13.098   2.420   2.671 -0.1185  0.0582 -0.0887
14992W        W31066  12.336  14.963   1.014  0.2270 -0.1317  0.0169
14993W        W31067  14.616  12.687   0.815  0.2079  0.0050 -0.1942
14994W        W31068   2.601  15.666   5.627 -0.1890 -0.3767 -0.0758
14995W        W31069   2.322   5.730  15.243 -0.0592  0.3115  0.2034
14996W        W31070   5.100  17.221  13.391  0.2165  0.0018 -0.0292
14997W        W31071   6.735  14.689  14.663  0.0045  0.0790 -0.0867
14998W        W31072   5.524   0.892   1.968 -0.1014  0.0525 -0.0379
14999W        W31073  16.051  12.786  11.687 -0.1836 -0.2465 -0.0250
15000W        W31074   3.965   3.839  15.117 -0.2504 -0.0845 -0.2200
15001W        W31075   5.973  17.125   4.275 -0.1811  0.0163  0.3656
15002W        W31076  14.386   6.492   4.253  0.0221 -0.1095 -0.0327
15003W        W31077   3.605   3.494   3.652 -0.2851  0.0770 -0.0662
15004W        W31078  11.058   0.263   2.751  0.2685 -0.3798 -0.4638
15005W        W31079   3.987   0.233   4.386 -0.2393 -0.1396 -0.0997
15006W        W31080  11.096   3.852   2.698 -0.1663  0.0969  0.2152
15007W        W31081  12.302   2.209  11.669 -0.1399  0.0603 -0.1458
15008W        W31082   9.849  16.777   1.658  0.1294  0.1500 -0.0891
15009W        W31083   9.812  17.491   0.335  0.1257  0.0867  0.0060
15010W        W31084   4.912  17.345  13.918  0.0811  0.1465  0.5526
15011W        W31085   7.212  16.140   5.652  0.1416  0.0525  0.1291
15012W        W31086   6.493   8.392   5.622  0.2359 -0.1432  0.1757
15013W        W31087   3.711   7.179  12.628 -0.2236 -0.3938  0.0946
15014W        W31088   4.037   8.397  13.514  0.2019 -0.1909 -0.1778
15015W        W31089  10.468  16.186  13.809 -0.4145  0.4129 -0.1040
15016W        W31090   4.237   5.914  13.567  0.0015 -0.3058  0.2124
15017W        W31091  17.512   7.637   5.793  0.1466 -0.1447 -0.2890
15018W        W31092   5.288   0.234  16.297 -0.2715 -0.0493  0.0245
15019W        W31093   9.138   7.659  13.119 -0.2080  0.1958  0.2069
15020W        W31094  14.883   7.087  11.592 -0.0880 -0.1212 -0.0186
15021W        W31095   7.646  16.678  15.918 -0.0464 -0.0365 -0.0777
15022W        W31096   3.819  12.811  13.067 -0.0455 -0.0132  0.0163
15023W        W31097  11.967   1.966   6.046 -0.0285 -0.0081 -0.1376
15024W        W31098   6.161  14.112   2.357  0.2220  0.0269  0.1727
15025W        W31099   8.539   4.842   2.499  0.3142 -0.2503 -0.1571
15026W        W31100   0.276  16.062  12.128 -0.2106  0.0740 -0.2219
15027W        W31101  12.278  13.388   0.894 -0.0564  0.1962 -0.2895
15028W        W31102   3.298   3.322   1.289 -0.2265 -0.0553  0.2139
15029W        W31103  14.143   0.857  12.079  0.1493  0.1800  0.2871
15030W        W31104   8.739   0.450   1.704  0.0405  0.4071 -0.3259
15031W        W31105  16.251  16.391  12.110 -0.0492  0.1207  0.1739
15032W        W31106   2.898  11.697   0.762 -0.1412 -0.0536 -0.0268
15033W        W31107   9.587   6.096   6.647 -0.2228 -0.0689 -0.0604
15034W        W31108   0.555   3.166  15.361  0.0757  0.2223 -0.1866
15035W        W31109   9.668   4.309  16.439  0.0464  0.0929  0.5425
15036W        W31110   4.263  10.722   0.144 -0.0744  0.0047 -0.3334
15037W        W31111  15.456  12.990   4.457 -0.1199 -0.2999 -0.0949
15038W        W31112  13.398  13.189   4.667 -0.0564 -0.2019 -0.0033
15039W        W31113   3.169  11.130   3.709  0.0518 -0.4135 -0.2431
15040W        W31114  14.408  14.802   0.702 -0.0564 -0.4982 -0.2203
15041W        W31115  10.504   2.035  11.700 -0.1478  0.1704  0.0063
15042W        W31116  13.457   3.700  12.637  0.1711  0.0557  0.1074
15043W        W31117  14.388  13.912   4.541  0.2718 -0.3049  0.0363
15044W        W31118   8.229   2.822   5.057  0.1119  0.0097  0.1628
15045W        W31119  13.908   9.156  13.662 -0.0282  0.4028  0.2254
15046W        W31120   3.908   1.172   4.727 -0.0226 -0.1297 -0.0209
15047W        W31121  14.777   6.980  12.553 -0.2206  0.0977 -0.1757
15048W        W31122  12.638   8.285  12.513  0.0966  0.1794 -0.0511
15049W        W31123  15.543  13.733   2.062 -0.1569  0.1646  0.0873
15050W        W31124  10.603   8.901   5.565  0.3146 -0.0155  0.3509
15051W        W31125  15.200  17.715   3.920  0.2755  0.0937 -0.1330
15052W        W31126   9.093  17.066   5.502  0.1881 -0.0435 -0.1393
15053W        W31127   9.350  17.670  15.988  0.0559 -0.0246  0.1596
15054W        W31128   7.424  15.441  11.967  0.0322 -0.0482  0.0927
15055W        W31129  14.054   2.843  12.798 -0.0145  0.1564 -0.6057
15056W        W31130  15.067   6.154   5.531 -0.0743  0.1119  0.0213
15057W        W31131   2.062   1.429   1.604 -0.0933  0.2112  0.1991
15058W        W31132   7.505   7.976  11.554  0.1302  0.0495  0.0174
15059W        W31133  15.365   1.656   4.157  0.1838 -0.0672 -0.1231
15060W        W31134   6.713   2.276   3.944 -0.0346 -0.2398  0.1266
15061W        W31135  15.191   3.003  15.468  0.3418 -0.1705 -0.0570
15062W        W31136   5.796  10.213  14.089  0.0484 -0.0595  0.0141
15063W        W31137   6.989   2.039  15.399  0.0214  0.0410 -0.1424
15064W        W31138  13.006   0.170   3.120  0.1636  0.0283 -0.4272
15065W        W31139   9.368   6.587  15.926 -0.0415 -0.1449 -0.3000
15066W        W31140   7.457   7.863   1.349  0.0974  0.3533 -0.3051
15067W        W31141   1.591   6.254  11.917 -0.1121 -0.1196 -0.0211
15068W        W31142   5.085   0.872   5.550 -0.0132  0.0500  0.4953
15069W        W31143  11.549  13.144   1.967 -0.0579  0.0057 -0.1054
15070W        W31144   4.967  16.535  16.869  0.0105 -0.0752  0.0697
15071W        W31145   9.028   3.709   2.150  0.1988  0.2377  0.0459
15072W        W31146  15.410   2.438   1.585 -0.3716 -0.2767  0.1749
15073W        W31147   5.486   9.603   3.341 -0.0200  0.2617 -0.0906
15074W        W31148   3.954  11.534   3.724 -0.1265  0.2069 -0.1461
15075W        W31149  15.165  16.287   6.037  0.2261  0.2229 -0.1982
15076W        W31150   9.424   6.698   2.507  0.0799 -0.0817 -0.0147
15077W        W31151   5.585   6.911  13.844  0.0293 -0.2856  0.2298
15078W        W31152  12.131  14.530   5.341 -0.1130  0.0313 -0.0963
15079W        W31153   8.975   5.455   4.460 -0.0811  0.1645 -0.3397
15080W        W31154  17.305  11.254  13.807 -0.0097 -0.1291  0.2567
15081W        W31155   6.568  16.205  13.897  0.2168 -0.1284  0.2028
15082W        W31156   7.430  14.277   4.211 -0.4669  0.2129  0.0922
15083W        W31157  10.171   3.421  12.301  0.0191 -0.1707  0.2311
15084W        W31158  17.213  16.583   3.752 -0.1435 -0.0866 -0.0986
15085W        W31159   8.375  10.945   1.532  0.1772 -0.1052 -0.2992
15086W        W31160   0.274   2.265  15.816 -0.0912  0.0773  0.2398
15087W        W31161  17.676  16.541   1.887  0.0925 -0.0340  0.1534
15088W        W31162   3.778   8.728   2.372  0.3087 -0.1686  0.1799
15089W        W31163   5.743   4.995   4.463 -0.0498  0.0255 -0.0340
15090W        W31164  10.907   3.672   0.675 -0.2787 -0.0593  0.5013
15091W        W31165  15.271   9.436   5.823  0.3444 -0.0759 -0.2907
15092W        W31166  10.451   5.657  15.095  0.1754 -0.1469  0.0574
15093W        W31167   4.639   0.017  14.041  0.4253  0.0458  0.0850
15094W        W31168   4.797   3.333   2.890  0.1719 -0.0221 -0.0381
15095W        W31169  13.271   7.023  12.656  0.0820 -0.2031  0.1311
15096W        W31170   4.933   2.089  15.033 -0.1017  0.0525 -0.1199
15097W        W31171  12.988  13.589  15.841 -0.2960  0.0786 -0.3002
15098W        W31172   3.590   8.671  12.171  0.1218 -0.0630  0.0411
15099W        W31173   3.819  12.801   2.866 -0.0205 -0.1136 -0.3516
15100W        W31174   7.919  17.422  12.081  0.0605  0.3575  0.0542
15101W        W31175   8.074   2.397   4.397  0.1089 -0.1646  0.0844
15102W        W31176  11.370   0.528   1.413 -0.0086 -0.2248 -0.1110
15103W        W31177   9.217   1.314  12.780  0.1467  0.1475  0.1227
15104W        W31178   2.459   8.649  12.806 -0.3466  0.0044 -0.0978
15105W        W31179  12.636   9.890  13.539  0.0106  0.3525 -0.0114
15106W        W31180   4.455   6.256   2.743 -0.3004 -0.2100  0.1374
15107W        W31181   5.557  10.586   6.071  0.0600 -0.2031  0.1882
15108W        W31182   0.286   8.695  12.097 -0.1599  0.3612  0.1800
15109W        W31183   8.863  13.982  13.268 -0.0778  0.0372  0.0651
15110W        W31184   8.064  16.061  13.875  0.1320  0.2415  0.1633
15111W        W31185  16.922   7.886  12.778 -0.0638 -0.1217 -0.1508
15112W        W31186   2.641   1.897   5.196  0.1208  0.0247 -0.2156
15113W        W31187   5.380   6.345  13.287 -0.0298 -0.0965 -0.0797
15114W        W31188   8.076   3.987  12.325 -0.1592 -0.2968  0.0246
15115W        W31189  16.683  10.886   2.233 -0.0400 -0.1378  0.0031
15116W        W31190  11.716   3.565  16.697  0.0257 -0.1141 -0.1447
15117W        W31191  15.792  11.634  12.323  0.3342 -0.1386  0.1586
15118W        W31192   1.802  17.723  11.831  0.1275  0.1904 -0.3697
15119W        W31193   3.271  13.369   4.742  0.0726  0.2080 -0.1460
15120W        W31194   4.878  12.511  11.370 -0.2444  0.0661 -0.0749
15121W        W31195  14.220   2.146  15.639 -0.0789 -0.2851 -0.2683
15122W        W31196   3.262  16.383  11.688 -0.0403 -0.2659 -0.0222
15123W        W31197   4.541   8.764   1.854  0.0086  0.2075 -0.0201
15124W        W31198   9.885   6.904   5.296  0.0190 -0.1756 -0.1123
15125W        W31199   3.496  14.317   3.460 -0.3052 -0.0569  0.0716
15126W        W31200  16.126  14.859  12.079 -0.2038 -0.1024  0.1210
15127W        W31201   7.677   2.426   1.978 -0.0274  0.2405  0.0977
15128W        W31202   1.214   0.506   3.444  0.2120  0.2627 -0.1993
15129W        W31203   9.816   4.757  12.852  0.0226  0.1599 -0.3236
15130W        W31204   9.394   4.496   1.011  0.0377  0.2439  0.1634
15131W        W31205   8.016   3.310   5.276  0.2790 -0.1857  0.0029
15132W        W31206  16.437  17.532   1.825  0.1765  0.0662 -0.1801
15133W        W31207   0.565   0.715  12.969  0.0559  0.0771 -0.0103
15134W        W31208  10.042   6.185   4.553 -0.1469  0.1407 -0.1928
15135W        W31209  10.289  13.271   0.234  0.1037  0.0425 -0.0367
15136W        W31210  15.825   1.617  14.286  0.0593  0.0259  0.0610
15137W        W31211   9.846   7.919   1.845 -0.2980 -0.0718 -0.1304
15138W        W31212   8.186  17.570   2.076 -0.0458  0.0348  0.2796
15139W        W31213   1.375  15.383  17.092 -0.2356  0.0660 -0.1212
15140W        W31214  12.721   6.801   2.792  0.0572 -0.0608 -0.1908
15141W        W31215  11.588  12.490   4.877 -0.1885  0.4643  0.3054
15142W        W31216  12.300  14.749   0.450  0.2371 -0.1414  0.4162
15143W        W31217   6.149   0.208  14.937 -0.1144  0.2016  0.3551
15144W        W31218   4.650  13.330   1.399  0.0187 -0.0797 -0.0089
15145W        W31219   9.335   8.370  12.643 -0.1747  0.3325 -0.0752
15146W        W31220   2.447   8.579   1.707  0.0107  0.1019 -0.1441
15147W        W31221  10.254   0.616   0.221  0.2620 -0.0672  0.2251
15148W        W31222  16.579   1.017  12.130  0.1422  0.2548  0.2193
15149W        W31223  17.252   9.246   5.552  0.1726 -0.1651  0.2303
15150W        W31224  10.671  13.441   5.693  0.4399  0.0239 -0.4695
15151W        W31225  11.155  10.708   0.679  0.0265 -0.0306 -0.1440
15152W        W31226  13.550   1.909  14.617 -0.1699 -0.0453 -0.2334
15153W        W31227   3.740   3.123   2.780 -0.2617  0.0106 -0.0734
15154W        W31228   0.049   1.324  17.101 -0.1879  0.1258 -0.0145
15155W        W31229   6.646   1.993   3.513 -0.0255 -0.0043 -0.4367
15156W        W31230  11.277  13.294   2.582 -0.0219  0.1578  0.2385
15157W        W31231   7.972  14.077   6.478  0.0483  0.2073  0.0445
15158W        W31232   9.491   1.259   2.602  0.1130  0.0029 -0.0055
15159W        W31233   8.652   1.775  14.592 -0.0783 -0.0856  0.0615
15160W        W31234  12.977   4.856   5.499 -0.0098 -0.1443  0.0267
15161W        W31235   3.764   4.691   6.136  0.0075 -0.0933  0.2143
15162W        W31236  11.351  12.329   2.621  0.0041  0.1020  0.2561
15163W        W31237   7.576   8.053  14.848 -0.1212  0.0635  0.0130
15164W        W31238   5.264   3.547   5.649 -0.0786 -0.1980  0.2296
15165W        W31239   2.460   1.861  12.560  0.1774 -0.0605  0.0508
15166W        W31240   6.820   3.225   1.688  0.0684  0.0645  0.0629
15167W        W31241   5.806   1.314  12.181  0.1433 -0.2041  0.0610
15168W        W31242   1.024  11.138  14.165 -0.1125 -0.0311 -0.3340
15169W        W31243   4.279   4.812   0.814  0.1044  0.0808  0.1236
15170W        W31244  11.357   9.634  16.314  0.1774  0.3567  0.0795
15171W        W31245  15.796   5.659   1.180 -0.0547  0.0008  0.2530
15172W        W31246  16.049   8.612   2.739  0.0330  0.1704 -0.1984
15173W        W31247   6.364   8.452  15.374 -0.0991  0.0049  0.2809
15174W        W31248   2.866  14.455   5.452  0.3296  0.2727 -0.3510
15175W        W31249  12.028   4.231  16.749  0.0516  0.2543  0.1355
15176W        W31250  13.030   7.973   6.162  0.2501 -0.2965  0.0384
15177W        W31251   5.264   9.453   2.247  0.3795  0.0485 -0.0437
15178W        W31252  11.931   1.257  13.195 -0.3732 -0.4362 -0.0299
15179W        W31253   6.584  15.989   3.884  0.0665 -0.0989  0.0401
15180W        W31254  14.208  16.064  12.748 -0.1421  0.2906 -0.3454
15181W        W31255   9.020  14.337  12.427  0.2491  0.0106  0.2439
15182W        W31256  14.349   2.715   4.607  0.1603 -0.0449 -0.2319
15183W        W31257  14.578  13.471   2.304 -0.0863  0.2951 -0.0459
15184W        W31258   2.495   6.701   4.705  0.1079  0.0497 -0.2578
15185W        W31259   9.660   4.930  14.995  0.1985 -0.2863  0.0034
15186W        W31260   5.286  11.763  17.038  0.2131 -0.3821 -0.3546
15187W        W31261  16.271  14.051   4.051 -0.0819 -0.0113  0.0172
15188W        W31262  12.610   7.054   4.994  0.3231 -0.1863 -0.1769
15189W        W31263   7.432   4.948   5.400  0.3470 -0.2162 -0.2162
15190W        W31264  16.040  15.197   2.469  0.0151  0.1275 -0.1421
15191W        W31265   7.499   1.885   1.397  0.0149  0.1118  0.2631
15192W        W31266   0.923  11.927  14.690  0.2033  0.1022 -0.4060
15193W        W31267  17.191   5.932   6.321  0.2035 -0.0334 -0.1796
15194W        W31268  16.540   5.350  16.401 -0.2085 -0.4119  0.0575
15195W        W31269   2.892   1.619  12.275 -0.0436  0.2621 -0.2606
15196W        W31270   7.054   4.658   5.525 -0.1764  0.1771  0.2561
15197W        W31271  12.170   7.893   2.839  0.3531 -0.3037  0.0238
15198W        W31272   2.926   5.960  15.119 -0.2081  0.3172  0.0949
15199W        W31273  15.209  16.376  13.501  0.1096 -0.1018  0.1527
15200W        W31274  16.721  12.902   3.417 -0.0064 -0.1399  0.3495
15201W        W31275  13.364  15.852  10.748 -0.2139 -0.3188  0.0517
15202W        W31276   8.257   3.818   3.259 -0.0570 -0.1417  0.2852
15203W        W31277   3.683   0.733  15.402  0.2074 -0.0966  0.0281
15204W        W31278  11.947   9.904   1.436  0.3558  0.0250  0.1849
15205W        W31279  11.173  16.592   4.366  0.3829  0.0454  0.0071
15206W        W31280  12.811   8.451   1.841  0.1197 -0.0063 -0.1275
15207W        W31281  14.873   1.664   0.347 -0.1141 -0.0003  0.0237
15208W        W31282   0.783  10.936   2.254 -0.0644  0.1880  0.1649
15209W        W31283   4.140   8.312  15.106  0.0195  0.0019  0.2144
15210W        W31284   5.196   8.994  14.350  0.2369 -0.1267  0.1398
15211W        W31285  16.028  12.361   1.424 -0.0383  0.1754 -0.3489
15212W        W31286   1.655   0.273  12.203 -0.3356 -0.4925  0.0882
15213W        W31287   9.655   3.133   2.581  0.0411  0.1961  0.0706
15214W        W31288   7.715   9.112  14.056  0.0025  0.0202 -0.2754
15215W        W31289  12.469  13.601  15.850 -0.1037 -0.0115 -0.2816
15216W        W31290  13.587   0.982   3.420  0.1517  0.0935  0.2214
15217W        W31291   0.653  15.415   0.632 -0.0458 -0.0310  0.1609
15218W        W31292  10.022  11.336  13.818 -0.1017  0.0988  0.1860
15219W        W31293   2.522   5.729  12.530  0.1852 -0.1177  0.1878
15220W        W31294   9.342  10.425   4.155  0.0202 -0.0575  0.0587
15221W        W31295   2.788  11.989   4.262  0.0525  0.2346 -0.1258
15222W        W31296  12.158  13.220  15.642 -0.0742 -0.3112 -0.0507
15223W        W31297   0.544   2.842  13.052 -0.0586 -0.0271  0.0602
15224W        W31298  10.350   9.891  16.939  0.0929 -0.5002  0.2275
15225W        W31299  15.699  10.698   2.209 -0.0629  0.1589  0.3119
15226W        W31300  17.383   6.722   2.198 -0.1397  0.2748 -0.0115
15227W        W31301   2.002   6.602  10.907 -0.1896  0.0061  0.0310
15228W        W31302  15.046   6.016  12.894  0.2106 -0.2437 -0.1245
15229W        W31303   1.172  17.164   5.351 -0.0527  0.2330  0.2226
15230W        W31304  12.057   4.547  15.129  0.2830  0.2597 -0.1848
15231W        W31305  12.756   5.242  12.602  0.1998 -0.0091  0.1052
15232W        W31306   4.906  11.697   2.790  0.0304  0.1245  0.1236
15233W        W31307  10.451   0.904  16.456 -0.0100  0.1169 -0.4226
15234W        W31308  10.306   8.217  13.669  0.0919  0.2083  0.1963
15235W        W31309   4.431   3.140   5.456  0.0983 -0.0914  0.3836
15236W        W31310  13.858  12.989  15.530  0.3303 -0.0703 -0.2906
15237W        W31311   4.091   5.302   1.670  0.2568  0.1665 -0.2994
15238W        W31312  12.005  11.969  17.098  0.0935  0.1709 -0.0344
15239W        W31313  12.792  17.573   5.549  0.1800  0.2486 -0.0892
15240W        W31314   7.836  10.210   0.882 -0.0106  0.2952 -0.0514
15241W        W31315  12.112   6.496   0.912 -0.0318  0.1255  0.2160
15242W        W31316  13.452   2.041   5.292 -0.1496 -0.1821  0.1054
15243W        W31317  13.125   9.830  13.657  0.1839  0.0035 -0.0787
15244W        W31318   8.170   4.767   2.812  0.4744  0.3154 -0.0875
15245W        W31319   1.891  16.430   2.602  0.5294  0.1911 -0.1410
15246W        W31320  14.917   2.297   0.483  0.2225  0.1229  0.0885
15247W        W31321   4.661   2.029  13.200  0.1591 -0.1086 -0.0194
15248W        W31322  15.819  16.358  16.664 -0.0233 -0.1949  0.0541
15249W        W31323   6.078   8.524  14.779  0.3551  0.1257  0.0256
15250W        W31324   2.733   0.973   4.000  0.1089 -0.1836 -0.2927
15251W        W31325   4.490  10.381  15.110 -0.0709 -0.1645  0.3411
15252W        W31326   2.204   8.465   3.230 -0.1345  0.0051 -0.2082
15253W        W31327   2.954  10.926   4.972 -0.1292  0.2219  0.1446
15254W        W31328   1.149   3.678   3.250 -0.0004 -0.0947  0.0931
15255W        W31329   3.805   8.195   2.487 -0.2184 -0.2192  0.1711
15256W        W31330   1.521   4.762  13.783 -0.0595  0.0637  0.1645
15257W        W31331  10.660   4.694  15.307 -0.0859 -0.5264 -0.0178
15258W        W31332   8.396  11.982  15.920 -0.1322  0.3196 -0.0125
15259W        W31333  16.209  12.408   1.908  0.2032  0.1041 -0.0004
15260W        W31334  14.087   7.598   2.110 -0.1010 -0.0616  0.1327
15261W        W31335   8.876  14.217   3.409  0.1028  0.0141 -0.4000
15262W        W31336  13.378  15.118  13.747  0.0597 -0.1717 -0.1232
15263W        W31337   5.134  17.683   4.534  0.4820  0.0501  0.3295
15264W        W31338  14.361  13.878   1.531  0.6026 -0.0204 -0.2126
15265W        W31339   7.114  12.032   0.920  0.2108  0.1440  0.0744
15266W        W31340   5.492  13.081   2.945  0.3353  0.0517  0.1832
15267W        W31341  12.656   2.257  12.541 -0.0367 -0.2547  0.0463
15268W        W31342  16.907   3.972   5.583  0.0678  0.0588 -0.1119
15269W        W31343   1.532   0.770   4.738  0.0247 -0.1420  0.1676
15270W        W31344   1.418  15.963   3.430 -0.1451  0.1037  0.0156
15271W        W31345  10.764  11.230  16.683 -0.0968 -0.2926 -0.2608
15272W        W31346  16.812   9.260  16.978  0.0401 -0.0937  0.1202
15273W        W31347   8.722   2.861   4.857 -0.1034  0.2379 -0.1266
15274W        W31348  15.703   0.861   2.130 -0.0132  0.0642 -0.1871
15275W        W31349   5.818  15.798   5.531  0.2409 -0.2634 -0.1098
15276W        W31350  12.057  14.865  12.319 -0.1305  0.0764 -0.1818
15277W        W31351  14.613   4.156   5.781 -0.2533 -0.0738  0.0203
15278W        W31352   5.239   5.150   5.679  0.2385  0.3147  0.0677
15279W        W31353   8.620   0.846  16.634  0.1731  0.1019 -0.0079
15280W        W31354  15.339  12.868   1.707 -0.1668  0.1150 -0.4047
15281W        W31355  13.601  15.325   0.199  0.0071 -0.1116 -0.0539
15282W        W31356   0.202  16.236   5.757 -0.2038 -0.0857 -0.3277
15283W        W31357   3.082  16.602   3.741 -0.1361 -0.1091  0.2677
15284W        W31358  11.226  11.125   2.538  0.0616  0.0173 -0.2610
15285W        W31359   4.030   2.340  15.784  0.2443  0.1016 -0.2928
15286W        W31360   6.111  13.666   5.637 -0.3038  0.1054 -0.4278
15287W        W31361  11.190   5.139   4.723 -0.0436  0.1791 -0.1536
15288W        W31362   7.347   9.170   4.916 -0.0167 -0.1511 -0.1012
15289W        W31363   6.280   4.760  15.141  0.0126 -0.1010 -0.0415
15290W        W31364   9.393   6.118  14.194  0.2988  0.3113  0.0361
15291W        W31365  14.850   5.944  16.416  0.0362  0.0665  0.0997
15292W        W31366  10.989  15.746   4.710  0.1443  0.0496 -0.0414
15293W        W31367   4.216  11.003  12.659  0.0293 -0.0553  0.1793
15294W        W31368   5.502   1.705   1.302  0.2433  0.2203 -0.0800
15295W        W31369  10.586   6.608  13.943 -0.2717  0.1236 -0.2260
15296W        W31370   9.112   5.916  12.803 -0.2726 -0.1078 -0.1020
15297W        W31371   4.220   5.373  13.562  0.1023 -0.0292  0.0974
15298W        W31372   3.228   2.660  16.792 -0.0745 -0.2544  0.0259
15299W        W31373   2.239  10.805   5.715 -0.2919  0.2288 -0.0775
15300W        W31374  12.830  12.952   1.739 -0.3015 -0.3134  0.0891
15301W        W31375   8.384   0.756  13.638  0.2381 -0.3135 -0.0338
15302W        W31376   2.033   3.829  13.142 -0.0422 -0.0950  0.0674
15303W        W31377  10.006   1.833   3.759 -0.1062 -0.0713  0.1438
15304W        W31378   2.975   1.732   5.555 -0.4880 -0.2349 -0.3026
15305W        W31379  17.095   4.450  13.877 -0.1953 -0.2588 -0.0755
15306W        W31380   9.358   4.901   5.791  0.0157 -0.1836 -0.2187
15307W        W31381   8.184   7.513  13.012 -0.0833 -0.3855 -0.2884
15308W        W31382   7.142   8.209  13.336  0.0118 -0.1865  0.2707
15309W        W31383  17.306   6.061   0.496  0.0189 -0.1784  0.1817
15310W        W31384  13.732  13.600   0.655 -0.1049 -0.0506 -0.3726
15311W        W31385   1.666  14.144   5.585  0.1024 -0.1227  0.1432
15312W        W31386  10.388   0.630   1.946 -0.1194 -0.1508  0.0145
15313W        W31387   5.872   3.279  16.735  0.1644 -0.1307  0.0273
15314W        W31388   0.805  16.429  14.479 -0.0415  0.1320 -0.1628
15315W        W31389  17.694   7.821   4.402  0.0904 -0.0565 -0.1364
15316W        W31390   4.825  16.143   5.627 -0.1429  0.1510 -0.2576
15317W        W31391  11.546   2.772  16.922 -0.3543  0.1734 -0.2190
15318W        W31392   5.332  14.598  12.699  0.1767 -0.1534 -0.0595
15319W        W31393  16.132  17.585  15.383 -0.1582  0.1460 -0.0024
15320W        W31394  16.121  10.991  15.892  0.2247 -0.1607  0.0788
15321W        W31395  13.256  10.212   4.061 -0.1120  0.0471  0.3435
15322W        W31396  17.607  14.827  13.612 -0.2492 -0.0452  0.2100
15323W        W31397  15.632   7.483  16.448 -0.0688  0.0271  0.0902
15324W        W31398  14.067   7.999   3.308 -0.2538  0.0743  0.0502
15325W        W31399  10.188   6.030   0.768  0.0915 -0.0963  0.0360
15326W        W31400   6.817  14.617  16.686  0.2767  0.0237 -0.0946
15327W        W31401   9.541  10.008  12.547  0.1953 -0.1244 -0.0303
15328W        W31402   6.605   1.632  15.380  0.2432 -0.1125 -0.1542
15329W        W31403  17.504   3.711   1.502  0.0712 -0.1218  0.1955
15330W        W31404   8.224   3.895  15.713  0.1007  0.0819 -0.1627
15331W        W31405   2.728   2.410   0.022  0.3520 -0.1541  0.0363
15332W        W31406  13.034   4.440  13.210  0.0290  0.2747 -0.1119
15333W        W31407  12.718   7.979  15.341 -0.1820 -0.0735 -0.2450
15334W        W31408  14.870   3.328   0.525 -0.1234  0.0547 -0.2313
15335W        W31409   0.391  17.017  13.606  0.0984 -0.1172 -0.1258
15336W        W31410  17.005  12.064   1.900  0.3861 -0.0689 -0.2522
15337W        W31411   0.741   9.680   4.806  0.0262  0.1751  0.0972
15338W        W31412  12.018   8.268   4.580  0.0583  0.0286 -0.1467
15339W        W31413  10.611  16.335  13.352  0.2076 -0.0540  0.0388
15340W        W31414   0.354   8.512  14.747 -0.1636 -0.0193 -0.2374
15341W        W31415   0.768  16.558   1.065  0.1072  0.0748  0.2186
15342W        W31416  15.806   9.299   4.423  0.1251 -0.3300 -0.0335
15343W        W31417  13.577   8.261   3.171  0.5637  0.0711 -0.2668
15344W        W31418   6.004  12.727  14.481 -0.1327 -0.1790 -0.0584
15345W        W31419  10.847  14.893   5.332 -0.1041  0.0246 -0.2520
15346W        W31420  17.171  10.505  17.084  0.1294 -0.0838 -0.1886
15347W        W31421   8.856   8.359  12.429  0.0426 -0.1249 -0.3076
15348W        W31422  12.073   7.512  15.790 -0.0637 -0.0731  0.2236
15349W        W31423  14.556   8.726   4.209  0.2277  0.2239  0.2644
15350W        W31424  12.335   2.552   2.987  0.0248 -0.0945  0.0397
15351W        W31425  12.068  14.253  11.980  0.1876  0.0121  0.0925
15352W        W31426  14.525  16.553   2.931  0.0184  0.3739 -0.1037
15353W        W31427  14.522  15.419   2.487  0.1937  0.2277 -0.0944
15354W        W31428  11.044  16.211  15.541  0.1447 -0.1306 -0.0815
15355W        W31429   9.438  11.866  16.538 -0.0051  0.0205  0.4057
15356W        W31430   3.382   0.274  14.747  0.0719 -0.0534 -0.1011
15357W        W31431  13.452   4.139  11.458 -0.0531 -0.2701 -0.1554
15358W        W31432  11.545  13.890  15.265 -0.1001 -0.0219 -0.1417
15359W        W31433  11.575  17.358   4.308  0.1136 -0.1507 -0.3564
15360W        W31434   4.167  12.432  15.987  0.3987 -0.2541  0.4175
15361W        W31435   3.595  13.757   1.176 -0.2738  0.0509 -0.3178
15362W        W31436   5.208  13.425  12.047 -0.1992 -0.1128  0.2838
15363W        W31437   5.143  17.238  12.634 -0.3358  0.2022 -0.0140
15364W        W31438  15.538  12.022  12.523  0.1316  0.0173  0.3083
15365W        W31439   8.612   9.910   3.679 -0.1797  0.0574 -0.2833
15366W        W31440  14.116  17.722  15.736  0.1281  0.1282 -0.0092
15367W        W31441  10.657  11.908  16.866  0.1313  0.1353 -0.1922
15368W        W31442   6.015   6.939  12.763  0.3590  0.1841  0.0510
15369W        W31443  14.717  16.545  14.619 -0.0546 -0.1930 -0.2466
15370W        W31444   1.845  16.573   3.129 -0.0010 -0.0910 -0.0727
15371W        W31445  10.486   2.662  12.896 -0.1821  0.1336 -0.1432
15372W        W31446   8.702  10.145  12.938  0.2964  0.1286 -0.1475
15373W        W31447   2.437   6.766  14.793 -0.0145 -0.1124 -0.1535
15374W        W31448   7.598   2.984   2.129 -0.3294 -0.0256  0.0074
15375W        W31449   9.279  13.612   5.546 -0.1783 -0.1968 -0.2211
15376W        W31450   3.331   5.005  13.906 -0.2198 -0.4149  0.1602
15377W        W31451  17.119  11.964  13.762  0.1903 -0.2591 -0.0328
15378W        W31452  13.581   8.335  13.011  0.1000  0.0366  0.2539
15379W        W31453  11.702  10.009  12.346 -0.1428  0.2569  0.2226
15380W        W31454  15.954   7.373   4.708  0.0689  0.3422  0.0259
15381W        W31455  15.892  11.142   3.051 -0.2491  0.1923 -0.1740
15382W        W31456   9.222   6.372  11.543 -0.0724  0.0650  0.3823
15383W        W31457  11.781   6.785   4.560  0.4021  0.1186 -0.1928
15384W        W31458  16.206   1.890  16.591 -0.2220 -0.0316 -0.4662
15385W        W31459   3.702   4.322  14.271 -0.1120 -0.2995 -0.0909
15386W        W31460  13.431  10.623   2.660  0.1023  0.1423 -0.3694
15387W        W31461  14.952   7.814   2.988 -0.1022  0.2409 -0.1070
15388W        W31462   6.174  16.370  14.361  0.2374  0.0766  0.1043
15389W        W31463   6.510   8.617   5.106  0.1099  0.0381  0.1389
15390W        W31464   9.962  11.908  13.954 -0.0159  0.1648  0.0492
15391W        W31465   7.635   2.564  14.742 -0.0112  0.0112  0.1771
15392W        W31466  15.981  12.006   2.763  0.3099  0.0390 -0.0641
15393W        W31467   6.053   2.688  14.381  0.0144  0.2682  0.1388
15394W        W31468   6.745   5.542  14.509  0.1604 -0.4635 -0.1584
15395W        W31469  12.415   3.470   3.443  0.0266  0.0644  0.1815
15396W        W31470   5.187  12.063  15.350  0.1820 -0.1926  0.1828
15397W        W31471  17.528   4.298   6.528  0.0525 -0.0085 -0.1368
15398W        W31472  11.191   0.334   4.582  0.2312 -0.1264 -0.0552
15399W        W31473   9.748   0.041   4.531 -0.3855  0.0712  0.3188
15400W        W31474  10.921   0.363  15.550 -0.1375 -0.0467 -0.0492
15401W        W31475   2.043   4.284  14.650  0.0500 -0.0984  0.4524
15402W        W31476   6.253  15.404  15.576  0.2149 -0.1023 -0.2682
15403W        W31477  12.574   4.060  13.897  0.2598  0.1228  0.3165
15404W        W31478  12.713   8.351  16.699 -0.0872 -0.2407  0.1800
15405W        W31479   4.281   5.989  16.354 -0.2324 -0.1127  0.1100
15406W        W31480  17.223  12.930   3.469 -0.1324  0.1703 -0.0551
15407W        W31481  16.213   5.419   2.777  0.1259 -0.3581 -0.1816
15408W        W31482   3.529   5.523  13.831  0.0017 -0.1435  0.0155
15409W        W31483  15.543   5.233  16.997  0.2003  0.0359  0.1224
15410W        W31484  10.364   7.141  15.222 -0.3125  0.0069  0.1839
15411W        W31485   8.833  12.794   4.847  0.0283 -0.0342  0.1948
15412W        W31486  10.487  14.174  14.934 -0.2713  0.0240 -0.0384
15413W        W31487  12.602  12.304   1.014  0.0258 -0.0686 -0.2785
15414W        W31488  15.756  10.736  11.673  0.1755 -0.0131 -0.1175
15415W        W31489  12.260   9.522   1.273  0.0170 -0.3418 -0.1359
15416W        W31490  11.275  14.069   2.633 -0.0779  0.1879 -0.2127
15417W        W31491  14.370  12.792  12.647 -0.3229 -0.1206 -0.0972
15418W        W31492   2.087  16.310   5.099 -0.0514  0.1464 -0.0185
15419W        W31493  15.677   4.508  15.255 -0.1999  0.0229 -0.2956
15420W        W31494   7.647  16.149   0.282 -0.2017  0.0980  0.1562
15421W        W31495   5.582  16.173  16.138 -0.2852 -0.1163  0.3330
15422W        W31496   4.689   6.511   4.078  0.1074 -0.0702  0.0063
15423W        W31497  11.409  15.416   5.363  0.1266 -0.1024  0.1896
15424W        W31498  10.204   5.571   5.567 -0.0047 -0.0425 -0.1818
15425W        W31499   1.769   2.435   1.836 -0.2142 -0.3342 -0.0267
15426W        W31500   3.039   3.915   4.481 -0.1063  0.1075  0.1604
15427W        W31501   5.455   6.031  11.812 -0.1441 -0.1529  0.1742
15428W        W31502   1.152  10.750   2.882 -0.0843  0.2006  0.1892
15429W        W31503   6.476   9.947   1.418  0.1113 -0.1626  0.2384
15430W        W31504  10.435   6.041  12.632 -0.1663 -0.1742  0.1673
15431W        W31505   3.170  12.656  16.170 -0.1277 -0.1584 -0.2642
15432W        W31506   7.954  15.316  12.785 -0.2105  0.3927  0.2404
15433W        W31507   3.352  16.721   0.008 -0.1325 -0.2356 -0.0110
15434W        W31508  10.559   7.704   5.442  0.2148 -0.0382 -0.0224
15435W        W31509  15.558  13.244   4.883 -0.0596 -0.1130 -0.0359
15436W        W31510   7.582   2.587   4.549  0.0079 -0.0375 -0.0679
15437W        W31511   8.657  12.998  11.898 -0.0230  0.0300  0.3817
15438W        W31512   2.804  15.228   1.342 -0.2921  0.0157 -0.2416
15439W        W31513  16.003  17.182  10.864 -0.2674 -0.0341 -0.0641
15440W        W31514   4.656  13.662   3.604  0.2095 -0.1781  0.2409
15441W        W31515  15.120   8.939   1.941 -0.1875  0.2679 -0.2715
15442W        W31516   4.717  11.891   4.122 -0.1663 -0.0446  0.2013
15443W        W31517   4.298   3.927  13.481 -0.1062 -0.1473 -0.4189
15444W        W31518   7.875  15.848   1.082  0.2428 -0.0361  0.0665
15445W        W31519  11.081   2.551   3.917 -0.0452  0.0624 -0.1557
15446W        W31520  14.860   3.585   2.162  0.2034  0.0292 -0.1134
15447W        W31521  13.458   2.664   2.998 -0.1573  0.1127  0.2723
15448W        W31522  10.486  10.663  12.167 -0.2316  0.2362 -0.2059
15449W        W31523  16.899  16.811   2.417  0.0756  0.0073 -0.2997
15450W        W31524   9.188   9.232   5.616  0.0043 -0.2256 -0.1694
15451W        W31525  13.174  14.417   2.799 -0.1120  0.0526 -0.1955
15452W        W31526  13.941   6.168   5.891 -0.4080  0.1746 -0.1905
15453W        W31527   5.535  10.281  13.667 -0.3821  0.2448  0.0041
15454W        W31528   0.509  15.089   1.927 -0.0408  0.1167 -0.3096
15455W        W31529   7.908  16.821  16.315 -0.3889 -0.1312  0.1858
15456W        W31530   3.852  15.458  13.114  0.0330 -0.0599 -0.0356
15457W        W31531  14.253  12.579   2.091 -0.0515  0.2099  0.1738
15458W        W31532  14.300  11.986  15.506  0.0399 -0.0309  0.1197
15459W        W31533   5.668   0.371  14.969 -0.0354 -0.2478  0.1901
15460W        W31534   1.658   0.162   5.457 -0.0993  0.0738  0.0367
15461W        W31535  10.175   5.548  12.624 -0.0609 -0.0072  0.2610
15462W        W31536   4.550  13.938   0.579  0.0442  0.2056 -0.2202
15463W        W31537   9.130  13.802   1.128  0.0314  0.1391 -0.2512
15464W        W31538   4.108   4.719   4.322  0.1483  0.1489 -0.0794
15465W        W31539  16.656  11.403   0.458 -0.0882 -0.0838  0.0264
15466W        W31540  14.502   8.822   0.470  0.2112  0.2122  0.0371
15467W        W31541  12.446   2.457   4.352 -0.2566 -0.1040  0.0914
15468W        W31542   0.919   6.694   3.634 -0.2730 -0.0384  0.0935
15469W        W31543  10.419   7.711  13.266  0.0500 -0.1205 -0.1567
15470W        W31544   2.664   1.037  12.845 -0.1751  0.0816 -0.0357
15471W        W31545   8.141   9.301  15.318  0.2138  0.1382 -0.1320
15472W        W31546   1.146   8.199   0.244 -0.0323 -0.0012 -0.3011
15473W        W31547   9.034   1.252   1.310  0.0293 -0.0358  0.0502
15474W        W31548  16.870   9.875  10.697  0.0062 -0.1758  0.1163
15475W        W31549  14.808   3.118   5.464  0.0313  0.0810  0.0268
15476W        W31550   0.372   6.739  16.886 -0.1493 -0.2110  0.0084
15477W        W31551   4.957  17.404  14.432 -0.1306 -0.0586  0.2932
15478W        W31552  10.779   6.762  15.288  0.2144 -0.5388  0.2764
15479W        W31553   0.539   8.223   1.047  0.2139  0.2677  0.1956
15480W        W31554   4.979   2.630   0.604  0.1843  0.1671  0.1628
15481W        W31555  15.530  14.921  15.127  0.2220 -0.3760 -0.1340
15482W        W31556   5.012  14.487  13.183 -0.2874 -0.2028  0.2110
15483W        W31557  12.328  15.278  13.830 -0.2886 -0.0123 -0.0594
15484W        W31558  14.662   0.212   5.699  0.0901  0.0285  0.2921
15485W        W31559  14.784   7.154  12.075 -0.1346  0.2312 -0.0527
15486W        W31560  14.758   7.709   4.320 -0.1022  0.0282  0.1740
15487W        W31561  14.187  16.929   4.826  0.2609  0.1951  0.1241
15488W        W31562   7.637  12.555  11.753 -0.0040  0.2263 -0.1122
15489W        W31563   8.851   2.498   3.823  0.2208 -0.2546  0.4368
15490W        W31564  11.217   8.019  16.675  0.1436  0.3384  0.0504
15491W        W31565   3.339  13.975  14.273 -0.0106 -0.2333 -0.3243
15492W        W31566  14.930   6.190  13.838 -0.0762 -0.0078 -0.0235
15493W        W31567  15.211  11.670  17.051 -0.1307 -0.2168 -0.1102
15494W        W31568  10.914  17.288   1.116  0.3407  0.0721  0.0704
15495W        W31569   2.920   4.224  16.145 -0.0866  0.1006 -0.1611
15496W        W31570   9.603   9.268  12.047 -0.2857 -0.3137 -0.2860
15497W        W31571   3.614   6.425   5.766  0.0667 -0.0129  0.2855
15498W        W31572  12.373  10.694   5.143  0.0867 -0.2039  0.0849
15499W        W31573  17.123  14.847   4.578  0.1114  0.0533  0.4475
15500W        W31574  17.465  15.041  11.670 -0.1235 -0.0771 -0.1637
15501W        W31575   1.101   8.463   1.551 -0.1212 -0.0213  0.1328
15502W        W31576   3.574   2.944   1.264  0.0905  0.0743  0.1595
15503W        W31577   8.002  11.511   0.418  0.0215  0.3171 -0.1231
15504W        W31578   6.278  10.337  11.910 -0.1625  0.2379  0.4094
15505W        W31579   7.317   9.970   3.473 -0.2533 -0.0786 -0.1216
15506W        W31580   4.553   3.147  15.545  0.2204  0.0438 -0.0173
15507W        W31581  15.797  15.193   1.088 -0.1290 -0.1090  0.1378
15508W        W31582   2.722  12.658  17.041 -0.3560 -0.0093 -0.2684
15509W        W31583  14.142  13.373   0.958 -0.1876 -0.2011 -0.0970
15510W        W31584  14.858   9.409  12.683  0.0489 -0.1339 -0.0553
15511W        W31585   5.743   6.556  13.546 -0.2719 -0.0820  0.2385
15512W        W31586  16.496   5.254   5.339  0.0367 -0.3973  0.1304
15513W        W31587  12.202  11.323  14.784  0.2580 -0.0044  0.0661
15514W        W31588   3.203   5.147  13.425 -0.3088 -0.3461  0.0777
15515W        W31589   9.954   3.811   3.065  0.0823 -0.0888 -0.2880
15516W        W31590   0.713  13.757  16.854 -0.0489 -0.0339 -0.1469
15517W        W31591  15.076   0.936   0.447 -0.0786  0.2626  0.2908
15518W        W31592  16.848   1.968   3.845 -0.3864 -0.2626 -0.1649
15519W        W31593   2.282  15.716   3.889 -0.1862 -0.1254  0.3016
15520W        W31594  15.292  16.578  14.002 -0.2848  0.0425  0.1431
15521W        W31595  17.458  10.679   4.606  0.0303 -0.2855 -0.3087
15522W        W31596  15.137  14.428   0.598 -0.1265 -0.3656  0.3376
15523W        W31597   0.922   9.655   0.088 -0.4867  0.0764 -0.0294
15524W        W31598   1.186  15.401   3.012  0.0619 -0.1793 -0.1358
15525W        W31599   2.266   6.477   0.357 -0.0130  0.1557 -0.1982
15526W        W31600  15.270   5.537   4.635  0.0968 -0.3657 -0.1007
15527W        W31601   6.903  17.740   2.765 -0.2670 -0.0622  0.0477
15528W        W31602  13.685   2.673   6.349  0.0388 -0.0204  0.0383
15529W        W31603  17.089  14.794  12.042 -0.3010  0.2098 -0.1886
15530W        W31604  12.644   2.561  16.505 -0.0889  0.0085 -0.2384
15531W        W31605   5.199  12.731  12.756  0.0363  0.2586 -0.0508
15532W        W31606   4.165   9.755  11.860  0.2258  0.1971  0.2527
15533W        W31607   0.595   8.941  14.819 -0.1508 -0.3763 -0.2711
15534W        W31608   0.503   6.973  12.577 -0.0525 -0.0411 -0.0582
15535W        W31609  12.916   3.997   1.029 -0.0548  0.0140 -0.2508
15536W        W31610  14.685   9.827   5.146  0.2095  0.3958 -0.1350
15537W        W31611  12.093  17.701   1.014 -0.1526 -0.1021  0.2186
15538W        W31612   3.982  13.008   5.705 -0.0598  0.2290 -0.0047
15539W        W31613  16.244   5.902  17.034  0.2213  0.0443 -0.0960
15540W        W31614  16.883   2.469   3.751  0.1637  0.1356  0.1256
15541W        W31615   3.459   1.562   1.079 -0.1861  0.0459  0.1551
15542W        W31616   3.405   8.564  13.176  0.3932  0.1869 -0.0693
15543W        W31617   3.357   1.987  16.263 -0.0380 -0.0433  0.1563
15544W        W31618   7.879   8.412   4.771 -0.3327 -0.0422  0.0258
15545W        W31619   5.416   8.202   3.303 -0.1085 -0.2569  0.0581
15546W        W31620   2.280   4.689  14.894 -0.0129 -0.1243  0.1919
15547W        W31621   4.957   9.618   5.182 -0.1515  0.3296 -0.2309
15548W        W31622  11.854   8.795   0.573 -0.3765  0.0698 -0.1656
15549W        W31623   8.434   1.915   1.694 -0.0652  0.1181  0.0123
15550W        W31624  16.570  13.580   4.651 -0.2222 -0.0952  0.2412
15551W        W31625  11.325  15.541   5.901 -0.3262 -0.0016  0.4200
15552W        W31626   4.616   0.304   4.454  0.0346 -0.1839 -0.1313
15553W        W31627   0.414  15.483  15.429 -0.2630  0.0786 -0.0032
15554W        W31628  16.284  15.174  15.346 -0.0803 -0.2479  0.2104
15555W        W31629   8.074   8.498   5.513 -0.0382  0.0727  0.1482
15556W        W31630   0.131   9.826  16.670  0.3401 -0.0760  0.0412
15557W        W31631  15.155   0.101   4.721  0.2384 -0.1205  0.0565
15558W        W31632   3.057   9.144   4.233  0.0708  0.0271  0.0604
15559W        W31633   8.753  10.890  15.847 -0.0332  0.2527 -0.1084
15560W        W31634  17.483  10.017  11.873 -0.2059  0.1974 -0.0632
15561W        W31635  16.858  12.419  16.067  0.0074 -0.2567  0.4443
15562W        W31636   1.248  15.689   5.197 -0.0832  0.3864 -0.1427
15563W        W31637  17.050  16.279   2.552  0.1324 -0.0842 -0.1679
15564W        W31638  14.301  14.352  16.955 -0.0827 -0.0385  0.1373
15565W        W31639   3.931  15.067   6.253 -0.1135  0.0286 -0.1844
15566W        W31640   4.961   6.681   0.290 -0.0843  0.0298  0.2054
15567W        W31641  12.370  15.148   2.722 -0.2741  0.0798 -0.2753
15568W        W31642   1.407   2.526   1.488 -0.1121 -0.2381  0.1145
15569W        W31643  13.186   9.364  13.814  0.6801  0.1074  0.1547
15570W        W31644   8.795   5.751  15.508 -0.3179 -0.1186  0.1387
15571W        W31645   8.973   6.901  10.713 -0.1227  0.1125 -0.1125
15572W        W31646   6.836   9.112  12.267 -0.1631  0.0912 -0.0727
15573W        W31647   7.519  16.851  15.047 -0.0059 -0.0571  0.3142
15574W        W31648   8.733  13.641   0.607  0.0961 -0.1624  0.1498
15575W        W31649  15.952   2.637  12.949 -0.0437  0.1213 -0.1434
15576W        W31650  12.080   7.611  16.284 -0.0275 -0.2249 -0.1628
15577W        W31651  12.621   1.846  12.192 -0.0058  0.2562  0.3272
15578W        W31652  14.201  10.964  12.466  0.1622  0.0277 -0.4083
15579W        W31653   0.084   5.550  14.370 -0.0487  0.0344  0.1191
15580W        W31654  15.481  13.185  15.687 -0.0446 -0.1117  0.0983
15581W        W31655   9.786  10.362   3.917  0.0467 -0.2963 -0.2150
15582W        W31656   7.788  13.186   5.821 -0.1005 -0.0083 -0.0801
15583W        W31657   1.713   2.681  14.138  0.1944 -0.1992  0.0634
15584W        W31658   0.074   2.937   1.551  0.0661  0.0804  0.0773
15585W        W31659   9.726  10.244   1.927  0.0378  0.0096  0.2616
15586W        W31660   7.702  13.757   2.441  0.0510 -0.0021 -0.1367
15587W        W31661   0.310  11.661  13.729  0.2114 -0.0955  0.0107
15588W        W31662  11.679   8.916   6.384 -0.1175  0.0976 -0.2214
15589W        W31663  11.425  11.985  14.663  0.0943  0.0668 -0.0424
15590W        W31664  16.029   3.803   2.884  0.0484 -0.2885 -0.2199
15591W        W31665  14.247  13.846   2.067 -0.0273  0.2978  0.2052
15592W        W31666  17.350   6.958   0.011 -0.1293 -0.3948 -0.0555
15593W        W31667  17.588  10.911  16.684 -0.1835  0.1771  0.2212
15594W        W31668   3.223   5.662   3.141 -0.0220 -0.1227 -0.0024
15595W        W31669  14.839   9.042  14.629 -0.2120  0.1078 -0.0435
15596W        W31670  16.428   8.026   0.961 -0.1144 -0.2327 -0.1614
15597W        W31671  17.632   4.508   1.319  0.3937  0.0294  0.3791
15598W        W31672   1.054  10.863  12.639  0.1559  0.1360  0.4390
15599W        W31673  14.257  16.917   3.766  0.1228 -0.0297 -0.3848
15600W        W31674   6.982  12.265   5.947 -0.1035  0.0163  0.1430
15601W        W31675  11.651  14.000  12.041  0.0724 -0.1320  0.0778
15602W        W31676   2.636   3.534  14.689 -0.1051  0.4061 -0.1222
15603W        W31677   5.044  10.462   4.317  0.2806 -0.2215  0.0443
15604W        W31678  14.994   0.640   5.412 -0.2459  0.2644 -0.1781
15605W        W31679   1.649   0.875  12.567  0.1044  0.0732  0.0153
15606W        W31680   6.882  10.300  12.099 -0.0598 -0.3479 -0.1307
15607W        W31681   4.934   7.598   4.967  0.3405  0.0155 -0.1313
15608W        W31682   8.691   2.001   5.098 -0.1962 -0.2267 -0.4123
15609W        W31683   6.116   8.301   3.819 -0.0346 -0.3222  0.0755
15610W        W31684  12.578   8.655   4.063  0.3392 -0.0323  0.2617
15611W        W31685   2.383  13.515  16.651 -0.0544  0.0750  0.0028
15612W        W31686   5.107   0.863  15.683  0.1720  0.0863  0.2213
15613W        W31687   9.745  10.251  11.962 -0.1162  0.1484 -0.1721
15614W        W31688   6.160  16.996  12.173  0.2571 -0.2868 -0.3141
15615W        W31689   0.731   5.822  16.988 -0.0250  0.1526 -0.1082
15616W        W31690   6.037  14.610   5.072  0.1524 -0.1000  0.1767
15617W        W31691   0.380   2.778  13.617  0.1528 -0.2908 -0.1057
15618W        W31692   1.679   6.562  15.935  0.1805  0.3951  0.1922
15619W        W31693   5.565  14.690  12.053 -0.0463  0.0101 -0.0613
15620W        W31694  13.464  12.862  16.355  0.0755 -0.2028  0.0754
15621W        W31695  17.506  10.238  14.126 -0.0412 -0.0044  0.2155
15622W        W31696   0.078  16.510   0.238  0.0926 -0.1137  0.1082
15623W        W31697   3.208   9.966   6.049  0.2256 -0.3092  0.1733
15624W        W31698   8.576   6.704   2.991 -0.4119  0.2646 -0.0744
15625W        W31699  12.490  11.085  11.562  0.0282  0.2869  0.1303
15626W        W31700   4.116   2.564   3.721 -0.0312 -0.1223  0.1397
15627W        W31701  17.480   0.715   0.962 -0.1894  0.3425 -0.1403
15628W        W31702   2.810   2.267   4.813  0.0879  0.2611  0.0717
15629W        W31703  17.380   9.555  13.457 -0.0839  0.1554 -0.0824
15630W        W31704  12.267   9.882   5.664  0.0765  0.1373 -0.2641
15631W        W31705  13.770  10.878  15.812  0.1299 -0.2703 -0.2656
15632W        W31706  17.525   0.617  16.375  0.0521 -0.0833  0.0186
15633W        W31707  10.608  11.864   5.411 -0.2443  0.0801 -0.1115
15634W        W31708  11.596  11.686  17.055 -0.2894  0.3181  0.2783
15635W        W31709  10.171  14.421  13.700  0.2168 -0.2114  0.0674
15636W        W31710  16.517  10.386   4.693  0.2578  0.3388 -0.2760
15637W        W31711  10.987   1.702   6.113 -0.1169 -0.1492  0.1919
15638W        W31712   3.467   3.480   0.067 -0.0660  0.1152 -0.4623
15639W        W31713   6.829   2.600   1.704 -0.0942 -0.1462  0.1428
15640W        W31714  15.460  17.507   2.796 -0.1248  0.1832  0.2943
15641W        W31715  12.820  16.910   2.121  0.1235  0.0443 -0.0187
15642W        W31716  16.340  16.812  14.775  0.2163 -0.2160 -0.1341
15643W        W31717   9.289   8.129  14.613 -0.1904 -0.1578  0.2471
15644W        W31718  13.327   5.426   2.996  0.1154 -0.0743 -0.0100
15645W        W31719   7.045   6.629  13.003  0.1392  0.0181  0.0390
15646W        W31720   2.048  13.989   4.533  0.3134  0.0046  0.0574
15647W        W31721  14.044   5.657  13.058 -0.0087  0.0112  0.3578
15648W        W31722   8.647  13.667  14.665  0.1109  0.0968  0.2531
15649W        W31723   2.623  12.909   1.227  0.0459  0.1122  0.2521
15650W        W31724  15.088  16.275  15.394  0.2655  0.2676  0.1635
15651W        W31725  11.935   5.373   1.149  0.0215  0.1504  0.0471
15652W        W31726  10.517  13.084   0.668  0.1466  0.0369 -0.0453
15653W        W31727  11.958  15.106   3.999 -0.2687 -0.1048  0.0170
15654W        W31728  11.989  17.132   5.209 -0.0296 -0.1117 -0.2673
15655W        W31729   5.569   6.237   4.109  0.0995  0.0296  0.1476
15656W        W31730   1.309  12.306  15.223  0.0206 -0.2651  0.1277
15657W        W31731  14.091  10.433  11.356  0.2135 -0.1134 -0.0450
15658W        W31732   6.946  16.285   2.533  0.0447 -0.0623  0.1662
15659W        W31733  10.611   6.133   4.421  0.1613 -0.3124  0.0868
15660W        W31734   7.946  14.054  14.802  0.1688 -0.4176 -0.1232
15661W        W31735  17.319  13.750  11.772  0.1882  0.0115 -0.2119
15662W        W31736  11.114   7.856  12.521 -0.0287 -0.2410  0.0198
15663W        W31737  12.596  14.692   2.727 -0.1087 -0.0545  0.1862
15664W        W31738  11.225  13.212  12.300  0.0463  0.0874  0.0929
15665W        W31739   7.766   8.538   3.597  0.0047 -0.2657 -0.1778
15666W        W31740  14.931   7.305  14.473  0.0248 -0.5046  0.2392
15667W        W31741   4.846   8.227   2.438  0.1068  0.3717 -0.5134
15668W        W31742  11.790  13.357  13.253 -0.0849 -0.0448  0.0356
15669W        W31743   5.054   9.940  13.221  0.3021 -0.1862  0.1642
15670W        W31744   2.863   3.966   3.156 -0.1826  0.2148  0.0075
15671W        W31745   7.102   0.308   1.109  0.0234  0.0507 -0.3529
15672W        W31746   8.685   8.705   2.269  0.5167 -0.3186  0.0274
15673W        W31747   3.195  12.161   0.261  0.2462  0.1444 -0.0853
15674W        W31748   1.602  15.454   2.625  0.2164 -0.0889  0.1337
15675W        W31749  16.730  11.371   2.259 -0.4051  0.2246  0.0657
15676W        W31750   6.223  14.951  15.892  0.1903 -0.1662  0.1567
15677W        W31751   1.016   4.402   2.638 -0.0026 -0.0391 -0.1624
15678W        W31752  16.791  11.605  12.046 -0.0456  0.2390 -0.3800
15679W        W31753  13.507  10.639   1.907  0.2568 -0.2777 -0.0567
15680W        W31754   8.631  14.132   0.377 -0.0383 -0.0622 -0.1089
15681W        W31755   2.872  13.258   5.459 -0.0671  0.0149 -0.1303
15682W        W31756  16.204   3.982  15.756  0.0425 -0.2979 -0.0580
15683W        W31757   7.566   8.625  14.024  0.1301 -0.0137  0.4729
15684W        W31758   7.481   8.433   4.438 -0.3174  0.4094  0.2480
15685W        W31759  15.200  13.353  11.951  0.0279  0.2867  0.0152
15686W        W31760   0.392  17.376   3.079  0.1895  0.0227 -0.2412
15687W        W31761   7.269   8.997   1.148  0.3255 -0.1150  0.0141
15688W        W31762  12.924   6.151   2.625  0.1787 -0.1654 -0.4783
15689W        W31763   6.777  15.159   1.597  0.0814 -0.3024 -0.0567
15690W        W31764  11.580  12.829   2.472 -0.0519 -0.2848 -0.1028
15691W        W31765   5.830  10.481   4.369 -0.0120  0.0199 -0.1038
15692W        W31766  16.677   0.333  15.156 -0.1112 -0.0821  0.0823
15693W        W31767  14.570   2.347   0.853 -0.0494  0.0014 -0.0115
15694W        W31768  15.640  15.004  12.173 -0.1056  0.1434 -0.0654
15695W        W31769   0.920   1.716   2.099  0.0880  0.4720  0.2146
15696W        W31770   1.841   4.133   0.804 -0.1807  0.2072 -0.1416
15697W        W31771   7.400   3.621  13.944 -0.2221 -0.2788  0.0136
15698W        W31772  10.899  16.085   4.340  0.1074 -0.0254 -0.0956
15699W        W31773   4.440   8.629  11.324 -0.1406 -0.0302 -0.1981
15700W        W31774  13.602  15.852   1.786  0.3168 -0.0415 -0.1182
15701W        W31775  11.671   1.017   1.909 -0.1003 -0.0967 -0.1454
15702W        W31776   4.263   8.598   0.614  0.0175  0.0752  0.1213
15703W        W31777   0.796   0.055   4.761 -0.0716  0.0523  0.3179
15704W        W31778   5.801  13.642   2.427 -0.0771 -0.2749 -0.1144
15705W        W31779  16.861   7.458   1.743 -0.4515  0.1327 -0.0261
15706W        W31780  15.183   8.512  13.102  0.2547  0.3097 -0.1620
15707W        W31781  11.705   9.459  12.196  0.0495 -0.2328  0.0804
15708W        W31782  14.242   9.634   5.684  0.2038 -0.0868  0.0226
15709W        W31783   9.366  17.487   5.839  0.3014 -0.0250 -0.2106
15710W        W31784   5.748  13.669   5.270  0.0094 -0.0378  0.1280
15711W        W31785   8.246  11.968  16.495  0.1689  0.3743 -0.0337
15712W        W31786   9.240  14.339  15.550  0.2450  0.0589  0.1217
15713W        W31787  11.879  13.535  15.427 -0.2010 -0.0089  0.2150
15714W        W31788  14.053  12.360  16.233 -0.0666 -0.0952  0.1997
15715W        W31789  17.473  10.522   5.418  0.0664 -0.0946 -0.0484
15716W        W31790   3.274   5.492   2.558 -0.2536 -0.0963 -0.2944
15717W        W31791  17.600  15.228   4.916  0.1256 -0.0810 -0.0553
15718W        W31792   9.446  10.395  16.880 -0.0759  0.1380 -0.2027
15719W        W31793  16.188  17.181   2.949 -0.1620  0.2778  0.0227
15720W        W31794  12.107  11.039   4.723  0.2841 -0.3148 -0.2019
15721W        W31795  11.581   3.121   4.483 -0.0672 -0.0174  0.0629
15722W        W31796   5.768  15.482  15.435 -0.1572 -0.3561 -0.0805
15723W        W31797   9.461   9.698  12.963 -0.0329  0.1257 -0.1010
15724W        W31798   8.419   7.463  12.231 -0.1833  0.3592  0.0710
15725W        W31799   8.112   7.830  13.383  0.1310  0.1959 -0.0738
15726W        W31800   7.433   2.603   2.486  0.2142 -0.1040  0.0672
15727W        W31801   0.370   5.492  15.851 -0.3477 -0.2585 -0.0077
15728W        W31802   1.461  12.105  13.646 -0.0015  0.0387 -0.4025
15729W        W31803  13.168   8.918  15.711  0.2435 -0.0392  0.5378
15730W        W31804  13.709   8.419  14.677 -0.0334 -0.1934 -0.0860
15731W        W31805   8.236   6.773  13.938  0.1452  0.0326  0.1260
15732W        W31806  11.160   4.778  16.209 -0.0447  0.0377 -0.0125
15733W        W31807   8.372   7.235   5.160  0.0191 -0.1774  0.1732
15734W        W31808   8.772   0.662  13.946  0.2636  0.0590  0.2693
15735W        W31809   1.314  16.220  16.934 -0.0666 -0.2659 -0.1901
15736W        W31810   6.290  12.681  16.875  0.2961  0.2342 -0.0600
15737W        W31811  13.952   7.085   4.382  0.0797 -0.1047  0.2393
15738W        W31812   9.623   0.453  11.638  0.1907 -0.0962 -0.0967
15739W        W31813   3.254   1.545   4.515  0.0160 -0.2108  0.0232
15740W        W31814   9.736  12.271   1.413 -0.2511 -0.1913 -0.0787
15741W        W31815   3.009  10.300   5.287  0.2937  0.0598  0.0859
15742W        W31816   5.155   9.332   0.760  0.0204 -0.0036 -0.4683
15743W        W31817  15.647  10.894  15.785 -0.0178 -0.0792  0.0722
15744W        W31818  10.864  14.513   2.515 -0.0752  0.1535 -0.2567
15745W        W31819   1.999   0.400   0.131  0.2674  0.0721  0.1999
15746W        W31820   6.230   1.889  14.774 -0.2864  0.0174  0.2131
15747W        W31821  14.382  16.130  13.532 -0.3831 -0.0060 -0.2143
15748W        W31822  10.565  15.070   3.622  0.4423 -0.2117 -0.0997
15749W        W31823  15.313  11.103   1.155 -0.1132  0.1712  0.1110
15750W        W31824  16.210  13.676  15.488 -0.3079 -0.0915 -0.0693
15751W        W31825   0.494   1.165   0.015  0.1097  0.2128  0.2685
15752W        W31826   7.546  17.209   3.764 -0.0618  0.2513  0.0543
15753W        W31827  17.338  14.064   3.363 -0.2140  0.0369  0.2134
15754W        W31828   4.762   2.467   6.290 -0.1393 -0.1142 -0.0177
15755W        W31829   0.271   7.127  15.347 -0.0310 -0.1678  0.0797
15756W        W31830   9.414  13.109  13.521 -0.0930  0.1437 -0.0035
15757W        W31831  13.762   4.582   5.509 -0.0877  0.1194 -0.0110
15758W        W31832   4.485  15.190  15.862 -0.0931 -0.0250  0.0409
15759W        W31833  17.661   0.472  12.769 -0.1082  0.1286  0.3524
15760W        W31834   0.998  13.576   3.571 -0.0335  0.0343 -0.0780
15761W        W31835  11.702   7.131  14.197  0.0520 -0.1192 -0.1735
15762W        W31836  12.189   8.651   5.360 -0.2372  0.2251  0.0362
15763W        W31837   7.755   3.305  13.726  0.0387 -0.1591  0.0893
15764W        W31838  10.821  14.993   3.200 -0.0356 -0.2926 -0.0016
15765W        W31839   1.876   2.550   6.046  0.1887 -0.2455  0.1969
15766W        W31840  13.709   8.271  13.500 -0.0454  0.0340 -0.1091
15767W        W31841   6.260  12.252  13.964  0.3712  0.2138  0.1967
15768W        W31842   3.217   6.663  16.178  0.1223  0.1921  0.2763
15769W        W31843  14.900   4.951  14.831  0.0380  0.1981 -0.2958
15770W        W31844   8.196  14.904  14.078  0.0694  0.3435 -0.4113
15771W        W31845   6.032  13.282   2.760 -0.3830  0.0253  0.1380
15772W        W31846   2.654   3.057  16.351 -0.1089 -0.3314 -0.0137
15773W        W31847  10.097  17.328  17.025 -0.0031  0.1187  0.0301
15774W        W31848  17.160  17.512  13.116 -0.1833 -0.2308  0.1100
15775W        W31849   1.873   4.378  15.101  0.1301 -0.0746  0.3750
15776W        W31850   5.422   1.145   3.631 -0.1823 -0.0336  0.0363
15777W        W31851   1.130   7.970   3.949  0.1330  0.0612 -0.0346
15778W        W31852  13.203  11.845  16.449  0.0844 -0.1325 -0.0895
15779W        W31853  13.142  10.399  15.861 -0.3729 -0.1530 -0.2254
15780W        W31854   2.123   0.407   5.533  0.0086  0.5120  0.0532
15781W        W31855   7.178  12.220  12.217  0.0250 -0.2198  0.2469
15782W        W31856   8.198   3.813  12.994  0.1564  0.3582 -0.3369
15783W        W31857   5.211   0.163   0.094  0.0826  0.1151  0.0403
15784W        W31858   6.405  16.968   1.194  0.0501  0.1948 -0.2700
15785W        W31859   0.537   4.447  15.961  0.2969  0.2176  0.1165
15786W        W31860   8.674  14.523  14.746 -0.0028 -0.0253  0.1775
15787W        W31861   7.050   6.459  14.339 -0.0892 -0.0142  0.2140
15788W        W31862   2.903   3.456   0.170  0.1856  0.0548  0.1640
15789W        W31863  11.646   7.487   4.032 -0.3445 -0.0202  0.0173
15790W        W31864   0.695  13.691   0.251  0.0320  0.0216  0.0076
15791W        W31865  12.263   8.668   6.375 -0.1114 -0.3764 -0.1041
15792W        W31866  13.931   7.108   4.873  0.1028  0.0826  0.3021
15793W        W31867   4.355  12.656  11.405 -0.0005 -0.1872 -0.0058
15794W        W31868   0.274  16.863   2.387 -0.1044 -0.0617  0.2451
15795W        W31869   9.992   5.375   4.236  0.1297  0.0919  0.1127
15796W        W31870  14.184   2.336  12.980  0.0527  0.1274  0.0792
15797W        W31871   3.484  11.496  14.610  0.0899 -0.2009 -0.0339
15798W        W31872   1.401  12.115   2.577 -0.0349  0.1541  0.1468
15799W        W31873   9.688  10.285  14.060 -0.0771 -0.1743 -0.1055
15800W        W31874   3.587  15.064  13.040  0.1784  0.1105  0.0497
15801W        W31875  11.830  16.245  15.085 -0.1031 -0.1607  0.0151
15802W        W31876   4.596   6.716   0.892  0.0606  0.1150 -0.1125
15803W        W31877  10.556   2.214  15.081  0.0800  0.0756  0.1397
15804W        W31878  17.502  16.079   3.852  0.2587 -0.0206  0.0438
15805W        W31879  11.777  15.485  15.583 -0.1604 -0.1372  0.0989
15806W        W31880   7.282   3.846  16.247 -0.1348 -0.0365 -0.2755
15807W        W31881  15.500   2.790   4.711  0.4371  0.0831 -0.0578
15808W        W31882   3.826  14.098  10.762 -0.0747 -0.0100  0.1846
15809W        W31883   5.661   7.432  14.066  0.0940  0.1611 -0.0326
15810W        W31884  13.737   7.924   1.963 -0.5047 -0.0262  0.1592
15811W        W31885   4.581   9.143   3.914 -0.3004 -0.0904 -0.0069
15812W        W31886  11.645  15.219  14.594 -0.1202 -0.0015 -0.0785
15813W        W31887   1.207   7.158   4.917 -0.1822  0.0347  0.0000
15814W        W31888  14.019  15.588   3.764  0.0595 -0.0953 -0.0692
15815W        W31889   1.774  10.046   3.251  0.2566 -0.0865  0.0801
15816W        W31890   9.959  15.130   4.417  0.1055  0.0503 -0.1355
15817W        W31891   3.885   7.924   3.367 -0.2556 -0.0358  0.2823
15818W        W31892   8.080   6.089  11.901 -0.1024  0.0535 -0.0761
15819W        W31893   6.258  14.990  12.472 -0.2189  0.1512 -0.2788
15820W        W31894   1.022   4.960   1.307 -0.2714  0.1709 -0.1296
15821W        W31895  17.672   6.661   4.508  0.0369 -0.0573  0.0877
15822W        W31896   1.774  10.578   1.469  0.2615 -0.1533 -0.0878
15823W        W31897  10.622   9.585   2.615 -0.3766 -0.0900  0.3296
15824W        W31898   3.049   7.858  13.653 -0.2161  0.0511 -0.1301
15825W        W31899  15.143  16.269   2.081 -0.0160  0.1112  0.1491
15826W        W31900   7.944  11.687  15.189  0.2799  0.2953 -0.1641
15827W        W31901  11.496   3.630   0.767 -0.1787  0.2391 -0.0540
15828W        W31902   8.669   9.697   1.023  0.1732  0.1837  0.1178
15829W        W31903  11.612   3.885   0.310  0.1078  0.2897  0.2318
15830W        W31904   5.585  12.722  12.361  0.2321 -0.2342  0.0354
15831W        W31905   0.260   7.182   0.012 -0.0961 -0.1652  0.0220
15832W        W31906   9.751  16.022  16.232 -0.0643  0.0295 -0.1958
15833W        W31907  16.985   1.099   2.008  0.1121 -0.3456 -0.2771
15834W        W31908  13.301  14.746  15.560 -0.3453 -0.0164 -0.2316
15835W        W31909   0.210   8.148  13.135 -0.3066 -0.1180  0.0519
15836W        W31910   6.327  16.525   0.107 -0.3483  0.2667  0.2090
15837W        W31911  12.491   8.515  14.298 -0.1589 -0.0991 -0.0383
15838W        W31912  12.333  13.341   3.556 -0.1395  0.3100 -0.0284
15839W        W31913  12.618   1.815   5.241  0.0415  0.0686  0.0936
15840W        W31914   5.619   5.615  16.159  0.0331 -0.1762  0.1259
15841W        W31915   2.699  11.907  15.042  0.1237  0.1211  0.1780
15842W        W31916  11.077   3.720  12.391 -0.1232  0.1943  0.0349
15843W        W31917   7.215   2.653  17.051  0.1278 -0.0349 -0.0154
15844W        W31918  17.349   3.150   0.629 -0.2901 -0.0975  0.0387
15845W        W31919  17.062  10.312  11.943 -0.1793 -0.1034  0.3047
15846W        W31920   1.611  11.101   1.569 -0.0118  0.1217  0.1914
15847W        W31921  10.368   0.866  12.565  0.0448 -0.1129  0.1199
15848W        W31922   1.912   1.440   0.240 -0.0520 -0.0756 -0.0752
15849W        W31923   3.086  16.841  13.999  0.2031  0.1347  0.1466
15850W        W31924   5.462   7.324  16.741 -0.0941  0.1162 -0.1511
15851W        W31925   4.215  16.710  16.207  0.0071 -0.1576 -0.0296
15852W        W31926   7.219   1.545   1.702  0.2434 -0.0916  0.1245
15853W        W31927   4.248  10.640   2.197 -0.1049 -0.0645 -0.1530
15854W        W31928   7.036  14.250   2.347  0.1620 -0.0866 -0.0554
15855W        W31929  10.982  16.643   2.117  0.1826  0.0407 -0.0751
15856W        W31930  15.613   0.552   5.414  0.0694  0.2753 -0.1872
15857W        W31931   3.065  12.445   3.493  0.1265 -0.1486  0.3081
15858W        W31932  13.097   8.278  15.608 -0.0136 -0.0220  0.0983
15859W        W31933   5.266   8.691   4.962 -0.2260  0.0336 -0.1158
15860W        W31934   6.861   0.319  15.612 -0.2633 -0.0671  0.0733
15861W        W31935   4.297   0.425  12.835 -0.1424 -0.4880 -0.0175
15862W        W31936  14.405   5.876  11.963 -0.2327 -0.0174 -0.1303
15863W        W31937  15.765  11.861   0.497  0.0998  0.2270  0.1302
15864W        W31938   1.385  17.509   2.326  0.0020 -0.2416  0.0948
15865W        W31939  12.364  10.496  17.121  0.1539 -0.0211  0.0088
15866W        W31940   4.914  11.758   5.630 -0.1742  0.1226  0.2663
15867W        W31941   2.242   7.215   4.719 -0.3513  0.0101  0.2851
15868W        W31942   3.915   0.904  13.165 -0.2098  0.1871 -0.3116
15869W        W31943  13.660   1.902   2.012 -0.1766 -0.3027  0.2228
15870W        W31944  10.688  14.103  12.688 -0.4048 -0.0278 -0.0553
15871W        W31945   2.419   0.214  17.075 -0.0109  0.1784  0.0896
15872W        W31946  11.376   7.176  16.190  0.0938  0.3472 -0.2079
15873W        W31947  10.345  11.529   5.686 -0.0288 -0.1055 -0.4019
15874W        W31948  17.612  12.835   5.547 -0.1714 -0.2201 -0.0055
15875W        W31949   5.369  14.173  13.001 -0.3217  0.1761  0.0522
15876W        W31950   8.769  14.187  15.506  0.1369 -0.0135 -0.1618
15877W        W31951  12.674  11.185   1.803 -0.1446  0.1273 -0.0038
15878W        W31952  13.467  16.168   5.740 -0.0476 -0.0840 -0.1543
15879W        W31953   3.506  14.940  14.269  0.0161  0.1909 -0.1237
15880W        W31954   0.007   6.905  12.515  0.0970  0.2092  0.1714
15881W        W31955  13.883   5.035   4.571  0.2389 -0.0881 -0.0251
15882W        W31956  11.395   1.487  14.922 -0.0744 -0.0352  0.1353
15883W        W31957   1.625   1.564  13.119 -0.1872  0.0713  0.2411
15884W        W31958  14.422   2.233  13.424  0.2104 -0.2424  0.1376
15885W        W31959  13.527   3.993   4.711  0.0879  0.0849  0.2340
15886W        W31960  16.815  15.018   2.085 -0.1559  0.0767 -0.0154
15887W        W31961   0.283   9.567   0.911  0.0142 -0.2650  0.0735
15888W        W31962   8.992   5.712  14.652 -0.0243  0.2120  0.0360
15889W        W31963  14.975  14.109   0.992  0.1143  0.1290  0.0531
15890W        W31964   0.195   4.877   2.291  0.3671 -0.1635  0.2229
15891W        W31965  16.953  13.704  15.060 -0.4274 -0.0559 -0.0344
15892W        W31966  10.600   3.770  15.705  0.2518 -0.0927  0.0566
15893W        W31967   8.532   9.646   2.494  0.1318  0.0202  0.1582
15894W        W31968  13.400  13.684   1.476  0.2869  0.4225 -0.0879
15895W        W31969   9.390   0.536  12.119 -0.1919  0.1053  0.3909
15896W        W31970   8.914  14.245  16.012  0.2383  0.2114 -0.0897
15897W        W31971  12.248   9.993  13.852  0.0020  0.2838 -0.1590
15898W        W31972  13.734   3.952   5.589 -0.3300  0.3544  0.1000
15899W        W31973   0.833   9.487  12.097  0.1626  0.2254  0.1009
15900W        W31974  14.993   7.233   4.241  0.2354  0.0334  0.4103
15901W        W31975  17.666  12.608   1.023 -0.1169  0.0487  0.3076
15902W        W31976   0.018  15.630   4.252 -0.1767  0.3052  0.3285
15903W        W31977   4.188   9.524   3.704 -0.0818  0.1798 -0.2140
15904W        W31978  11.451  15.065   0.690  0.0486  0.1629 -0.1120
15905W        W31979  16.665  12.067   2.928 -0.1981  0.0804  0.0410
15906W        W31980  10.360  13.374  13.223 -0.2691 -0.0071  0.1676
15907W        W31981   7.761   9.280  13.614  0.0683 -0.2340  0.2188
15908W        W31982   2.904  17.611   5.075  0.0264 -0.2581 -0.2022
15909W        W31983   9.904  10.218  17.082  0.1601  0.1186 -0.0146
15910W        W31984   1.069   7.523   3.211  0.2565 -0.0450  0.0229
15911W        W31985  13.501  14.097   5.301  0.0677  0.1708 -0.0778
15912W        W31986  10.218   0.582   0.931  0.0545  0.2485  0.0632
15913W        W31987   1.113   4.315  14.289 -0.1312  0.1236  0.2649
15914W        W31988   0.309  15.301   3.345  0.1465 -0.0841 -0.2778
15915W        W31989  14.641   0.967  14.781  0.2625  0.0149  0.0469
15916W        W31990   2.956   1.262   0.410  0.1801  0.2473 -0.1617
15917W        W31991  15.886   4.215  11.740  0.0257 -0.0329  0.0212
15918W        W31992  17.411  17.535  16.644  0.1634  0.0825 -0.1093
15919W        W31993   5.710  13.133   5.136  0.1012  0.0505  0.2085
15920W        W31994  14.909   0.120  15.891 -0.3547 -0.1208 -0.2248
15921W        W31995  13.306   8.874  12.909  0.1290  0.3036  0.0560
15922W        W31996  10.176   9.177   0.451 -0.0527  0.0529 -0.3157
15923W        W31997  15.725   9.411   5.618 -0.1624  0.3267  0.1804
15924W        W31998   6.460   4.859  16.478  0.0995  0.2264  0.0998
15925W        W31999  10.457   3.502  16.988  0.1636  0.0280  0.2449
15926W        W32000   7.658   5.624   2.676 -0.0999  0.0822  0.1042
15927W        W32001   5.802  12.598   2.805 -0.3834 -0.0322 -0.5365
15928W        W32002  10.954  10.612  12.372  0.1529  0.1885 -0.1834
15929W        W32003   9.046   1.109   4.096  0.1157  0.0799  0.0532
15930W        W32004  16.503  17.487  17.158 -0.2924 -0.3994  0.0352
15931W        W32005   6.935   8.570   3.282 -0.1394 -0.0076  0.2209
15932W        W32006  16.501   9.674  12.897  0.2684  0.1856  0.1874
15933W        W32007   5.431  14.518   2.525 -0.2605 -0.1736 -0.0277
15934W        W32008   8.722  16.203   0.536 -0.0053 -0.0650 -0.0530
15935W        W32009  11.397   4.005  13.605 -0.1726  0.0351 -0.0765
15936W        W32010  16.665   4.795   3.983  0.1235 -0.0013  0.2442
15937W        W32011  12.807  13.953   2.083  0.3391  0.0840  0.3021
15938W        W32012   4.525   8.134   0.410  0.0248 -0.1095 -0.0074
15939W        W32013  16.989  10.011  14.773 -0.3077 -0.0660 -0.1744
15940W        W32014   3.432  10.932  16.578 -0.1865 -0.3125 -0.0269
15941W        W32015   9.933  17.145  12.693 -0.3301 -0.1147  0.1311
15942W        W32016  14.634   1.808  15.817 -0.1168  0.1944 -0.0327
15943W        W32017   4.423   9.764  12.472  0.0286  0.0381  0.3276
15944W        W32018   5.507   6.450  14.592 -0.0167 -0.0195  0.0579
15945W        W32019   0.720   8.987  12.050  0.1804 -0.1989 -0.1426
15946W        W32020   0.338   5.987  15.730 -0.0497 -0.0962  0.1281
15947W        W32021  11.860   8.171   2.650  0.0975 -0.0298  0.0339
15948W        W32022   2.118  13.059   1.057 -0.1406  0.0253  0.2328
15949W        W32023  16.826  15.431   0.809 -0.1386 -0.1487 -0.0027
15950W        W32024  12.769   5.554   6.105 -0.2042 -0.1231 -0.1742
15951W        W32025   9.288   7.920   0.996  0.0233 -0.1949  0.1250
15952W        W32026   2.636   9.059   5.591 -0.2060  0.0710  0.1160
15953W        W32027  13.293   2.420  11.882 -0.2558  0.1979  0.0940
15954W        W32028  16.540  15.759   4.960 -0.2782 -0.1517 -0.0683
15955W        W32029   1.544   2.176  16.660  0.1443 -0.1423 -0.0424
15956W        W32030   3.502  13.068   1.788 -0.4366 -0.0355 -0.0164
15957W        W32031   5.741  13.745   0.573  0.0578 -0.0754  0.2591
15958W        W32032   9.866   3.504   1.886  0.0098  0.2319 -0.1281
15959W        W32033  16.156  13.837   1.513  0.1337  0.4613  0.4262
15960W        W32034  11.647  15.294   1.617 -0.4500  0.4312 -0.2822
15961W        W32035   9.233   3.561  14.990 -0.0588 -0.0059  0.1763
15962W        W32036  13.796  16.583   4.922  0.0089  0.2244  0.0371
15963W        W32037  13.340  10.606  12.721 -0.2530 -0.0102 -0.3284
15964W        W32038  11.219   3.140  15.329  0.2392 -0.0629 -0.2177
15965W        W32039  15.841   0.177   5.222 -0.2038 -0.0686  0.2541
15966W        W32040  12.069   7.884  13.950  0.0673  0.2130  0.3389
15967W        W32041   5.797   9.366   6.083  0.0440  0.1634  0.0467
15968W        W32042   4.981  10.088   3.923 -0.3809 -0.1038  0.0075
15969W        W32043   2.316  12.606   3.981  0.1429  0.2143 -0.3360
15970W        W32044  11.881  11.176   0.180 -0.4821  0.1969  0.2097
15971W        W32045   0.860   3.248  13.351  0.2324  0.0744 -0.1315
15972W        W32046  11.871  12.204   2.932  0.1050  0.0840 -0.1654
15973W        W32047  12.267  13.637   2.148 -0.4093 -0.0117 -0.3884
15974W        W32048  13.485  15.568  14.444 -0.1683  0.0132  0.0669
15975W        W32049  17.346  12.081  14.196 -0.2274  0.2609 -0.0281
15976W        W32050  16.192  14.527  13.092  0.1289  0.0977 -0.2372
15977W        W32051  12.115   2.285   1.533  0.2949 -0.0712 -0.4037
15978W        W32052   8.539  16.639   0.325 -0.0448 -0.2815 -0.4888
15979W        W32053   9.848  11.438  14.804 -0.0820 -0.0197 -0.0273
15980W        W32054   4.897  14.594  16.255 -0.0826 -0.0383 -0.1576
15981W        W32055  10.709   5.403   2.299  0.1760  0.1036  0.0148
15982W        W32056   5.616  14.141  16.467 -0.1459 -0.0950 -0.4359
15983W        W32057  12.276   9.417  15.911 -0.0820 -0.1012 -0.4512
15984W        W32058  12.926   6.543  15.761  0.1299  0.0155 -0.1447
15985W        W32059  11.101   9.814   3.548  0.1912  0.1170 -0.3469
15986W        W32060   8.456  15.848   3.919  0.0742 -0.0912  0.1097
15987W        W32061   9.475  15.128   0.246 -0.2297 -0.2591  0.2220
15988W        W32062   1.071  17.254   2.880 -0.0333  0.0600 -0.2859
15989W        W32063   8.527   6.120  12.134 -0.2777  0.1455  0.0570
15990W        W32064  10.227   7.312   5.310 -0.1541  0.1887  0.1717
15991W        W32065  12.163  10.290  16.154  0.0214  0.0636 -0.1677
15992W        W32066   0.370   6.023   0.878  0.2706  0.0941  0.1130
15993W        W32067   2.434   5.122  15.172 -0.0171  0.3357  0.1299
15994W        W32068  11.479   0.535   5.090 -0.2099  0.2242 -0.1082
15995W        W32069  16.264  12.745  12.144  0.0244  0.1014  0.2412
15996W        W32070  15.012   1.418   0.731 -0.2854  0.0708 -0.0534
15997W        W32071   1.571   1.732   4.338 -0.2271  0.0953  0.0453
15998W        W32072  11.575  10.396   0.529 -0.0524 -0.1609 -0.0204
15999W        W32073  14.364   3.195  13.262 -0.2815  0.1092 -0.2500
16000W        W32074  13.714   1.105   3.850  0.1704 -0.1094 -0.1431
16001W        W32075  17.674   1.540  15.347 -0.0963  0.1008  0.2763
16002W        W32076  10.223   4.599  12.013 -0.1692  0.1663 -0.2631
16003W        W32077   3.579   3.787   1.513 -0.1819  0.0660  0.1515
16004W        W32078  17.098   6.595  16.981 -0.1402 -0.0099 -0.0304
16005W        W32079   8.393   3.541   3.627  0.1398 -0.0569  0.0539
16006W        W32080  13.690   7.490   4.228  0.0030  0.0307  0.1386
16007W        W32081   6.714   2.576   4.379  0.1041  0.0807  0.2178
16008W        W32082  11.641   0.986  12.004 -0.1310  0.1174 -0.0368
16009W        W32083  17.654  14.177   2.847  0.0287 -0.3168  0.0244
16010W        W32084   8.876   0.544   3.268 -0.0849  0.0873  0.1148
16011W        W32085   6.359   7.275  12.691  0.3834  0.2783  0.0348
16012W        W32086  17.562   9.318   4.209  0.0267  0.0117  0.2924
16013W        W32087  11.445   4.262   5.427 -0.2009 -0.1089  0.0587
16014W        W32088   4.291   2.060   0.189 -0.1669 -0.1815  0.1181
16015W        W32089   5.280   1.325   1.576 -0.0584 -0.0008 -0.1735
16016W        W32090  11.863  13.998   0.038  0.1377 -0.0308  0.0772
16017W        W32091   3.452  14.593  12.286 -0.0966  0.1747  0.3035
16018W        W32092  15.111   0.969  16.939  0.0498 -0.0223 -0.0609
16019W        W32093  12.371   1.708   0.097 -0.2076  0.0322 -0.0581
16020W        W32094   9.542  12.238   2.614 -0.2118 -0.0863 -0.0276
16021W        W32095   3.169   6.715   4.539 -0.5478  0.1003 -0.2864
16022W        W32096   8.039   2.912  16.622  0.3528  0.1930  0.0587
16023W        W32097   5.358   1.420   2.517 -0.0457  0.3370  0.0071
16024W        W32098   4.390   9.239  16.650  0.0444  0.2179  0.2456
16025W        W32099   4.848  15.263   0.339  0.2104 -0.0930 -0.1416
16026W        W32100  11.597   3.718  15.498 -0.1149  0.0107 -0.2593
16027W        W32101   8.687  12.716  14.236 -0.3448  0.3064 -0.4287
16028W        W32102  15.472   1.416   5.037  0.0641  0.1098  0.1882
16029W        W32103  14.655   5.991   4.004 -0.0121  0.0804 -0.2124
16030W        W32104  16.474  16.780   1.011  0.0040  0.0562  0.0112
16031W        W32105  17.508   4.148   3.607 -0.1122 -0.0259 -0.1496
16032W        W32106   2.386   1.393   0.083 -0.0159  0.1303  0.0872
16033W        W32107  11.897  16.291   2.248 -0.2105 -0.0142 -0.0605
16034W        W32108  12.851   6.246  11.506 -0.0633 -0.0658  0.0680
16035W        W32109   7.815   9.132  14.969 -0.1679 -0.0993 -0.2109
16036W        W32110   5.186   8.963  12.950  0.0480 -0.0385 -0.2724
16037W        W32111   5.466   6.253  13.836 -0.0062  0.1799  0.3793
16038W        W32112  13.085  14.556  12.570 -0.0392  0.2855  0.0407
16039W        W32113  14.054   8.560  15.744  0.2798  0.0088  0.2377
16040W        W32114  10.203  15.630  16.335 -0.2322  0.2984 -0.1400
16041W        W32115   3.144  15.001  15.777  0.2377  0.0563 -0.2043
16042W        W32116  11.395   5.282   5.973  0.0831  0.1659 -0.0658
16043W        W32117   7.371   4.143  11.893 -0.1757  0.2714  0.0706
16044W        W32118  14.878   6.341  16.729 -0.2545  0.1206  0.0426
16045W        W32119  10.695  13.931   3.616  0.2743 -0.0857  0.0210
16046W        W32120  14.669   0.974  15.292  0.1848  0.0474 -0.3683
16047W        W32121  13.820   5.166   5.478  0.2141 -0.2912  0.0103
16048W        W32122   5.768  11.463   2.871 -0.1319  0.2144 -0.0891
16049W        W32123  13.410   2.671   0.799  0.0373  0.2958 -0.0904
16050W        W32124  13.570   8.961  15.014  0.0792  0.0411 -0.0796
16051W        W32125  12.868  11.651  15.240 -0.0746  0.1703 -0.0080
16052W        W32126   3.552   6.136  17.129  0.0799 -0.1510  0.1908
16053W        W32127  12.339  17.594  13.702  0.1236 -0.1107 -0.2559
16054W        W32128  16.499   3.208   2.330 -0.0074 -0.1587  0.4232
16055W        W32129   4.334   3.284   2.479 -0.1091  0.2044 -0.2085
16056W        W32130  15.851   1.427  16.186  0.3374  0.1085 -0.1093
16057W        W32131   8.360  16.118   1.790 -0.1746 -0.0493 -0.3774
16058W        W32132  10.496   3.763   3.333  0.1398  0.0569 -0.0853
16059W        W32133  13.994   8.770   4.999 -0.3287 -0.0042  0.1356
16060W        W32134  12.138   6.390   1.393  0.0159 -0.0275  0.2273
16061W        W32135  13.701  14.708   4.438  0.5100  0.0270 -0.0474
16062W        W32136  16.767   6.067  13.016  0.4005 -0.0384  0.0727
16063W        W32137   0.667   6.492   6.039 -0.1238 -0.2824  0.0312
16064W        W32138   5.704   2.559  12.641 -0.0358 -0.1583 -0.0223
16065W        W32139   8.718   7.482  16.232  0.0081  0.0261  0.0113
16066W        W32140   7.289  13.142   4.843  0.2636  0.1742 -0.1310
16067W        W32141  17.612   1.401  13.860 -0.1354 -0.1381 -0.0924
16068W        W32142   7.398   3.627   1.026  0.0847 -0.1519 -0.0306
16069W        W32143   1.916   6.054   5.254  0.0301 -0.0322  0.0823
16070W        W32144   2.857  14.949   0.158  0.0260 -0.1541 -0.0481
16071W        W32145  14.729  15.807  13.717 -0.1018  0.3608 -0.2707
16072W        W32146   9.446   7.493   0.667 -0.0070 -0.0440 -0.1248
16073W        W32147   8.455   4.654  16.489 -0.3210 -0.1240  0.0862
16074W        W32148   4.002  15.367   3.279 -0.1163 -0.1129 -0.0997
16075W        W32149  13.202   5.161   2.471 -0.0279 -0.0197 -0.0226
16076W        W32150   5.471   7.429   5.094 -0.0688 -0.0381  0.1810
16077W        W32151   0.512   4.093   0.578  0.1735  0.1005  0.1585
16078W        W32152  17.360   4.749  12.456 -0.0068  0.2356 -0.1088
16079W        W32153  11.110   3.103   2.010  0.3047 -0.0875 -0.1521
16080W        W32154   9.306   1.317   5.881 -0.1305 -0.3991  0.0949
16081W        W32155   2.149  10.448  12.626  0.0258  0.2267 -0.0640
16082W        W32156   7.156   6.033   2.407 -0.2582 -0.1069  0.0292
16083W        W32157   2.322  11.332   6.662 -0.0030  0.0675  0.0062
16084W        W32158  14.501   5.654   4.409  0.2385  0.0499 -0.1034
16085W        W32159   3.328   6.780  12.621  0.1928  0.0015 -0.1083
16086W        W32160   6.340   2.580   1.546 -0.0547 -0.1683  0.3907
16087W        W32161  12.257  17.208  15.400 -0.2084  0.0356 -0.1018
16088W        W32162   9.443   8.537   4.950  0.2530  0.2201  0.0554
16089W        W32163  13.955   1.764  11.901 -0.3578  0.0745 -0.0757
16090W        W32164   0.251   4.298   1.514 -0.0515 -0.0608 -0.1269
16091W        W32165   3.053  16.755   5.041  0.0823  0.2765  0.0272
16092W        W32166   5.175  12.355  14.886  0.2358  0.1223 -0.1438
16093W        W32167   4.086   7.529  13.526  0.1319 -0.1710  0.4614
16094W        W32168  14.816   8.310   0.590  0.0143 -0.1240  0.1863
16095W        W32169   1.615   0.215  16.657  0.1027 -0.1634  0.0372
16096W        W32170   8.415   0.496   4.272  0.0896 -0.2897  0.1276
16097W        W32171   1.516   9.265   0.856  0.0024 -0.1621  0.1083
16098W        W32172  14.396  12.810  16.892  0.1061 -0.0499  0.1181
16099W        W32173   3.450   2.962  14.939  0.0830  0.2081 -0.0727
16100W        W32174   5.586   6.304   1.579  0.2593 -0.1061 -0.2985
16101W        W32175   4.009   7.670   4.131 -0.2334  0.3121 -0.3150
16102W        W32176   3.913  12.492   2.244 -0.0228 -0.2422 -0.0378
16103W        W32177   3.799  13.355  15.560 -0.2548 -0.2663 -0.0705
16104W        W32178   0.681   8.129  15.404  0.4136 -0.2390 -0.1251
16105W        W32179   2.196  16.204   6.348  0.0036 -0.0372 -0.1584
16106W        W32180  15.151  16.333   0.343  0.0221  0.0295 -0.0566
16107W        W32181   0.420   8.058  13.594  0.2330 -0.1334 -0.1109
16108W        W32182   3.835  14.544   5.359  0.3539 -0.0726  0.0817
16109W        W32183  10.283   1.331   3.532 -0.0728 -0.1254 -0.2394
16110W        W32184  11.212   2.075  16.343  0.0220  0.3938 -0.2572
16111W        W32185  14.599  16.000  16.012  0.0198 -0.1256 -0.1354
16112W        W32186  11.102   3.273  12.063  0.0955  0.1183  0.0391
16113W        W32187   1.851   3.146   2.243  0.3844 -0.1446 -0.3176
16114W        W32188   3.887   4.456   3.377 -0.0442  0.0395 -0.0044
16115W        W32189   7.883  10.803   1.547  0.0687  0.1537 -0.0088
16116W        W32190  15.236  12.823   5.981 -0.2997 -0.2158 -0.5206
16117W        W32191  17.179   9.030  12.314 -0.0109  0.1067 -0.0508
16118W        W32192  10.811   9.402   1.838 -0.1301 -0.1042  0.2615
16119W        W32193   1.319  16.056  11.831 -0.3535 -0.2754  0.1951
16120W        W32194   5.565   9.948   0.946 -0.2275  0.2769 -0.0566
16121W        W32195  17.012  11.868   3.874  0.1916  0.1779  0.3039
16122W        W32196  13.778   6.698   4.090  0.3851  0.1325 -0.1496
16123W        W32197   9.216   8.307  12.002  0.0919  0.2449 -0.3540
16124W        W32198   4.389   9.215   5.020  0.1847 -0.0179 -0.1144
16125W        W32199   4.843   0.365   0.403  0.0083  0.1231 -0.1352
16126W        W32200   3.191  17.592  16.093  0.0317 -0.0486  0.1879
16127W        W32201   7.197  12.179   0.033 -0.1664 -0.0081 -0.1980
16128W        W32202   5.879   4.203  13.785  0.0312 -0.1908 -0.3721
16129W        W32203  15.361   4.895  16.202  0.1093 -0.0039 -0.1856
16130W        W32204  15.321  12.111  11.929 -0.3251  0.1366  0.2986
16131W        W32205   2.749   6.783  15.747  0.2817 -0.2826 -0.4192
16132W        W32206   3.042  11.325  13.326  0.1704 -0.0285 -0.0530
16133W        W32207   4.552  11.823   6.050  0.3106  0.2078 -0.0257
16134W        W32208   9.542  11.724  14.478  0.3236 -0.1874 -0.2426
16135W        W32209   6.669   8.445   0.551  0.0071  0.0948  0.0710
16136W        W32210   0.767   1.484  15.973 -0.0498 -0.0949  0.0319
16137W        W32211  17.717  11.423   0.033  0.1319  0.2448 -0.2190
16138W        W32212   0.566  12.456   3.533  0.1484  0.4431  0.1416
16139W        W32213   5.124  14.074   4.223 -0.1162  0.0370 -0.0310
16140W        W32214   2.840  10.940  14.880  0.1982  0.0909 -0.2941
16141W        W32215  15.252   7.529   2.733 -0.1010  0.0740  0.2613
16142W        W32216   8.308   9.200  16.186 -0.1814 -0.0683  0.1942
16143W        W32217  12.408   6.273   0.582  0.0440 -0.2805 -0.0779
16144W        W32218   6.189   0.657   2.051 -0.0519 -0.0173  0.0270
16145W        W32219  13.081   5.945   3.072  0.1375 -0.4911  0.0719
16146W        W32220  12.974  12.968   2.258  0.1555  0.0024 -0.1999
16147W        W32221  10.506   6.579   3.683 -0.1900 -0.1772  0.2121
16148W        W32222   5.567   9.808   4.794 -0.1377 -0.0361 -0.0062
16149W        W32223   1.020  10.568   6.104 -0.1505  0.1808  0.0671
16150W        W32224   4.742  14.727   4.898  0.3639 -0.0011  0.2451
16151W        W32225  12.845   7.060  12.422  0.1223 -0.1876 -0.4169
16152W        W32226  12.613   9.084  16.920 -0.0619  0.6517 -0.1566
16153W        W32227   9.437   9.653  14.596  0.0440 -0.2342 -0.1278
16154W        W32228  16.091   1.388  14.661 -0.2550 -0.4056 -0.1646
16155W        W32229   9.299   5.081   1.583  0.2013  0.0739 -0.0929
16156W        W32230  13.455  14.753  14.182  0.1598  0.2546 -0.0773
16157W        W32231  14.350   1.638  13.656  0.1766 -0.0143 -0.0288
16158W        W32232   8.286  15.727  16.942 -0.1068 -0.4998  0.0243
16159W        W32233  13.468   2.205   4.818  0.3323 -0.0200  0.2106
16160W        W32234  15.941   0.411   2.292  0.3081 -0.1620  0.1307
16161W        W32235  17.257   7.795   1.710  0.1863 -0.2781  0.1514
16162W        W32236   3.079   8.762  14.735  0.1311 -0.0084  0.2636
16163W        W32237  16.714  13.340   0.476  0.1724 -0.1370  0.0685
16164W        W32238   1.673  10.808  16.452  0.1167  0.0722  0.0917
16165W        W32239   2.616   4.372  13.077  0.2659 -0.1093  0.1156
16166W        W32240   4.262   8.094  11.132  0.0440  0.0050  0.0438
16167W        W32241  13.715  10.927  14.705 -0.0362 -0.0477 -0.0774
16168W        W32242  10.612   3.262   3.381  0.1541 -0.1884  0.0881
16169W        W32243  15.890   8.965  13.391  0.2033  0.0781 -0.1139
16170W        W32244  13.127   1.914   4.531 -0.3272  0.0073  0.1667
16171W        W32245  15.001   2.410  15.524  0.2146 -0.0103 -0.0683
16172W        W32246  14.559   0.685  15.741  0.1311  0.2262  0.1027
16173W        W32247   7.588   9.623  13.337 -0.1145 -0.0143  0.3054
16174W        W32248   8.273  10.052   2.639 -0.0731 -0.4090 -0.0450
16175W        W32249   6.949   3.361  13.887  0.0854 -0.1700 -0.3933
16176W        W32250  10.211  12.846  11.994  0.2940  0.0054  0.1585
16177W        W32251   6.252  11.397  14.067  0.0919  0.0374  0.0469
16178W        W32252  11.259   7.682   3.769  0.1993  0.0078  0.2234
16179W        W32253   9.122  14.743   5.215  0.0362 -0.1984 -0.0501
16180W        W32254   8.409   6.585   3.413  0.1376  0.1610 -0.0774
16181W        W32255   7.444  15.981  12.150 -0.0653 -0.0947  0.0730
16182W        W32256   6.412   0.004   2.567 -0.1741  0.1172 -0.3619
16183W        W32257   8.448   5.482   0.757 -0.1495  0.0564  0.1451
16184W        W32258   4.578   2.940  16.964  0.0679  0.2069  0.2846
16185W        W32259   8.301   8.690   4.992  0.0581  0.1551  0.0616
16186W        W32260  14.723   5.197   0.254 -0.1078 -0.0114 -0.2341
16187W        W32261  11.265   2.742   0.722 -0.0515 -0.1269 -0.3805
16188W        W32262  14.225  13.453   4.975  0.0100  0.1500 -0.0207
16189W        W32263  15.624   9.076   3.439 -0.1260 -0.2884 -0.0481
16190W        W32264   1.572  12.789  15.299 -0.0226 -0.0258 -0.0050
16191W        W32265   0.079   8.081  16.516 -0.2141  0.3459  0.0921
16192W        W32266  11.326  11.926  11.818 -0.1373 -0.0521 -0.0935
16193W        W32267  14.593   0.660   2.271  0.1436  0.2815  0.0569
16194W        W32268   8.797   5.145   1.531 -0.1561  0.0585 -0.1799
16195W        W32269   0.437  14.099  13.611  0.1037 -0.3352 -0.1566
16196W        W32270  16.266   8.339   5.879 -0.3449 -0.2120 -0.2891
16197W        W32271   5.487   6.954   0.917 -0.1279  0.0071 -0.0868
16198W        W32272   0.378   5.473  16.851 -0.0264  0.3729  0.0038
16199W        W32273  14.578  11.964  16.385  0.1477 -0.0092  0.0025
16200W        W32274  13.179   5.814  16.625  0.0722 -0.0609  0.0140
16201W        W32275  15.221  12.770  15.779  0.1175  0.1543  0.3687
16202W        W32276   2.811   6.665  13.761  0.3483  0.1009  0.2798
16203W        W32277   7.800   5.350  15.361  0.1329 -0.0114 -0.0572
16204W        W32278  16.450  14.140   4.534  0.0368 -0.1733 -0.0875
16205W        W32279   5.658  17.618  12.701 -0.0719  0.3588  0.1752
16206W        W32280   6.951  13.896  12.679 -0.1844  0.3158 -0.0654
16207W        W32281  13.777  14.858  12.516  0.1186 -0.0767 -0.0866
16208W        W32282  16.625  13.074   6.010 -0.2409 -0.0846 -0.0803
16209W        W32283   9.416  10.337  13.644  0.3254  0.3435  0.0583
16210W        W32284   8.827   0.784  16.123 -0.2539  0.1679 -0.2646
16211W        W32285  11.815  11.086  12.252  0.0144 -0.0754  0.0363
16212W        W32286  10.809  14.993   1.503  0.0682 -0.1728  0.1715
16213W        W32287  15.879   6.261  14.915 -0.1799  0.3176  0.1637
16214W        W32288   2.390  16.724   1.742  0.0977 -0.0264 -0.2808
16215W        W32289  10.805  15.244   6.083 -0.2153  0.1827  0.3207
16216W        W32290  11.890  17.066  14.914  0.0657 -0.0190  0.0710
16217W        W32291  12.533   0.533   3.183 -0.0430  0.2846  0.1798
16218W        W32292   2.235   8.500   5.953  0.0263 -0.0139 -0.1335
16219W        W32293   6.841  11.161  15.250 -0.1839 -0.0534  0.1621
16220W        W32294  10.559  13.649   0.491 -0.2895  0.0721 -0.4013
16221W        W32295  12.821  14.399  11.552  0.0950 -0.0067  0.0611
16222W        W32296   8.556   1.297   4.008 -0.1679  0.1100  0.0113
16223W        W32297  15.857  13.481   2.387 -0.1013 -0.0191  0.0298
16224W        W32298  17.469  12.351   5.661  0.0521  0.1110  0.2431
16225W        W32299   6.171  12.223   5.397  0.3294 -0.0515  0.2038
16226W        W32300   7.283  10.590  15.862  0.1947 -0.2540  0.0681
16227W        W32301  11.635  17.570  14.797  0.2846 -0.1543 -0.3445
16228W        W32302  15.725   1.718  15.048  0.2729  0.1319 -0.2664
16229W        W32303   3.084   0.567  13.642 -0.1630 -0.1083  0.2350
16230W        W32304   9.152   9.923  14.954 -0.1461  0.0454  0.0467
16231W        W32305  14.785  10.809  12.546  0.2076  0.1737  0.2420
16232W        W32306   9.787  12.924  12.831 -0.0491 -0.4109  0.2396
16233W        W32307  13.120  15.162   4.918  0.1242 -0.0789 -0.0338
16234W        W32308   7.729   7.985  13.106 -0.3378 -0.0673  0.1738
16235W        W32309   8.120   4.808   4.187  0.2508  0.0252  0.0022
16236W        W32310  16.463   9.350   5.107 -0.1463 -0.0399  0.4170
16237W        W32311  15.830   5.595   0.695 -0.2196 -0.0128  0.2568
16238W        W32312   6.572   3.517  13.047 -0.2649 -0.0300  0.0064
16239W        W32313   4.413   7.682  12.301 -0.3333  0.1489 -0.1738
16240W        W32314   2.699   6.199  13.837 -0.0594  0.0996 -0.0326
16241W        W32315  10.577   5.513  11.954 -0.0223  0.0476  0.0450
16242W        W32316   2.496   5.765  16.434  0.0885 -0.0226  0.2131
16243W        W32317   0.884   5.052  12.763  0.1714  0.1623  0.2123
16244W        W32318  12.263   2.083  14.759  0.0653 -0.1468  0.2953
16245W        W32319   3.893  10.707   0.539  0.0639  0.2143  0.0338
16246W        W32320  12.343  11.694  12.501 -0.0856 -0.0920 -0.2762
16247W        W32321   8.047  12.208   4.264 -0.2675  0.2371 -0.2272
16248W        W32322  11.119   7.720   3.224 -0.1433 -0.0407  0.2426
16249W        W32323   8.336  11.257   0.177  0.1378  0.0399  0.1725
16250W        W32324   1.279   0.307   0.470  0.1236 -0.0305 -0.0667
16251W        W32325   3.328   3.800   5.005  0.1346 -0.0747  0.0056
16252W        W32326   8.935  15.948  16.394  0.0810  0.0262  0.2840
16253W        W32327   9.666  17.645  11.768  0.0769 -0.1580  0.0844
16254W        W32328   2.536  15.100  14.054  0.0850 -0.2352 -0.1326
16255W        W32329   2.342   6.630   3.379 -0.2574  0.2257 -0.1161
16256W        W32330   7.331   3.203   1.783 -0.3653  0.2703 -0.0259
16257W        W32331   0.922  11.618  17.077  0.0165 -0.0298 -0.0298
16258W        W32332   3.190  14.720  14.797  0.1775 -0.0047 -0.1528
16259W        W32333  12.786  10.072   3.889 -0.4298  0.1689  0.1600
16260W        W32334   1.479   7.316   1.743  0.2028 -0.2847 -0.0037
16261W        W32335  11.525  16.900  17.100  0.3631  0.0161  0.1416
16262W        W32336   3.631   4.005   3.654 -0.0747  0.0039  0.1602
16263W        W32337  12.761   4.357   1.351  0.1929  0.2591  0.0405
16264W        W32338  15.331  10.148   1.116 -0.0373 -0.0739  0.0311
16265W        W32339   0.207  10.614  12.087 -0.0247  0.2489 -0.2361
16266W        W32340  16.072  10.141   0.746 -0.4719 -0.1277  0.0523
16267W        W32341  12.101  12.549   1.186  0.1534 -0.0148  0.0748
16268W        W32342  12.852  12.391   4.458 -0.0632 -0.0256  0.1132
16269W        W32343  16.975  17.194   5.187  0.0713 -0.2962 -0.0400
16270W        W32344   0.716   3.394   0.370  0.1041 -0.0114  0.3593
16271W        W32345   1.339  13.853   0.959 -0.1847  0.1783  0.1107
16272W        W32346   0.950   4.596   4.265 -0.0160 -0.0377 -0.2184
16273W        W32347   5.816  12.397  14.129 -0.2146  0.0658 -0.2789
16274W        W32348   4.087   2.111   4.165  0.0612  0.1199 -0.1130
16275W        W32349   6.556   4.294  11.700 -0.5307 -0.2203  0.1157
16276W        W32350   8.064  15.002  13.591  0.2386 -0.0346 -0.0645
16277W        W32351  10.625   1.029   1.554  0.0325  0.2985 -0.1652
16278W        W32352   4.072  11.396   5.058 -0.4048  0.0352 -0.1423
16279W        W32353   7.988  12.577  12.136 -0.1450  0.1444 -0.0645
16280W        W32354   1.241  15.373   5.590  0.2200  0.2757  0.0230
16281W        W32355   9.258  16.182   3.930 -0.2050  0.1781 -0.0681
16282W        W32356  14.100   5.087  14.268  0.0798  0.0818 -0.2083
16283W        W32357  11.193  16.587   0.254 -0.3057  0.2544  0.0044
16284W        W32358   8.798  14.321  11.959  0.4467  0.3381 -0.2380
16285W        W32359  10.559  17.111  16.779  0.1687  0.2658 -0.3025
16286W        W32360   5.819  10.291   3.522  0.0640  0.0947 -0.0151
16287W        W32361  10.677   5.364   4.817  0.0373  0.0225  0.0108
16288W        W32362   8.075  16.763   4.770 -0.1683 -0.3357  0.1751
16289W        W32363   3.516  14.179  13.034  0.0245 -0.0537 -0.0291
16290W        W32364  11.698   0.701   0.912 -0.0151  0.4188 -0.2354
16291W        W32365   0.138   3.157   0.964 -0.0179 -0.0139  0.4179
16292W        W32366   8.869  10.552   3.133 -0.0703 -0.0070 -0.0340
16293W        W32367  12.979   0.644   5.826  0.0145 -0.1397 -0.0590
16294W        W32368   4.895   3.751  13.087  0.0190 -0.2182 -0.2729
16295W        W32369  16.206   7.180   4.310 -0.1229  0.1628 -0.1362
16296W        W32370  17.387   2.196  16.926 -0.0585 -0.2622 -0.0106
16297W        W32371   8.056   9.974  15.939 -0.1390 -0.1802  0.0820
16298W        W32372  15.654   1.752  15.862 -0.2500 -0.0012  0.0041
16299W        W32373   0.645   0.501   0.724 -0.1886  0.0983 -0.1869
16300W        W32374   5.450   5.178   1.495 -0.1643 -0.1672  0.0213
16301W        W32375  14.633   9.325   2.754 -0.2857  0.2245 -0.2990
16302W        W32376   4.552   7.157  11.814 -0.0817 -0.1034 -0.3417
16303W        W32377  16.753   1.005  16.502 -0.0363 -0.1351  0.0328
16304W        W32378  15.815   0.138  14.125  0.0364  0.2933 -0.0653
16305W        W32379  11.414   0.598  15.251  0.3414 -0.1378 -0.1884
16306W        W32380   4.631   4.451  16.792  0.1159 -0.0556 -0.1010
16307W        W32381   1.616   5.209  15.407  0.1773  0.4363  0.1099
16308W        W32382   9.054   1.388  12.257 -0.3733 -0.3076 -0.0525
16309W        W32383   1.813  13.021  12.319 -0.3393  0.0825  0.0802
16310W        W32384  15.838   6.235  13.125 -0.0459  0.1653 -0.0434
16311W        W32385  15.744  12.364   0.341  0.2637  0.0934  0.1570
16312W        W32386   7.594   0.588   2.576  0.1519  0.1667  0.1488
16313W        W32387   2.553  16.344   2.030 -0.0469  0.2671 -0.0558
16314W        W32388   0.740   8.011  12.277 -0.1835 -0.0729  0.5140
16315W        W32389  17.408   8.671   2.849 -0.2683 -0.2484 -0.0292
16316W        W32390  10.054  13.267   0.689  0.2455  0.2241  0.0441
16317W        W32391  10.306  13.952   0.005 -0.0005 -0.0321  0.1532
16318W        W32392   3.529   1.031   0.339 -0.0551  0.0560 -0.0313
16319W        W32393   1.290   2.457   2.003 -0.1895  0.1292  0.0967
16320W        W32394  11.351   8.102  11.555 -0.0194  0.2146 -0.1165
16321W        W32395  15.436   8.568  17.033  0.0766  0.0312 -0.0987
16322W        W32396  14.043  13.679  14.132 -0.1089 -0.1320  0.0163
16323W        W32397  14.984  11.411  15.559  0.0411 -0.0639  0.1009
16324W        W32398  15.430  15.893   5.675  0.0136 -0.1496 -0.0615
16325W        W32399   8.708   6.840  12.874  0.0255  0.0322  0.0709
16326W        W32400  17.368  13.929   1.412 -0.0851  0.0949  0.3454
16327W        W32401   6.048  16.152   2.112  0.0664 -0.0880  0.0075
16328W        W32402  10.955   8.513   5.511  0.0328  0.0852 -0.0043
16329W        W32403  15.587   6.535  16.368  0.0107 -0.0869 -0.2285
16330W        W32404  16.752   2.533  15.778  0.1452 -0.2004 -0.0037
16331W        W32405  15.791   3.411  16.075 -0.0765 -0.3649  0.3355
16332W        W32406  10.533   3.071  12.461 -0.0225  0.0573  0.0553
16333W        W32407  12.831  13.255   5.959  0.3372  0.0714 -0.2381
16334W        W32408   2.391   3.038   2.343 -0.0995  0.1965  0.0622
16335W        W32409   1.427  12.668  12.236 -0.0591  0.0626 -0.0561
16336W        W32410  11.647   7.967   4.845 -0.1226 -0.3523  0.1326
16337W        W32411  14.998  17.083  13.847  0.0061  0.0872  0.2512
16338W        W32412  16.845  14.622   2.457 -0.0507 -0.3354  0.2207
16339W        W32413  10.816  15.018   2.705 -0.0255  0.1509 -0.1080
16340W        W32414   8.304   3.284  14.401 -0.0232  0.0135  0.2797
16341W        W32415  13.236  15.592  13.993 -0.0517  0.1863 -0.0347
16342W        W32416  11.408   6.533  11.943 -0.0247 -0.0929 -0.0415
16343W        W32417   3.554   0.260  11.832 -0.0266  0.0655  0.0398
16344W        W32418   7.641  14.196  15.232 -0.0675 -0.3198 -0.0938
16345W        W32419  15.503  16.606   0.058 -0.1398  0.4155  0.1618
16346W        W32420  16.382  16.447  14.404  0.1977 -0.4133  0.3051
16347W        W32421   7.914   6.675   2.180  0.0309  0.1148  0.3117
16348W        W32422  16.679  15.879   4.153  0.1514  0.0964 -0.0670
16349W        W32423  10.334   1.137  16.015 -0.0820  0.0510 -0.0104
16350W        W32424   6.687  14.743  15.741 -0.0868 -0.1358 -0.0061
16351W        W32425  14.049  16.775  14.170  0.0865 -0.3122  0.0739
16352W        W32426   8.327   4.551  15.197  0.1964  0.0002  0.2200
16353W        W32427  11.487   3.153  16.523  0.0820 -0.0775  0.0880
16354W        W32428   0.076   7.279   3.672  0.0870 -0.1704  0.0721
16355W        W32429   5.041  11.547  15.427  0.0107  0.0616 -0.2257
16356W        W32430   1.749  11.776  13.863  0.0442 -0.0553  0.5008
16357W        W32431   6.170   1.657   5.045  0.0525 -0.1962  0.0790
16358W        W32432   9.411   3.166   4.419  0.5368  0.2282  0.0549
16359W        W32433   0.118   1.404  15.758  0.0201 -0.0716 -0.2708
16360W        W32434  13.059  15.398  13.449 -0.1560 -0.1346 -0.0171
16361W        W32435  13.269  11.521  13.351 -0.0420  0.3496 -0.0631
16362W        W32436  10.118   7.120  14.644  0.0271  0.0680  0.2500
16363W        W32437   6.163   9.360  13.432 -0.0304 -0.0140 -0.3903
16364W        W32438  14.589   3.160   4.482  0.0658  0.2710  0.1829
16365W        W32439   3.803   3.094   0.204  0.0888  0.0787 -0.0580
16366W        W32440  16.037   8.750   1.902 -0.0848 -0.0501  0.3551
16367W        W32441  16.130   3.034   2.596  0.2714 -0.1876 -0.1913
16368W        W32442   7.687  10.084  14.977 -0.3874  0.0200  0.3610
16369W        W32443  10.298  15.164  15.001  0.1367  0.3124  0.4044
16370W        W32444  11.707   4.780  13.407  0.2361  0.5435  0.2110
16371W        W32445   4.085  15.137  16.144  0.0860  0.1627  0.1619
16372W        W32446   4.675  13.104   1.987  0.0967  0.1338 -0.2626
16373W        W32447   1.734   7.879   6.196 -0.1887  0.0986 -0.0623
16374W        W32448   7.873  16.253   3.899 -0.0451  0.0694 -0.0519
16375W        W32449   6.412   5.690   3.835  0.2537  0.2531  0.0587
16376W        W32450  12.005  17.232  12.785  0.0999 -0.3395 -0.1655
16377W        W32451  10.640  13.502  17.042  0.1753  0.1465  0.4817
16378W        W32452  13.551   1.129   4.972  0.0317  0.2947 -0.1640
16379W        W32453  12.479  13.742  12.652 -0.1967 -0.0368  0.2314
16380W        W32454   9.372   8.168  13.097 -0.1920  0.1501 -0.2853
16381W        W32455   6.133  10.220   1.620  0.1910 -0.0241 -0.1791
16382W        W32456   5.564  15.538  16.543 -0.1265  0.2333  0.2692
16383W        W32457  15.094  11.866   3.859 -0.0730 -0.2642 -0.1168
16384W        W32458   1.519   6.598  14.969  0.1605 -0.2264  0.2559
16385W        W32459   2.994   2.331   2.259  0.2086 -0.0094 -0.1954
16386W        W32460   4.275   2.547  14.833  0.1335  0.1947  0.0558
16387W        W32461  17.572  12.647   3.608  0.3579 -0.0902  0.0582
16388W        W32462  13.595   3.616  14.434 -0.2537 -0.0612 -0.0511
16389W        W32463   6.003  11.286   5.191  0.3007  0.3014 -0.2469
16390W        W32464   5.063  17.207   4.221  0.1322 -0.3301  0.0403
16391W        W32465   2.105  12.691  15.289 -0.0984 -0.1276  0.2080
16392W        W32466  16.741   3.630   3.606  0.0942 -0.2095 -0.0612
16393W        W32467  15.340  12.762   4.857 -0.0578 -0.0870 -0.2159
16394W        W32468  12.089   5.521   2.306 -0.1715 -0.1150 -0.0067
16395W        W32469  12.856  12.563  12.832  0.1378 -0.3016  0.0354
16396W        W32470  13.931   2.442   3.118 -0.0910  0.2532  0.1114
16397W        W32471   5.643   6.568   0.580 -0.1501  0.2013  0.1126
16398W        W32472   1.100  11.779   4.470 -0.1467 -0.3282  0.1936
16399W        W32473   3.294  11.681  15.909 -0.0774  0.0158 -0.3390
16400W        W32474   6.867   7.906   2.765  0.2524 -0.0519  0.2534
16401W        W32475   2.468  13.681  14.855  0.0410 -0.1001  0.2658
16402W        W32476   1.344   3.904  13.211  0.4965 -0.0489  0.4049
16403W        W32477  13.637   7.312   6.362 -0.4383  0.0582 -0.0256
16404W        W32478   7.263  15.857  17.025 -0.2481  0.0188  0.0064
16405W        W32479  13.519   6.663   5.621 -0.0297 -0.0461 -0.1107
16406W        W32480  16.381  15.285   3.528  0.1118  0.0616 -0.2284
16407W        W32481  12.029   3.837  14.595  0.0136  0.1085 -0.2063
16408W        W32482   1.883   2.634  12.688 -0.0428  0.0106 -0.0268
16409W        W32483   8.103  10.749   2.758  0.0361  0.0143 -0.3297
16410W        W32484  15.456   3.850  15.860 -0.2848  0.1398 -0.1515
16411W        W32485  16.234   2.632   2.233 -0.0657 -0.0475  0.1589
16412W        W32486   7.447  17.042  12.325  0.1306  0.3686  0.4231
16413W        W32487   0.310   9.779   5.982  0.0844  0.0290  0.1866
16414W        W32488  10.809  12.214   3.804  0.1071 -0.0502 -0.1520
16415W        W32489   7.551   6.119  11.798 -0.2531  0.0647 -0.1761
16416W        W32490   8.185  14.013  15.367  0.0195 -0.1008 -0.0936
16417W        W32491   8.764   7.225   2.079  0.0813  0.2390  0.0807
16418W        W32492  17.738  17.095   2.802 -0.2516 -0.4306  0.0147
16419W        W32493  17.235   5.689  16.672  0.0143  0.3472 -0.0861
16420W        W32494   2.338  12.602   2.788 -0.3377 -0.0747 -0.3803
16421W        W32495   3.532  17.085  13.929  0.0587  0.2264  0.3462
16422W        W32496  11.269   5.353  12.471  0.0657 -0.2891 -0.0958
16423W        W32497   7.014   0.912   4.272  0.2071 -0.0466 -0.0113
16424W        W32498  17.337   8.466   3.797 -0.1131  0.2060 -0.0056
16425W        W32499   4.579   7.202   5.276  0.0157 -0.2574  0.1536
16426W        W32500   9.372  14.619  14.259  0.0090 -0.0321 -0.0604
16427W        W32501   2.506   3.454   2.735 -0.2639 -0.0208 -0.0350
16428W        W32502  17.669  11.238  16.156  0.0883 -0.1943  0.0451
16429W        W32503  14.705   5.690  13.788  0.1080  0.2559 -0.0547
16430W        W32504   9.652  11.608  12.495 -0.0347  0.0662  0.1001
16431W        W32505   2.420  10.789   2.014  0.1623 -0.2379  0.2401
16432W        W32506   1.998   2.281  16.300  0.0255 -0.0556 -0.0306
16433W        W32507   3.783  15.623  17.036 -0.0607  0.4912  0.1543
16434W        W32508  13.682   5.224   2.731  0.3123  0.0712 -0.1272
16435W        W32509   1.210   5.778  16.952 -0.1783 -0.0964 -0.0427
16436W        W32510  15.539  15.731  16.921 -0.2025 -0.0915  0.0130
16437W        W32511   8.220   0.690   2.570  0.3581  0.0377 -0.0560
16438W        W32512   9.279  13.761  15.910  0.3856  0.0498 -0.1937
16439W        W32513  17.001  10.027  14.224 -0.0550  0.0154  0.0653
16440W        W32514   7.636   6.080  14.883 -0.1702 -0.1695  0.1098
16441W        W32515  16.808   0.609   2.096 -0.3344 -0.2040 -0.0403
16442W        W32516  13.970  11.283  13.950 -0.1186 -0.0096  0.4138
16443W        W32517   4.421   5.198  15.793  0.0583  0.4171  0.3802
16444W        W32518   9.504  11.010  14.948 -0.1228  0.0513 -0.0451
16445W        W32519  16.593  13.972   0.803  0.3256  0.1896 -0.1163
16446W        W32520  13.922  10.357   1.661  0.1749  0.3231  0.0826
16447W        W32521   0.608  13.605  11.877  0.2618 -0.0375 -0.3416
16448W        W32522  14.518   9.473   1.463 -0.3412 -0.2203 -0.0050
16449W        W32523  14.504  17.297  15.309  0.1348  0.0546  0.3222
16450W        W32524   7.910  15.364  12.277 -0.1738 -0.1248  0.3951
16451W        W32525   8.093   4.503  15.684 -0.1947 -0.0623 -0.0007
16452W        W32526   6.142   0.800  13.438  0.0361 -0.1747 -0.0506
16453W        W32527  10.528  12.754  14.389  0.2500 -0.0362  0.0814
16454W        W32528  12.657  15.601  12.217  0.0170  0.1385 -0.0265
16455W        W32529   5.963   0.500   0.183  0.0157  0.0116  0.1054
16456W        W32530   4.544  12.960   0.119  0.1935 -0.0464  0.0820
16457W        W32531  17.280  14.402   5.355 -0.2363 -0.1041 -0.1771
16458W        W32532  17.666  13.354  15.346 -0.0764 -0.2114 -0.1553
16459W        W32533   7.464   7.033   4.235  0.0018  0.0514 -0.4666
16460W        W32534  17.407   4.148   2.425 -0.1802 -0.0978  0.1310
16461W        W32535  15.212   8.688   0.450  0.0156  0.1994  0.3758
16462W        W32536   2.871   6.400  15.352  0.0368 -0.2309 -0.0444
16463W        W32537   6.863   2.518  15.434  0.1945 -0.2349  0.1264
16464W        W32538   2.718  10.061   0.632 -0.2689  0.1892 -0.2832
16465W        W32539  15.464   8.154   3.721 -0.1709 -0.2072  0.2759
16466W        W32540   5.099   8.020   2.003  0.3747  0.1106 -0.3112
16467W        W32541  16.569  11.033   5.961 -0.1912 -0.1376 -0.1193
16468W        W32542   9.337   6.008  16.934 -0.1949 -0.1441  0.0944
16469W        W32543  14.882  13.302   1.098 -0.0663  0.0095  0.0158
16470W        W32544  12.778  14.474   4.346 -0.1059 -0.3015 -0.0966
16471W        W32545   5.492  12.409   0.874 -0.1017 -0.0159 -0.3853
16472W        W32546   4.344  15.049  12.336 -0.2057 -0.1255 -0.2119
16473W        W32547   4.970  12.914   3.676 -0.1366 -0.0311 -0.3388
16474W        W32548   8.818   5.267  14.836 -0.2172 -0.0889 -0.1308
16475W        W32549   2.047   2.678   3.275 -0.2773 -0.2089 -0.0672
16476W        W32550   0.255  15.186  14.129  0.3956 -0.1287  0.0603
16477W        W32551   6.211  11.212  17.151  0.0896 -0.1154 -0.1019
16478W        W32552   4.263   3.202  16.645  0.1244 -0.0224  0.0998
16479W        W32553   9.111  15.476  16.645 -0.0213 -0.1965 -0.3819
16480W        W32554  16.934   5.656  12.549 -0.0275  0.0832  0.3100
16481W        W32555  10.592   6.688  11.888  0.1327 -0.3593  0.1313
16482W        W32556  12.558   1.853  15.513  0.0830 -0.2867  0.5086
16483W        W32557   1.938  11.150  14.391 -0.2548  0.0085  0.0793
16484W        W32558   8.347  13.140  13.403  0.0242  0.1837  0.1823
16485W        W32559  10.941   9.651  11.820  0.0730  0.2155  0.1924
16486W        W32560   9.470   7.217   4.494  0.0197 -0.1103  0.2378
16487W        W32561   0.108   5.258  13.212  0.3205  0.0691  0.2035
16488W        W32562   9.920   2.940   0.348 -0.0054  0.0957 -0.1185
16489W        W32563  12.440  16.299   0.726 -0.2376  0.0365  0.0410
16490W        W32564   1.717   0.169  13.817  0.1674  0.0178  0.1134
16491W        W32565   4.509  11.580   3.747  0.2694  0.0720 -0.0537
16492W        W32566   0.352   5.739  14.800  0.0699 -0.0804 -0.1197
16493W        W32567  17.521   9.149  15.292  0.0384  0.2469 -0.0345
16494W        W32568  14.561   8.313  15.795 -0.1255 -0.1439  0.3345
16495W        W32569   9.791   9.571  12.464 -0.1997  0.2912 -0.0453
16496W        W32570   8.154  12.663  13.425  0.1961 -0.0311  0.2930
16497W        W32571  11.052  13.876   3.220  0.1573 -0.0577 -0.1793
16498W        W32572   8.762   9.271   2.808 -0.1857 -0.0594 -0.0181
16499W        W32573   1.164   4.906   1.752 -0.1117 -0.0507  0.0425
16500W        W32574   8.569  12.127   4.229  0.1608  0.1580  0.0428
16501W        W32575  15.471  16.682   3.334  0.0925 -0.0941  0.0764
16502W        W32576  14.937   4.982   5.726 -0.4180  0.1706  0.0171
16503W        W32577  10.895  14.121   1.765  0.3121 -0.3111 -0.0359
16504W        W32578   1.786  15.448  11.911 -0.1893  0.1931  0.1325
16505W        W32579  10.135  13.686   5.253  0.1008 -0.2653 -0.3485
16506W        W32580   9.267   3.596   0.227 -0.2226 -0.0866 -0.2688
16507W        W32581  15.844   2.198   2.220  0.2722 -0.0635  0.0381
16508W        W32582  16.323   9.299   1.511 -0.1482 -0.0863  0.3129
16509W        W32583  11.074  12.752  12.475  0.1325  0.2748  0.1291
16510W        W32584   2.706   0.467   1.413  0.1844 -0.3974 -0.1517
16511W        W32585   3.285  11.314  15.522  0.1449  0.0458 -0.1267
16512W        W32586   5.655   0.069   2.305 -0.1457 -0.2465 -0.0132
16513W        W32587   2.932   2.677   0.467 -0.1000  0.0937  0.4435
16514W        W32588   2.061  12.911   4.414 -0.1698 -0.0427  0.0565
16515W        W32589   2.279  10.757   4.702 -0.2354  0.3829 -0.2015
16516W        W32590   5.468  17.602   5.278  0.0549 -0.1854  0.1040
16517W        W32591   0.311  13.343   6.282 -0.0307  0.1271  0.1194
16518W        W32592   1.627   0.517   3.903  0.0595 -0.0924 -0.1151
16519W        W32593  12.467   6.276  14.794  0.3084  0.2067 -0.2515
16520W        W32594   8.526   8.450   0.754  0.0064 -0.1111 -0.2021
16521W        W32595  11.845   2.379  13.264 -0.0722  0.1426  0.1059
16522W        W32596   8.163  16.941   0.738  0.0027  0.0879 -0.2269
16523W        W32597   9.082  15.470   3.166 -0.0607 -0.2074 -0.2790
16524W        W32598  16.207   6.824   4.792  0.0042 -0.0957 -0.2884
16525W        W32599  17.648   2.758   0.538 -0.1143  0.1849  0.2329
16526W        W32600   7.802   1.066  12.515  0.1895 -0.1960  0.0484
16527W        W32601   5.533   5.228   4.076 -0.0774 -0.1152  0.0325
16528W        W32602  10.380   8.314  16.610  0.2873  0.1766 -0.3684
16529W        W32603   1.442   0.442  11.808 -0.0991  0.2129  0.2209
16530W        W32604  16.982   0.690  13.913 -0.0800  0.3198 -0.0487
16531W        W32605   4.106   5.258   4.142  0.0003  0.1414 -0.2560
16532W        W32606  10.289  15.053   3.181 -0.0451  0.1308  0.1072
16533W        W32607   7.956  17.122   1.143  0.0981 -0.0310  0.3382
16534W        W32608   3.845   9.602   2.748  0.0217 -0.0292 -0.2921
16535W        W32609   8.128   1.399  12.261  0.1761 -0.3887 -0.0138
16536W        W32610  12.459  16.066  12.861 -0.0763  0.0918 -0.2144
16537W        W32611   0.765   1.834   1.088 -0.0527  0.1062 -0.1152
16538W        W32612  11.989   1.066   5.849 -0.1498  0.0593 -0.3820
16539W        W32613  10.045  13.573  13.967 -0.2086 -0.1383 -0.3489
16540W        W32614  15.957  15.070   3.380  0.0894  0.0312 -0.4414
16541W        W32615   0.689   7.055  14.993  0.0247  0.0011  0.0238
16542W        W32616  16.410  10.374   0.520 -0.1633  0.0184  0.0271
16543W        W32617  15.819  14.163   5.102  0.0441  0.2968  0.1660
16544W        W32618   5.230   2.845  16.203  0.1183 -0.2803  0.0106
16545W        W32619  11.859   8.077  12.175  0.1437 -0.0266  0.1060
16546W        W32620   3.670  10.807  14.368  0.2376 -0.3263  0.1036
16547W        W32621   7.576   7.208  16.799 -0.1672 -0.1825  0.2926
16548W        W32622   8.123   6.801   5.042  0.3015 -0.1848  0.0399
16549W        W32623   1.209  13.671   0.320  0.1984  0.0290  0.3551
16550W        W32624   7.889  17.269  12.790  0.1734 -0.1677  0.0876
16551W        W32625  13.991   9.873  14.918 -0.3804 -0.0429 -0.0029
16552W        W32626  15.544  13.205  12.468  0.2363 -0.1779  0.1364
16553W        W32627   2.066   9.871  13.254  0.1037 -0.2957 -0.0655
16554W        W32628   0.967   6.990   0.499 -0.2863  0.0443 -0.1258
16555W        W32629   7.462  17.534  16.148 -0.1843 -0.1502  0.1474
16556W        W32630  10.251  12.271   0.369 -0.4113 -0.0276 -0.2867
16557W        W32631   1.771   1.621  15.225 -0.2254 -0.0318 -0.0157
16558W        W32632   1.747   8.368  13.381  0.0352 -0.0521 -0.1469
16559W        W32633   0.319  15.949   4.042  0.1718  0.0392  0.1533
16560W        W32634  16.155   1.168  13.692 -0.1068 -0.0263 -0.0551
16561W        W32635   1.570  11.046  14.949  0.3242  0.2369  0.0289
16562W        W32636   2.064  11.537   5.563  0.0269 -0.0125 -0.0722
16563W        W32637   0.853  14.864   2.219 -0.0828 -0.1042  0.1027
16564W        W32638  12.242   5.307  14.312  0.1101  0.2717  0.1239
16565W        W32639   7.383   3.529  11.906 -0.1855 -0.1199 -0.1666
16566W        W32640   9.266   0.250  14.839 -0.0156 -0.0831 -0.2516
16567W        W32641   0.559  11.651   2.420 -0.0391  0.0699  0.0740
16568W        W32642  10.195   9.934  15.559  0.1063  0.2605  0.2119
16569W        W32643   9.371   3.662   3.467 -0.1297  0.2000  0.2191
16570W        W32644  11.153  15.446  16.080  0.1734 -0.0173 -0.0995
16571W        W32645   5.512  17.468  11.805 -0.0656 -0.0934 -0.0926
16572W        W32646   0.891  15.021  13.701 -0.0302 -0.0627 -0.0133
16573W        W32647  11.510   8.778  13.414  0.2351 -0.0368  0.3082
16574W        W32648   3.622   9.816  16.414 -0.2026 -0.0571  0.2444
16575W        W32649  13.455  14.333  13.911  0.0305  0.0309 -0.2825
16576W        W32650   7.910   8.088   1.256 -0.1061  0.1067 -0.1543
16577W        W32651   6.088   4.876   2.867 -0.0952  0.1542 -0.0194
16578W        W32652   6.725  16.437  14.303 -0.1463  0.0941  0.1228
16579W        W32653  13.482  11.127   1.840 -0.2720  0.1618 -0.3424
16580W        W32654   2.658   4.845   5.412  0.0200  0.0286 -0.2602
16581W        W32655  13.833  16.505  15.075 -0.1268  0.0709  0.3044
16582W        W32656  14.977   3.446   6.305 -0.1930 -0.0853 -0.3171
16583W        W32657   8.412   4.084  15.225 -0.3063  0.0316  0.0882
16584W        W32658   2.300  14.763  12.994 -0.1107 -0.0449  0.1611
16585W        W32659  14.829  11.509   0.477 -0.2352  0.1311 -0.2882
16586W        W32660   7.472   0.949  12.124 -0.3123 -0.4109  0.0074
16587W        W32661   9.332  14.843  15.556 -0.1974 -0.0196  0.2768
16588W        W32662   6.108  14.664  14.208  0.3105 -0.2358 -0.1730
16589W        W32663   6.957   1.330  10.676  0.1684 -0.0194 -0.0283
16590W        W32664   1.482  13.681   1.441  0.0120 -0.1090 -0.2612
16591W        W32665  11.643  11.386  14.894 -0.1270  0.1352  0.0970
16592W        W32666   3.647   5.128   1.814 -0.2057 -0.2573  0.1223
16593W        W32667  10.318   3.780  11.906 -0.0374 -0.0931 -0.2246
16594W        W32668  17.401  15.432  12.030  0.1461 -0.1061  0.0331
16595W        W32669   8.618   7.621  13.450  0.0554  0.0820  0.1919
16596W        W32670  17.271  10.790  15.265 -0.2502 -0.1011  0.1995
16597W        W32671  16.834   1.338   1.511 -0.0053  0.1660  0.0837
16598W        W32672  11.502   5.629  16.480  0.0508 -0.1376  0.3054
16599W        W32673   0.531   1.036   4.179  0.3778 -0.1467 -0.0123
16600W        W32674   1.440   2.258   5.252  0.0930 -0.2525 -0.1913
16601W        W32675   3.804  11.015  12.275 -0.2143 -0.0496 -0.0164
16602W        W32676   4.148  16.816  13.442 -0.0666  0.1284  0.1305
16603W        W32677  14.017  11.932  16.523  0.4571  0.2614  0.1627
16604W        W32678   3.292   5.046  12.891  0.2137  0.1950  0.0046
16605W        W32679   0.285   5.567  15.318 -0.1153  0.1090  0.4071
16606W        W32680  15.117   1.707   1.862  0.0501 -0.0398 -0.0998
16607W        W32681  10.645   6.591   4.227  0.1768  0.3468  0.0062
16608W        W32682  16.523  13.077  16.197 -0.0890  0.2066  0.0781
16609W        W32683  15.794   5.310  14.498 -0.4264 -0.0275  0.2052
16610W        W32684   8.297   9.470   3.684  0.1223 -0.0070 -0.0554
16611W        W32685   2.401  10.792   3.622  0.2280 -0.1882 -0.0032
16612W        W32686   6.767  12.264  12.961 -0.0480  0.0660  0.0512
16613W        W32687  10.289  17.043   4.584  0.0109 -0.1174  0.2380
16614W        W32688  12.995  12.421  12.338  0.1326 -0.1276 -0.1722
16615W        W32689   9.186   7.882   4.202  0.1861  0.1132  0.3465
16616W        W32690   8.822  10.206  14.675 -0.5360 -0.0899 -0.2797
16617W        W32691   4.476   4.455   0.491  0.1208  0.1498 -0.2982
16618W        W32692   5.111  15.481   4.393  0.1214  0.2211  0.1346
16619W        W32693   8.390   2.565   3.598 -0.1302 -0.1398 -0.2379
16620W        W32694  11.436   9.430  11.742  0.1492 -0.0512  0.4689
16621W        W32695  10.092  13.210   3.543 -0.0178 -0.0927  0.3487
16622W        W32696  12.689  15.107   5.235  0.1922  0.0109 -0.1688
16623W        W32697  13.066  16.394  12.083 -0.0298 -0.1798  0.2114
16624W        W32698  12.545   1.243   4.033  0.1082 -0.2732 -0.0877
16625W        W32699   5.641   8.596  12.056  0.0949  0.2285  0.2322
16626W        W32700   8.162  12.630   4.486  0.0073  0.1865 -0.2233
16627W        W32701  13.148  13.156  17.106 -0.1645 -0.2812 -0.2369
16628W        W32702   9.050   6.564  14.175  0.0143 -0.0355  0.2393
16629W        W32703   4.036  17.549  15.777 -0.2121 -0.0047  0.0374
16630W        W32704  17.030  12.166  13.229  0.0866 -0.0215 -0.1402
16631W        W32705   8.929  14.798   0.688  0.1914 -0.0179  0.2063
16632W        W32706   7.671   7.620   6.520  0.0512 -0.0366  0.1129
16633W        W32707  17.649  14.480   2.129 -0.0917  0.0131  0.1362
16634W        W32708   3.106  12.086   3.854  0.0630  0.0053 -0.0558
16635W        W32709  17.197   1.225   2.828  0.2320  0.1559 -0.0228
16636W        W32710  14.605  10.798  15.850 -0.2682  0.1724 -0.1396
16637W        W32711  11.214  17.306  12.330  0.1514 -0.2417 -0.0677
16638W        W32712   4.955   8.245  11.748 -0.7016 -0.2151  0.1687
16639W        W32713  17.345  14.940  11.145 -0.0847  0.1113 -0.2826
16640W        W32714   2.650   7.761   1.895  0.0937 -0.0080  0.2294
16641W        W32715  12.146  11.918   3.242 -0.3571 -0.0605 -0.0951
16642W        W32716   5.341   7.421   0.571 -0.0405 -0.1390 -0.1422
16643W        W32717   3.080   7.851  14.221  0.0656 -0.0532  0.1566
16644W        W32718  12.596  15.480  15.808 -0.0717 -0.0114  0.0641
16645W        W32719  12.156   4.916  13.407 -0.0419  0.1575 -0.0752
16646W        W32720   3.407   6.447   4.117  0.1054  0.1647 -0.3890
16647W        W32721  11.540  15.900  15.255  0.0632 -0.0790 -0.0972
16648W        W32722  12.700  12.116   2.255 -0.3457 -0.0075  0.1193
16649W        W32723   5.558   5.228  12.420 -0.1075 -0.2293  0.1614
16650W        W32724   8.438  11.006   5.694  0.4493  0.0149  0.1869
16651W        W32725   0.421   0.243  15.135 -0.1316  0.3312  0.1382
16652W        W32726   1.337   5.340   3.511 -0.0931 -0.1479 -0.0553
16653W        W32727   0.860  13.130   1.889  0.0377  0.1966 -0.0352
16654W        W32728  17.544  10.345  14.823  0.1189  0.0124 -0.1098
16655W        W32729   9.307   3.057  15.018  0.1114  0.0188  0.2191
16656W        W32730   7.569  16.007  13.104  0.0800 -0.1671  0.0057
16657W        W32731  11.488   5.819   2.251 -0.0017  0.0769 -0.1281
16658W        W32732   1.256   7.784   0.525  0.0242 -0.0612 -0.2785
16659W        W32733  12.141  11.731   2.747  0.1922  0.1459 -0.2596
16660W        W32734  11.900  15.122  15.899  0.0876  0.0899  0.0108
16661W        W32735   9.927  15.528   0.122  0.2708 -0.1913  0.1564
16662W        W32736   6.976   1.185  16.801  0.2421 -0.0873 -0.0756
16663W        W32737   1.730  15.732   4.354 -0.1465  0.0344 -0.0136
16664W        W32738   5.727   3.455   0.106  0.2355 -0.1583  0.0750
16665W        W32739   3.008  11.642  16.302 -0.0073  0.2178 -0.2822
16666W        W32740   2.809  17.100  12.080 -0.3347  0.2326 -0.0034
16667W        W32741   2.174   5.698   5.623  0.0309  0.0937  0.2632
16668W        W32742  11.160   7.449   6.415 -0.1216  0.2418 -0.3847
16669W        W32743   6.517   7.263   0.494  0.2450 -0.1086  0.0556
16670W        W32744  10.002  13.432  14.464  0.2235  0.0923 -0.4725
16671W        W32745   3.797   5.654  11.664 -0.4046 -0.1687  0.0111
16672W        W32746   0.095  10.337   4.582  0.2793 -0.0258  0.2242
16673W        W32747   5.240   8.592   2.576 -0.1233 -0.0025 -0.1015
16674W        W32748   8.224  13.561   0.911 -0.2551 -0.0263 -0.1583
16675W        W32749  11.373  14.152   5.704  0.0770  0.2026 -0.2826
16676W        W32750   8.670   9.476  13.485  0.0941  0.4098  0.0603
16677W        W32751  13.294   3.408  11.972 -0.0146  0.1054  0.0930
16678W        W32752   5.958  17.206   5.264 -0.2130 -0.1468  0.0820
16679W        W32753   1.878  10.699   4.940 -0.3226 -0.0082 -0.2945
16680W        W32754   7.296  10.714  12.620 -0.2129 -0.1560 -0.2106
16681W        W32755   8.033   4.971   2.377 -0.0781  0.0128 -0.1520
16682W        W32756  10.425   9.003   3.189 -0.1784  0.1916  0.2907
16683W        W32757  15.762  13.560  15.263 -0.1103 -0.0464 -0.2289
16684W        W32758  10.212   8.641   0.283 -0.1027  0.3409 -0.0399
16685W        W32759   8.490  16.714  12.103 -0.1283 -0.0379  0.2142
16686W        W32760  17.348  11.233  14.313 -0.3281  0.3189 -0.3041
16687W        W32761   0.744   3.644  14.130 -0.2086  0.0998 -0.1238
16688W        W32762  17.211  17.164   2.592 -0.1904  0.0720  0.1736
16689W        W32763  14.074  17.083  12.050  0.2597  0.1350 -0.1227
16690W        W32764   0.377   7.004   5.357  0.2765 -0.0348 -0.0615
16691W        W32765   4.862   3.340  17.067 -0.1684  0.0185  0.1393
16692W        W32766   4.660   9.036  15.274 -0.0248  0.0125 -0.0029
16693W        W32767   9.583   8.513   5.458  0.0180  0.2802  0.2898
16694W        W32768   9.332  15.001   2.923  0.0461  0.2085 -0.0462
16695W        W32769  10.909   4.148  12.193 -0.1883 -0.3233  0.0806
16696W        W32770  16.878  14.416  12.943  0.2447 -0.0466 -0.2969
16697W        W32771  15.952  10.662   5.681  0.4975  0.1647  0.3913
16698W        W32772  15.827  14.438  13.912  0.1562  0.0830  0.2336
16699W        W32773  12.037  14.361   1.774  0.0073  0.0811  0.0344
16700W        W32774  15.172   7.611  16.590  0.1729  0.3191  0.3050
16701W        W32775   3.517  16.201  15.688  0.2848  0.1363  0.0534
16702W        W32776  10.552   4.222  11.828 -0.0896  0.0114  0.0937
16703W        W32777   5.546   5.999   3.590 -0.0627  0.0926 -0.0052
16704W        W32778   6.227   1.650   5.525 -0.0641  0.2350  0.0026
16705W        W32779   2.374   6.356  14.467 -0.0381  0.1132  0.0073
16706W        W32780   1.967  10.943  12.725 -0.0326 -0.2315  0.1421
16707W        W32781  12.632   7.220   3.658 -0.2305 -0.1824 -0.1066
16708W        W32782   5.049   2.319   1.911 -0.0175  0.1607 -0.4044
16709W        W32783  12.119   1.215   1.690  0.0736 -0.1919  0.5056
16710W        W32784   3.002   9.825   5.505 -0.0788  0.2461  0.0056
16711W        W32785  15.783  14.424   2.663 -0.0113 -0.0295  0.0652
16712W        W32786  13.385  17.542   0.750  0.0753  0.2027  0.3402
16713W        W32787   2.897   7.155   2.157 -0.2614  0.2710  0.2351
16714W        W32788   6.744   3.224   0.011 -0.1047 -0.2181 -0.1168
16715W        W32789   0.116   8.711   5.531 -0.1137  0.1549 -0.3034
16716W        W32790   1.886   0.961  13.219  0.0262  0.0313  0.0477
16717W        W32791  14.277   5.874   1.032 -0.2088 -0.6456  0.0650
16718W        W32792   4.177   3.652   5.138 -0.3385 -0.5044  0.2632
16719W        W32793   7.011  12.058   5.482  0.0060  0.2791 -0.1624
16720W        W32794   9.360   3.851  16.571 -0.1280  0.0603  0.0748
16721W        W32795   1.990   8.691   1.422 -0.4179 -0.0886  0.0575
16722W        W32796  13.777   4.727   2.789  0.1388 -0.1078 -0.0502
16723W        W32797   2.519   5.766   4.360  0.2673  0.0273  0.1005
16724W        W32798   9.403  16.999  15.006  0.1645  0.1298 -0.3469
16725W        W32799   1.183   2.817   4.884 -0.0236  0.1122 -0.1801
16726W        W32800   6.854   2.329   5.159 -0.2173 -0.1561 -0.0313
16727W        W32801   6.555   4.878  14.727  0.0526  0.0642 -0.0182
16728W        W32802   9.263   9.368   4.006  0.0689 -0.1848 -0.0574
16729W        W32803   1.572  15.174  14.961 -0.1396  0.1362 -0.1360
16730W        W32804   0.969   6.649   0.948  0.0112 -0.0583 -0.0919
16731W        W32805  15.909  11.358  13.699 -0.2272  0.2128 -0.0107
16732W        W32806   5.771  11.538   1.685 -0.2270  0.1154  0.1986
16733W        W32807   4.278   0.310   0.836  0.0648 -0.1425  0.0366
16734W        W32808   5.168  14.960  16.483  0.0551  0.0559 -0.1379
16735W        W32809   1.075   1.309   2.983 -0.3565  0.0190 -0.1836
16736W        W32810  17.247   9.404   3.062 -0.0224  0.1503 -0.1088
16737W        W32811   3.065  16.186   3.413 -0.1869  0.0843  0.1331
16738W        W32812  12.234   0.349   2.774 -0.0764 -0.1156 -0.0109
16739W        W32813   5.501  14.971   6.090  0.0668 -0.0447  0.1312
16740W        W32814  16.782  16.818  14.473  0.1441  0.1016  0.0913
16741W        W32815  10.554  11.826  12.693  0.1385 -0.1868 -0.1361
16742W        W32816   1.182   2.027   4.223 -0.2285 -0.2652  0.0467
16743W        W32817  14.792  17.136  12.059 -0.0473 -0.0269 -0.1310
16744W        W32818   5.837   7.445  12.670  0.1000  0.0150 -0.3123
16745W        W32819  16.071  12.772   2.233 -0.1167  0.1128  0.1659
16746W        W32820   0.966   0.907   3.344 -0.0441 -0.1306  0.1206
16747W        W32821   2.223  11.626   2.281  0.0811 -0.0331  0.1940
16748W        W32822   6.251   6.386   5.225  0.1166 -0.1029 -0.2457
16749W        W32823   8.531  14.917   0.950  0.0253  0.0056  0.4746
16750W        W32824   4.411   1.514   5.472  0.0113 -0.1391  0.0092
16751W        W32825   6.439   8.657   2.530 -0.2477 -0.1333 -0.1029
16752W        W32826  13.132   9.256   2.598 -0.0004 -0.0440 -0.0364
16753W        W32827   3.413   4.434  17.062  0.1560  0.0164 -0.2201
16754W        W32828  16.513   5.807   4.458 -0.1236  0.1717  0.1791
16755W        W32829  14.541   9.602  13.868  0.3071  0.0094 -0.1760
16756W        W32830   8.222   1.102  16.906  0.0032 -0.0574 -0.2344
16757W        W32831   8.907  14.609  16.333 -0.0049  0.0940 -0.1534
16758W        W32832  16.899  11.711   5.479  0.1433 -0.4021  0.0491
16759W        W32833  14.283  14.602  15.422 -0.2048 -0.0026 -0.1291
16760W        W32834   7.860   5.395   1.518  0.1099  0.0924 -0.0887
16761W        W32835  15.098   8.541   2.646  0.1490  0.2583  0.1273
16762W        W32836   5.600   2.551   3.441 -0.1552  0.0730 -0.0820
16763W        W32837   5.926   3.214   5.762  0.1514  0.0969 -0.2370
16764W        W32838  11.773  14.008   0.858 -0.0517 -0.1592  0.0827
16765W        W32839  14.844   8.577  16.254  0.1386 -0.0267  0.2014
16766W        W32840   5.368  10.449  16.835 -0.1806 -0.0121 -0.1971
16767W        W32841   6.810   1.321   1.304  0.1470 -0.2018 -0.2477
16768W        W32842  10.804  13.561  13.016  0.0823 -0.1814 -0.0450
16769W        W32843  11.552  11.310  16.659  0.0983 -0.0589 -0.1637
16770W        W32844   2.434   8.522   0.026  0.0584 -0.1136  0.1078
16771W        W32845   4.644   5.611  12.007  0.0076  0.0596 -0.0156
16772W        W32846   5.911   5.521  12.550 -0.1648  0.2194 -0.0326
16773W        W32847   7.678  10.727  13.044 -0.1335  0.0586  0.0752
16774W        W32848  13.777   6.130  14.680  0.0313  0.0996  0.0626
16775W        W32849  13.775   7.059   5.485 -0.1530 -0.0144  0.3256
16776W        W32850  15.626   6.663  14.599 -0.0423 -0.0938  0.2121
16777W        W32851  15.964   7.659   1.052 -0.1062 -0.0882  0.1920
16778W        W32852  10.385   5.108   1.559 -0.0499  0.1964  0.1963
16779W        W32853   7.671  14.478  14.751  0.2026  0.0521 -0.1262
16780W        W32854   0.926  13.188   4.736 -0.1631  0.0835  0.1865
16781W        W32855  11.021  11.813  12.932  0.1411  0.1511  0.1640
16782W        W32856   8.305   9.334  14.812  0.4750  0.1244 -0.0345
16783W        W32857  11.235   0.983   1.660  0.0610 -0.0976  0.0256
16784W        W32858  11.978   1.242  15.104  0.0917  0.0830  0.2932
16785W        W32859  11.648  15.249  13.777  0.2177 -0.1170  0.0765
16786W        W32860  12.542   3.321  16.963  0.3446 -0.3745  0.1234
16787W        W32861   7.924  12.581   1.931 -0.1967 -0.1816  0.3388
16788W        W32862   9.622  10.664  15.290 -0.2210 -0.0707 -0.1385
16789W        W32863   0.011   5.793  16.650  0.1149 -0.0748  0.1566
16790W        W32864   9.314   6.290   2.883  0.3513 -0.3645  0.2427
16791W        W32865   1.515   4.253   5.853  0.3597 -0.2663 -0.0042
16792W        W32866   6.873  15.059   4.103  0.2857  0.1761  0.2249
16793W        W32867   1.200   5.662  14.205  0.0716 -0.0443  0.0793
16794W        W32868  15.436   2.651   0.877 -0.0421 -0.3189  0.1032
16795W        W32869   2.896   2.276  12.508 -0.0490 -0.0016  0.2972
16796W        W32870   0.728  10.825   0.436  0.0462  0.2580 -0.2028
16797W        W32871   5.041  10.272  13.604  0.2209  0.2011  0.1156
16798W        W32872  13.797   9.668  16.271 -0.1106  0.1819 -0.0906
16799W        W32873  12.373  12.034  14.801  0.2462 -0.0140 -0.0210
16800W        W32874  17.019  16.063  12.584 -0.1530 -0.0940  0.4228
16801W        W32875   8.401   9.676   4.176  0.0252  0.1548  0.1565
16802W        W32876   2.061   7.384  16.509 -0.1402  0.2207 -0.2496
16803W        W32877  14.190   0.604   0.076 -0.0057  0.2028  0.2266
16804W        W32878   8.794   1.141  12.610 -0.0198  0.1806  0.1163
16805W        W32879   6.176  14.594  14.721  0.2341  0.0806 -0.1208
16806W        W32880  14.202  11.061  16.138  0.2091 -0.1118  0.0390
16807W        W32881  16.136   2.659  16.486 -0.0117 -0.0881 -0.2423
16808W        W32882   1.336  13.208   3.140 -0.1131  0.2120 -0.2920
16809W        W32883  15.617   8.180   1.762 -0.0881 -0.1732  0.0362
16810W        W32884   0.518  15.565   1.154  0.2703  0.0980 -0.0937
16811W        W32885   8.388   3.189   1.265  0.1288 -0.1363 -0.1460
16812W        W32886   1.181  10.037  16.654 -0.0154  0.4173 -0.2116
16813W        W32887   7.550   0.474  13.018  0.1559  0.1539 -0.1413
16814W        W32888   1.295  17.274   1.299 -0.2854  0.0385  0.0429
16815W        W32889  12.502   6.939   4.163  0.1574  0.1021  0.3467
16816W        W32890  12.241   8.866   3.163 -0.2532  0.0223 -0.1126
16817W        W32891  17.495   0.306   0.583 -0.2650  0.4644 -0.2512
16818W        W32892  13.426   9.728  14.993 -0.0037  0.1053  0.1902
16819W        W32893  14.389  10.499  12.355  0.1668  0.0892 -0.0056
16820W        W32894  13.815  15.687  14.040  0.0268 -0.5372  0.0241
16821W        W32895   4.291  15.991  14.487 -0.1435 -0.0456 -0.0116
16822W        W32896  17.308   3.383   2.336  0.4059  0.0260  0.1497
16823W        W32897   0.134   4.344   2.113  0.1111 -0.0146  0.1167
16824W        W32898   5.856  12.786   3.672  0.4103  0.2304 -0.0077
16825W        W32899   9.796   3.154  16.357 -0.1901  0.0517 -0.0702
16826W        W32900  17.595  13.702   4.734 -0.1634 -0.0473  0.1617
16827W        W32901  11.777   6.300  12.176 -0.3182 -0.1629  0.3086
16828W        W32902  16.967   3.095   2.082  0.5423  0.0484 -0.0475
16829W        W32903   7.512   6.014   2.852  0.1116  0.0035  0.0472
16830W        W32904   8.976   8.500  14.321 -0.1463  0.0903  0.1483
16831W        W32905  16.491   1.540  11.995 -0.0330  0.1469  0.0700
16832W        W32906  16.512   8.655  16.298  0.0329  0.4141  0.5655
16833W        W32907   3.963   6.311   1.558  0.1340 -0.0945  0.2828
16834W        W32908   2.579  11.267   2.025  0.0202 -0.1533 -0.0112
16835W        W32909   6.285   2.212   4.377 -0.0150 -0.1293 -0.1094
16836W        W32910   8.372   6.473  12.904  0.1826  0.0192 -0.2966
16837W        W32911   7.637  15.704   2.759  0.5018 -0.1999 -0.0022
16838W        W32912  16.869  10.479  14.883 -0.0576  0.0686  0.0548
16839W        W32913   4.853  15.338  15.511 -0.1297  0.0306 -0.2411
16840W        W32914  12.346   8.801   3.646 -0.1800 -0.0179  0.4240
16841W        W32915   5.907   7.907  12.466  0.0757  0.0432 -0.0686
16842W        W32916   9.553  13.213   2.640 -0.0742  0.1742 -0.0396
16843W        W32917  10.468   8.727  12.447 -0.1919 -0.3897 -0.1561
16844W        W32918  15.356  10.680   2.675 -0.2910 -0.1065  0.2345
16845W        W32919   3.157  15.714  15.529  0.3029 -0.0305  0.0238
16846W        W32920  14.566   8.618  14.816 -0.1909  0.1191 -0.2823
16847W        W32921   9.725  11.096  12.502 -0.0965  0.3371  0.4937
16848W        W32922  12.532  16.744   2.516 -0.0604  0.2091  0.1252
16849W        W32923  17.741  16.460   2.354 -0.0696 -0.2200  0.1565
16850W        W32924   5.037   2.273  14.476  0.0169 -0.1924 -0.2533
16851W        W32925   6.291  15.451   6.207 -0.1212  0.0726  0.0813
16852W        W32926  17.266  14.675  13.188  0.1443 -0.1943  0.0478
16853W        W32927  10.255  13.337  12.153  0.0570 -0.0617  0.1292
16854W        W32928  11.559  16.106  14.661  0.1495  0.3319  0.3160
16855W        W32929   2.043   5.810  16.256  0.2808  0.2929  0.3103
16856W        W32930   1.841  13.822  13.788 -0.0149 -0.0586  0.0825
16857W        W32931   6.572   3.812   5.229 -0.0803 -0.4610  0.0907
16858W        W32932  14.076  16.781  16.128 -0.0578 -0.1214  0.0469
16859W        W32933   2.787  17.385   1.388  0.0222  0.0953 -0.2481
16860W        W32934  17.319   1.450   1.698 -0.1323 -0.1272 -0.0314
16861W        W32935   0.092  14.709   4.544  0.0675  0.3234 -0.0913
16862W        W32936   2.987   1.512  16.209 -0.0576 -0.0342 -0.0327
16863W        W32937  14.684   8.712  13.088 -0.1043 -0.0242  0.0127
16864W        W32938  13.153  11.983   4.206 -0.0685 -0.3271 -0.1382
16865W        W32939   1.918  13.654  15.774 -0.2714  0.1781  0.0124
16866W        W32940  12.606   8.154   0.498  0.0047  0.0831  0.2710
16867W        W32941   0.711   6.170   1.891 -0.0353  0.3007  0.3207
16868W        W32942   6.690  12.602   2.517  0.3312  0.1724  0.1257
16869W        W32943  15.779   6.079  13.617  0.0214 -0.1840  0.3830
16870W        W32944  13.666  16.066  15.178 -0.1810 -0.1187  0.0436
16871W        W32945  10.396   6.403  15.854  0.1081  0.0043 -0.3213
16872W        W32946  12.685   5.308   4.027  0.2266 -0.2901  0.2363
16873W        W32947   7.718  14.640   2.592  0.1488 -0.2408  0.1690
16874W        W32948   6.771   2.670   3.666 -0.3390 -0.1833  0.1677
16875W        W32949   9.041   8.387  16.008  0.1025 -0.1111  0.1052
16876W        W32950   1.804   1.724  11.869 -0.0650 -0.0723  0.0562
16877W        W32951  17.649   6.242  12.659  0.0148 -0.2169  0.2493
16878W        W32952  17.493   1.647  14.834 -0.0694  0.1530  0.2116
16879W        W32953  12.755  10.025   0.930  0.2093 -0.1126 -0.1671
16880W        W32954   7.656  13.535   5.011 -0.0201  0.0658 -0.1043
16881W        W32955  11.349  12.487   4.397 -0.3258 -0.1546  0.0272
16882W        W32956  16.545   4.618  13.153 -0.2752 -0.0298 -0.2942
16883W        W32957  10.406  11.038   5.440  0.0279 -0.1735  0.4972
16884W        W32958  12.267   5.488  12.810  0.1682  0.0103  0.3464
16885W        W32959   1.520  16.696   0.500 -0.1307  0.1977 -0.0297
16886W        W32960   0.363  16.818   5.015  0.0418  0.1308 -0.1683
16887W        W32961   5.455  10.487  12.722  0.1904  0.0969 -0.3063
16888W        W32962  12.408   3.389   0.678 -0.1078  0.0886  0.0332
16889W        W32963   8.822   5.904   1.710 -0.0790  0.1481 -0.0492
16890W        W32964   2.387   9.362   5.236 -0.2349  0.1906 -0.5460
16891W        W32965  13.589   6.421  11.913  0.0619  0.0283  0.1153
16892W        W32966   0.069  11.460  11.961  0.0411  0.0950 -0.1757
16893W        W32967   2.766   2.276   0.756 -0.0655 -0.3193 -0.0599
16894W        W32968   3.830  16.431  12.636  0.1688  0.0907 -0.2710
16895W        W32969   4.649   2.540  12.956 -0.0918 -0.0384 -0.3399
16896W        W32970  15.562  13.581   0.134 -0.0055  0.1784  0.2524
16897W        W32971  15.093   3.565  16.822 -0.1296 -0.2285 -0.0354
16898W        W32972  12.849   7.673   0.811  0.0525  0.0909 -0.0524
16899W        W32973   1.977   0.001   5.068  0.0884  0.3638  0.0089
16900W        W32974  10.283   3.942  14.084 -0.1976  0.2882 -0.3420
16901W        W32975  14.073   6.178   3.822  0.0281 -0.1142  0.1189
16902W        W32976   2.024  10.650  15.295  0.3644  0.1547  0.1177
16903W        W32977  16.069   6.591   2.785  0.2722 -0.1375 -0.0359
16904W        W32978   7.633  17.154   2.374  0.0232 -0.1682  0.0196
16905W        W32979  16.973  11.184  11.662  0.1643  0.0984  0.0837
16906W        W32980   2.249  14.819   3.656 -0.3194 -0.0532  0.0048
16907W        W32981   9.714  15.235   5.709 -0.2447 -0.5415  0.1319
16908W        W32982  12.927   6.271   5.479  0.0029  0.0643 -0.0047
16909W        W32983  10.858   9.776   3.059 -0.0136 -0.0046  0.1126
16910W        W32984   9.617  13.401   0.560 -0.1813  0.0428  0.0967
16911W        W32985  13.285   1.707   0.380 -0.0529  0.4796  0.5912
16912W        W32986   4.734  10.792   0.285 -0.0644  0.1450  0.0879
16913W        W32987  11.021   2.626  13.580  0.3101  0.2429  0.2104
16914W        W32988  10.244  16.497   3.995 -0.1014  0.1088 -0.0738
16915W        W32989   1.514   2.885  16.851 -0.3591  0.2386 -0.3374
16916W        W32990   3.206   6.138   5.120  0.1035  0.0525  0.0639
16917W        W32991  13.232  11.939   0.836 -0.0216 -0.0880  0.1146
16918W        W32992   6.124   0.844   4.763  0.1461 -0.1211  0.1453
16919W        W32993   2.476  14.270   4.392  0.2055 -0.2581  0.0666
16920W        W32994   8.012  14.539   2.204 -0.0125  0.1798 -0.1555
16921W        W32995   5.991   6.436   1.349 -0.2628 -0.0226  0.2103
16922W        W32996  16.571   7.892   0.407 -0.0142 -0.2183 -0.2387
16923W        W32997   1.025  16.116   0.961  0.1745 -0.0778 -0.0127
16924W        W32998   7.684  16.210  15.275 -0.2370 -0.1300 -0.1461
16925W        W32999   3.813   7.408  14.478 -0.0044  0.1067 -0.0117
16926W        W33000   6.445   4.653   0.606  0.3525  0.1011 -0.4092
16927W        W33001  15.327  10.219  13.733 -0.2744 -0.0470  0.1662
16928W        W33002   9.899  11.137   2.382 -0.3170 -0.0172 -0.0563
16929W        W33003   8.975  17.690  14.072 -0.1395 -0.1935 -0.2234
16930W        W33004  12.700   0.735   3.945  0.0130 -0.0299  0.1067
16931W        W33005   2.960   7.855   0.517  0.1634 -0.1925  0.1546
16932W        W33006   6.088  14.022  16.767  0.0019  0.0393 -0.1343
16933W        W33007  16.927   7.095   5.524 -0.1362  0.1143 -0.0887
16934W        W33008  11.477   8.051   2.297  0.1536 -0.1531 -0.1022
16935W        W33009  17.019   9.572   1.809  0.1615 -0.0213  0.1508
16936W        W33010  14.903   3.132   3.273  0.0801  0.0547  0.2678
16937W        W33011   9.226  13.131   3.963 -0.0570 -0.1437  0.0237
16938W        W33012  15.774  14.364  13.368 -0.2510 -0.2396 -0.0066
16939W        W33013  13.058   1.875   5.498 -0.3399 -0.0131  0.0746
16940W        W33014  15.118  13.860  16.395  0.1459  0.3200 -0.0656
16941W        W33015  17.002  14.300  12.021  0.4631  0.2768 -0.3039
16942W        W33016  10.596   8.956  13.944  0.0094  0.1014  0.0599
16943W        W33017  16.418   2.367  15.442 -0.1638  0.1653 -0.0538
16944W        W33018  10.122   7.864   6.102 -0.0627  0.2563  0.2133
16945W        W33019  16.723  12.254  12.096 -0.0980  0.4564 -0.0814
16946W        W33020   8.063  10.381  13.243 -0.1925 -0.2487 -0.2055
16947W        W33021   6.649   2.162  13.414 -0.0529  0.1463 -0.0614
16948W        W33022  14.806   9.954  14.736  0.2553 -0.3238  0.1455
16949W        W33023  14.705  14.366  14.161  0.1068 -0.0405 -0.0744
16950W        W33024   8.532   2.752   1.071  0.0435 -0.0860 -0.2485
16951W        W33025  13.545   2.186   3.897 -0.5111 -0.0791  0.0416
16952W        W33026  11.279   9.846  13.284  0.0592 -0.1738 -0.0865
16953W        W33027   3.958   8.343  11.985 -0.0546  0.1675  0.0531
16954W        W33028   9.410  16.658   3.813 -0.0419 -0.1506 -0.2025
16955W        W33029  13.107   1.717  12.541 -0.1395  0.1798  0.3063
16956W        W33030  16.389  13.815   0.282 -0.0153 -0.1459  0.0741
16957W        W33031   8.542   1.029  13.188  0.0984  0.0060 -0.1152
16958W        W33032  15.493  15.660  13.510 -0.1615 -0.2029 -0.2998
16959W        W33033   7.194   5.003   0.635 -0.3413  0.0266 -0.2800
16960W        W33034  16.492   7.977  13.038 -0.0764  0.2278  0.3660
16961W        W33035  15.096  14.738  16.579  0.1263 -0.2259  0.0060
16962W        W33036   2.402  14.240   4.889 -0.0452  0.2152 -0.2014
16963W        W33037   6.790   7.803  14.605  0.0275  0.1912  0.1144
16964W        W33038  13.683   2.508  11.549  0.0487 -0.0114 -0.1110
16965W        W33039   1.272   0.261   2.302 -0.1883 -0.0389 -0.1413
16966W        W33040   5.407   5.634  15.665  0.1542 -0.0953  0.0655
16967W        W33041   4.860  14.682  16.766  0.1038 -0.2687 -0.1821
16968W        W33042  14.791   2.205  12.358 -0.0632  0.1151  0.4282
16969W        W33043   8.698  17.012   1.245 -0.1329 -0.1770 -0.1126
16970W        W33044  13.309  14.128  16.818  0.0697 -0.1314  0.1493
16971W        W33045  13.407   0.708  12.088  0.2196  0.1760  0.0381
16972W        W33046   4.946   7.464  15.658 -0.0914  0.1015 -0.1760
16973W        W33047   4.740  13.698  13.878  0.0145  0.2760 -0.0042
16974W        W33048   1.985  10.423   4.499 -0.2229 -0.2278  0.1868
16975W        W33049  17.368  15.821   0.330  0.2023 -0.0819  0.1463
16976W        W33050   2.783  13.438  15.290 -0.0393 -0.0693  0.1501
16977W        W33051   3.568   5.604   1.001 -0.3090  0.5083 -0.0232
16978W        W33052   2.431  16.729  12.404  0.0612 -0.2646  0.3032
16979W        W33053  14.698   2.355  12.974 -0.0773 -0.1690  0.0281
16980W        W33054   6.312   8.648  12.978  0.0040  0.3564 -0.1423
16981W        W33055   8.601  13.829  11.728 -0.1414 -0.0386 -0.0944
16982W        W33056   3.084   7.391   3.361  0.0781  0.2566  0.1237
16983W        W33057   5.262  14.016   5.451  0.0401 -0.0279  0.2041
16984W        W33058  15.591   8.363   2.684 -0.1526 -0.0703  0.1884
16985W        W33059   6.555  11.120   5.583 -0.1425 -0.0550  0.1076
16986W        W33060  15.890   3.671  11.853  0.0658 -0.1745  0.2686
16987W        W33061   4.655  17.373   5.174  0.1861  0.1168  0.0298
16988W        W33062   2.761  14.540   3.655 -0.1304 -0.0267 -0.2418
16989W        W33063  11.871  13.388   6.052 -0.0267  0.0413  0.2866
16990W        W33064  17.030  14.768  15.704 -0.0725 -0.1311  0.1170
16991W        W33065   9.721   4.633   1.503 -0.3241 -0.2679  0.1753
16992W        W33066  13.441   1.365  15.393 -0.1077 -0.0687 -0.1111
16993W        W33067  17.078   3.615   0.734 -0.2103 -0.0553 -0.3335
16994W        W33068  11.542  11.618   4.140  0.1961  0.0841  0.1004
16995W        W33069  16.448  10.787  14.135  0.0505  0.2003 -0.2340
16996W        W33070   1.017  12.313  12.293  0.0259  0.2291 -0.0923
16997W        W33071  15.763   4.469   3.985  0.0565  0.4227  0.0300
16998W        W33072   0.436   2.284  13.788  0.0158  0.0362  0.1571
16999W        W33073  13.560   2.459  14.366  0.0689 -0.3924 -0.1088
17000W        W33074  10.879  11.503  12.526  0.2551 -0.0452 -0.3478
17001W        W33075  16.072  17.670  12.046 -0.1259 -0.1472 -0.0299
17002W        W33076   1.245   8.391   2.065  0.1215  0.0364  0.1131
17003W        W33077   3.353   8.427   2.447  0.1890  0.0766 -0.1943
17004W        W33078   7.568   3.949  12.290 -0.1190 -0.2967 -0.0496
17005W        W33079   3.492  10.128  13.390  0.0669  0.0792  0.0647
17006W        W33080   8.523   3.859  14.476  0.3645  0.1225 -0.0025
17007W        W33081  13.219   3.364  16.509  0.3371  0.2923 -0.1302
17008W        W33082   2.496   9.028  14.013 -0.0173 -0.1331 -0.0840
17009W        W33083   8.598  16.121  17.142 -0.3577 -0.1483 -0.0849
17010W        W33084  17.549   1.464   5.442 -0.1100  0.1018  0.0287
17011W        W33085  12.890   7.858  12.904 -0.1160  0.1767  0.0397
17012W        W33086   6.087   2.583  12.986  0.0914  0.0011  0.0645
17013W        W33087  16.311   7.029   3.518 -0.3122 -0.1374 -0.2582
17014W        W33088  12.233   3.177   0.210 -0.0988 -0.1948 -0.2629
17015W        W33089  17.652  15.973  14.284 -0.1600  0.2029 -0.3094
17016W        W33090   9.193  10.389  12.451 -0.1847 -0.0148  0.0064
17017W        W33091   2.994   9.286   0.203 -0.0616  0.1596 -0.0624
17018W        W33092   6.934   8.723   1.840  0.0987 -0.0786  0.5165
17019W        W33093   2.177   1.611  16.831  0.1212 -0.1152  0.0854
17020W        W33094  10.073   7.854   4.634  0.0427 -0.0158 -0.3207
17021W        W33095   2.303  15.535   0.467 -0.1861 -0.0939  0.0985
17022W        W33096  10.053  13.463  17.019  0.0120  0.0974  0.3223
17023W        W33097  17.290  16.528   1.074 -0.1333 -0.0052 -0.2264
17024W        W33098  13.444  14.563   3.217 -0.2100 -0.2163  0.0473
17025W        W33099   8.627   4.020   2.287 -0.3352  0.0374  0.0677
17026W        W33100   8.361   1.898   2.654 -0.1425  0.1357  0.0737
17027W        W33101   8.318   0.991  12.592  0.1362  0.0116 -0.2192
17028W        W33102   1.640   2.708  14.930 -0.0031 -0.0991  0.1285
17029W        W33103   3.870  15.256   3.771  0.0656 -0.2455  0.1164
17030W        W33104   1.580  10.456   4.225  0.0280 -0.0223  0.1574
17031W        W33105   6.378  15.866   1.802  0.1469  0.1432  0.1952
17032W        W33106  11.385  13.133   4.407 -0.2360  0.3165 -0.1540
17033W        W33107   2.971  14.856   4.613  0.0015  0.3828  0.0317
17034W        W33108   9.586   1.211   1.173 -0.0911 -0.3241  0.1102
17035W        W33109   0.958   5.540  12.685  0.0856  0.1355 -0.1875
17036W        W33110  13.824  14.128  13.125  0.1048 -0.2071  0.0515
17037W        W33111   2.525  17.699   2.611  0.1128 -0.1870 -0.0058
17038W        W33112   9.958  13.311   1.231  0.2974  0.1339 -0.1610
17039W        W33113   7.150   9.503  12.321 -0.1305  0.0171  0.2438
17040W        W33114  15.422   4.433   0.282 -0.0907  0.2672  0.1821
17041W        W33115  15.543  16.358  15.323 -0.0806 -0.0926  0.1761
17042W        W33116   5.019   6.461  15.912  0.2742 -0.0172 -0.2293
17043W        W33117  13.655   5.731  11.951  0.0969 -0.0205  0.1650
17044W        W33118   2.028   5.429   6.008  0.0699  0.0125  0.0305
17045W        W33119   2.993   5.662   5.135 -0.0769 -0.1458  0.3164
17046W        W33120   9.595  10.698   1.626  0.1822 -0.0524 -0.0070
17047W        W33121   8.992   1.923  16.176  0.4036  0.3724 -0.2870
17048W        W33122   2.806  10.397  13.428 -0.0042  0.0492  0.1143
17049W        W33123   1.860  14.779  11.192 -0.3008  0.1825  0.1000
17050W        W33124  13.155  14.806   3.602  0.4797 -0.0912 -0.1755
17051W        W33125  13.574   6.117  14.083  0.0972  0.1104 -0.1927
17052W        W33126  12.758   8.860  14.672 -0.0254 -0.1204 -0.0142
17053W        W33127  10.483   7.579  11.921 -0.1209  0.2989 -0.0133
17054W        W33128   6.675   9.601  13.503 -0.3164  0.1382 -0.4275
17055W        W33129  17.390  13.136  15.722 -0.2987 -0.1722  0.1579
17056W        W33130  10.316   6.783   0.430  0.0904 -0.2224 -0.1949
17057W        W33131   4.017   4.839  15.938 -0.3998 -0.0385  0.1806
17058W        W33132   1.199   2.878   4.369  0.2140 -0.0472  0.0877
17059W        W33133  17.643  12.158   0.714  0.0338  0.0092  0.0357
17060W        W33134  15.906  17.357  14.159 -0.1075  0.3044  0.4540
17061W        W33135  10.217  11.170   1.973  0.1092 -0.1284  0.0394
17062W        W33136   0.263   3.438  14.321  0.1437 -0.3265 -0.0493
17063W        W33137  10.611   9.945   5.494 -0.2182  0.0224  0.2673
17064W        W33138   9.193  12.789   3.572 -0.0513 -0.0641 -0.0216
17065W        W33139  11.138   8.549  14.792 -0.1608 -0.0488 -0.1172
17066W        W33140   4.645   2.453   5.811 -0.0856  0.0885  0.1936
17067W        W33141   6.062  16.024   2.648  0.1079 -0.1068 -0.0662
17068W        W33142   5.923  17.742  11.725 -0.0428  0.2202  0.0922
17069W        W33143   4.872   0.489  12.651  0.0096  0.1294 -0.1888
17070W        W33144  14.209   4.506   5.237  0.2198 -0.1140 -0.0820
17071W        W33145   8.516   1.183   0.635  0.0429 -0.3617 -0.2327
17072W        W33146   4.683  14.484   1.401  0.2822  0.0675 -0.3443
17073W        W33147   3.616  15.233   4.189 -0.1502  0.0748 -0.0647
17074W        W33148   0.949   5.082   3.281  0.1637 -0.3008 -0.0446
17075W        W33149   1.829   2.049   0.372  0.1234 -0.2044  0.0089
17076W        W33150  14.687  17.478  14.111 -0.2386 -0.1601 -0.0776
17077W        W33151  11.746   8.692   4.742  0.3529  0.3391 -0.0671
17078W        W33152  16.129   1.449   2.932  0.0992 -0.2910 -0.1675
17079W        W33153  11.068   3.645  15.374 -0.3391 -0.0206  0.1598
17080W        W33154   2.202  14.982   5.057 -0.4042 -0.1857 -0.0340
17081W        W33155  12.105   3.535   3.041 -0.2613  0.4704 -0.2324
17082W        W33156   0.370  14.521   3.653  0.1280  0.1689  0.0067
17083W        W33157  16.119   8.895  12.916 -0.2062 -0.1362  0.1644
17084W        W33158  10.944  15.781  13.855  0.1764 -0.1359 -0.1076
17085W        W33159   9.316   5.651   4.842  0.2799 -0.0565  0.2266
17086W        W33160   3.030  14.494   5.970 -0.1104  0.0406  0.1535
17087W        W33161  11.702   9.898   4.063 -0.1704  0.2409  0.0542
17088W        W33162  11.508   2.476  14.704  0.2150  0.1579 -0.4827
17089W        W33163   0.325   1.642   5.954  0.2336  0.0177  0.0611
17090W        W33164   9.011   7.915   5.433 -0.2876 -0.1432  0.1025
17091W        W33165  12.823   0.404   5.040  0.0398 -0.0963 -0.1851
17092W        W33166  10.751  15.656   5.143  0.1987  0.2531  0.2485
17093W        W33167  13.697   3.799  15.513 -0.1285  0.0623 -0.0937
17094W        W33168   1.052  11.387   4.122  0.0800 -0.1342 -0.2465
17095W        W33169   1.695  13.812  14.285  0.1049 -0.0816  0.3512
17096W        W33170  14.029  13.330   5.548  0.0439 -0.1682 -0.2013
17097W        W33171  15.517  15.297   3.293 -0.0719  0.1045  0.0607
17098W        W33172  10.621  16.707  14.759  0.0808 -0.2396 -0.0189
17099W        W33173   7.214  12.795  11.946 -0.1934 -0.0896 -0.1195
17100W        W33174  11.595   9.917   1.926 -0.0694 -0.0167  0.0168
17101W        W33175  12.773   6.347   5.965 -0.1246 -0.0466  0.1185
17102W        W33176  12.786   8.340  13.447 -0.3030 -0.1952 -0.2539
17103W        W33177   5.780   6.987  11.902 -0.2143  0.2086  0.2459
17104W        W33178  11.631  16.016   3.677 -0.0634 -0.1232  0.1798
17105W        W33179   6.870   8.109  15.022 -0.0564  0.1494  0.0882
17106W        W33180   8.140  17.100   5.583  0.1610 -0.1604 -0.1400
17107W        W33181  13.279   6.071   0.435 -0.2023 -0.0794  0.1073
17108W        W33182   0.727   1.316   1.824  0.2986 -0.0866  0.0071
17109W        W33183  10.720   6.239  13.497 -0.1652 -0.0971  0.0684
17110W        W33184   2.622   9.830   3.219 -0.4484  0.0260 -0.0796
17111W        W33185   0.512  15.921   5.553 -0.3213 -0.1348 -0.2553
17112W        W33186   2.241   7.289  13.322 -0.0028  0.0257  0.0909
17113W        W33187   6.458  15.371   4.086  0.1956  0.2769 -0.0576
17114W        W33188   1.964  11.605  14.336 -0.2110 -0.1671  0.1177
17115W        W33189   4.623   9.563  11.617  0.1645 -0.1547  0.1447
17116W        W33190  10.489   8.275  13.176 -0.2665 -0.0981  0.0916
17117W        W33191   3.630   3.191   2.097 -0.0978 -0.1863  0.3651
17118W        W33192   5.320   6.871  13.410  0.1404 -0.0240  0.3271
17119W        W33193  11.983   1.174   3.810  0.0770 -0.0504 -0.0939
17120W        W33194   8.697   4.883  16.933  0.1681  0.1489  0.2546
17121W        W33195   8.071   6.980  15.753 -0.0999 -0.2282  0.1863
17122W        W33196   2.882  14.557  12.679 -0.0522  0.1607  0.0867
17123W        W33197   5.443  13.658   0.959  0.2023  0.3054 -0.2283
17124W        W33198  10.439   3.763   0.475  0.0706  0.1426 -0.2603
17125W        W33199  12.320  15.842   2.777  0.0992  0.4012 -0.2276
17126W        W33200   3.330  11.578   5.128 -0.2186  0.1733 -0.0796
17127W        W33201  15.326  10.712  12.491  0.1284 -0.0859 -0.1185
17128W        W33202   1.542  13.072  11.882 -0.0617  0.0456  0.1614
17129W        W33203  12.995   9.216  16.121  0.0452  0.4034  0.0230
17130W        W33204  17.482  13.292   5.677 -0.0547  0.0421 -0.2056
17131W        W33205   6.817   6.905  14.511 -0.0823 -0.2698 -0.3325
17132W        W33206   3.575  13.002  14.424  0.0345 -0.0560  0.1457
17133W        W33207  12.525   5.920  16.328 -0.1028  0.0504 -0.2382
17134W        W33208  16.691  17.568   5.463  0.1989  0.0637  0.2373
17135W        W33209   1.096  12.439   3.696 -0.1947  0.0480  0.2193
17136W        W33210  14.283   5.335  12.686  0.0736 -0.0059  0.0480
17137W        W33211  16.160   8.271  15.325 -0.0255  0.3222  0.1702
17138W        W33212  13.114   4.880  11.835  0.1476 -0.0678  0.0269
17139W        W33213  12.207   3.652   6.030  0.1074  0.1022 -0.1079
17140W        W33214   9.045  12.729   2.423  0.1562 -0.1583  0.0794
17141W        W33215   4.096   1.767  16.929  0.0631 -0.0653  0.1072
17142W        W33216  13.890  16.666   0.565  0.1584  0.0714 -0.0871
17143W        W33217   6.895   3.773  11.761 -0.1365 -0.2878  0.1053
17144W        W33218  17.665   4.762   4.888  0.1744  0.2135  0.3202
17145W        W33219   8.455   3.894  16.800 -0.3585  0.0796  0.2433
17146W        W33220   8.119   2.551  14.933  0.0873 -0.0238 -0.2905
17147W        W33221   4.614  14.111  10.928 -0.1660 -0.1025 -0.1008
17148W        W33222   5.400   7.686  15.888 -0.0479 -0.1513 -0.0855
17149W        W33223   7.640   2.300   5.352 -0.1101 -0.1255 -0.2454
17150W        W33224   2.908  12.664  12.797  0.0927  0.2545  0.2266
17151W        W33225  16.295   5.965   2.733  0.2320  0.1051 -0.1327
17152W        W33226  10.826   5.426  11.021  0.0778 -0.1522  0.0847
17153W        W33227  14.094   3.217   1.092  0.0769 -0.0507  0.0677
17154W        W33228   7.883  12.999   3.643  0.4292 -0.1287  0.0486
17155W        W33229  11.029  10.689  12.927 -0.2494 -0.1349 -0.1996
17156W        W33230   9.817   1.381   3.801 -0.2296  0.3593 -0.0125
17157W        W33231   0.809  16.983   5.104 -0.0553  0.0202  0.2383
17158W        W33232   1.565  13.625  13.413 -0.1558 -0.2942  0.1247
17159W        W33233  13.138  13.457  14.974  0.0436  0.3055  0.1758
17160W        W33234   4.184  13.565   3.439 -0.0352 -0.1754 -0.4106
17161W        W33235   8.425   3.425   5.624 -0.0752  0.2835  0.1906
17162W        W33236  17.565   4.893   4.339  0.0624 -0.3796  0.1841
17163W        W33237   5.335  10.300  15.368  0.1074 -0.1109  0.0524
17164W        W33238  10.428  16.228  11.994  0.0133  0.0356 -0.2270
17165W        W33239   7.470   0.038  15.119 -0.2931 -0.0548 -0.1473
17166W        W33240   3.795   6.797   1.709  0.0632  0.0278 -0.0216
17167W        W33241   3.860   6.641   1.188  0.0305  0.3933  0.2299
17168W        W33242   4.568   6.340  12.628 -0.0731 -0.1018  0.1937
17169W        W33243  14.672  15.360  14.004  0.0715  0.2425  0.0447
17170W        W33244   2.055   7.949  14.621  0.2218 -0.0643 -0.2534
17171W        W33245   4.380  13.271   3.923  0.2510 -0.0636 -0.0608
17172W        W33246  13.223   4.655  14.624 -0.0553  0.3149 -0.0859
17173W        W33247   9.158  16.128   5.781  0.0408  0.1720  0.0882
17174W        W33248   7.210   0.953  14.151  0.1959 -0.1513  0.2152
17175W        W33249  16.184  11.552  11.309 -0.3566 -0.0457 -0.2470
17176W        W33250   9.390  10.093  16.056 -0.2984 -0.2033 -0.1292
17177W        W33251  12.843  10.710  13.787  0.1422  0.0504  0.0039
17178W        W33252  12.026   0.242  11.602 -0.1258  0.0468  0.1065
17179W        W33253   8.796  13.797  14.011 -0.0137 -0.6995 -0.1152
17180W        W33254  13.423   1.988  11.847  0.0213 -0.2193  0.0269
17181W        W33255  13.161  13.216   0.488 -0.1080 -0.1719 -0.2253
17182W        W33256  10.306   7.903  16.085 -0.0194  0.2516 -0.2814
17183W        W33257  10.585  11.001   1.347  0.0493 -0.0797 -0.0588
17184W        W33258   0.220  16.462  15.303  0.1865 -0.3035  0.0213
17185W        W33259  16.426   2.244   0.190  0.1453  0.2837 -0.1682
17186W        W33260   0.104   4.559  12.241  0.0172  0.0403 -0.0152
17187W        W33261   9.148  14.752  12.014  0.1517  0.0434  0.0665
17188W        W33262  11.108   9.501   2.727 -0.1202  0.3408  0.1297
17189W        W33263   6.271  11.635   1.640 -0.0808  0.0111 -0.3065
17190W        W33264   9.235   1.816  13.057  0.1953  0.1677  0.0981
17191W        W33265   3.233   6.147   3.265  0.1809  0.0915  0.3601
17192W        W33266   4.064   2.860   2.275 -0.0359 -0.2021  0.1988
17193W        W33267  15.377   5.823   0.819  0.0639 -0.2069  0.0042
17194W        W33268  16.383  12.392  12.506 -0.0755  0.0523 -0.0184
17195W        W33269   4.892   6.538   5.748 -0.0200 -0.2733  0.1854
17196W        W33270   9.449   4.068  15.162 -0.1096  0.2137  0.4773
17197W        W33271   2.480  17.295  14.472  0.2017 -0.0644 -0.4050
17198W        W33272   0.084  12.685   6.242  0.2042  0.0442 -0.0127
17199W        W33273   0.263   9.101   3.974  0.1365 -0.2127  0.2103
17200W        W33274   9.168   0.664  16.934 -0.0287  0.2546 -0.0481
17201W        W33275   6.713   4.903   2.804 -0.0903 -0.3982 -0.2533
17202W        W33276  11.281   9.372  14.236  0.0007 -0.2477  0.1855
17203W        W33277   0.183  13.738   4.248 -0.0117  0.0212  0.1540
17204W        W33278   5.301   8.859  11.776 -0.0731 -0.1191  0.0062
17205W        W33279  15.552   7.017  16.306 -0.0386 -0.0476 -0.1898
17206W        W33280   2.188  14.372   1.531  0.0123 -0.1828  0.0653
17207W        W33281  10.138  15.294   1.001 -0.0821  0.1306  0.1615
17208W        W33282   5.502   6.106   0.697  0.0101 -0.1276 -0.2706
17209W        W33283  14.697   1.247   3.434  0.0096 -0.2092  0.4027
17210W        W33284   2.718  13.238  14.878  0.0243  0.2210 -0.1250
17211W        W33285  15.609   5.935  12.803 -0.0045  0.1954 -0.2032
17212W        W33286   5.883   2.412   6.206 -0.2652 -0.2352  0.2801
17213W        W33287  17.655   0.945   5.541  0.2307 -0.0114 -0.1983
17214W        W33288   8.655   1.005   4.421 -0.1033  0.1715 -0.3035
17215W        W33289   5.362  14.031  15.040 -0.3116  0.0691  0.4856
17216W        W33290  13.925   6.170   4.965  0.0024  0.0774 -0.1552
17217W        W33291   7.574   4.673   0.863  0.0023 -0.1306  0.1256
17218W        W33292   3.391   7.662   1.521 -0.1866 -0.0066  0.0160
17219W        W33293  12.694  13.158   5.378  0.0000  0.1669  0.2311
17220W        W33294   1.390   9.817  17.055  0.1550 -0.0117  0.0995
17221W        W33295   5.904  14.561  15.224  0.0158  0.0078 -0.0980
17222W        W33296  14.015  11.910  12.921  0.0712  0.0302  0.1416
17223W        W33297   4.795   0.347  16.564 -0.1547  0.0316 -0.3086
17224W        W33298  11.462   1.355  13.165 -0.0352  0.2177 -0.2283
17225W        W33299  13.501   5.342   4.441  0.0133  0.0308  0.1463
17226W        W33300   0.884  11.389  12.118 -0.1876 -0.2210  0.1093
17227W        W33301   8.252   5.384  17.102 -0.1893  0.1357  0.1741
17228W        W33302   5.056   3.917   5.972  0.0704 -0.3352  0.2207
17229W        W33303  13.751   3.788  13.091  0.1189 -0.1854 -0.0575
17230W        W33304   0.868   3.078  13.845  0.1469  0.0413  0.4129
17231W        W33305  13.117   0.486  14.822  0.1295  0.0030  0.1322
17232W        W33306   3.924   2.599   1.363 -0.1197  0.0583 -0.3541
17233W        W33307  11.864   0.330   5.273 -0.1414  0.1680 -0.4094
17234W        W33308  16.894   1.600   5.428 -0.4204 -0.2862 -0.2772
17235W        W33309  14.372   7.145   3.000  0.1043  0.2842  0.1357
17236W        W33310  13.432   2.566  13.500  0.0054  0.0667  0.2396
17237W        W33311  10.259   8.190   4.238 -0.0552  0.2856 -0.0314
17238W        W33312  12.323   5.566   1.449 -0.0059 -0.2365  0.0834
17239W        W33313   6.229  13.914   0.568  0.2870  0.2324 -0.0791
17240W        W33314  16.500  17.621   5.016  0.0886 -0.2386  0.2783
17241W        W33315   8.450  12.693   1.925  0.2700  0.1462 -0.1334
17242W        W33316   8.048   7.135   4.645  0.1553  0.2109  0.1594
17243W        W33317   0.827   5.738   5.351 -0.0456 -0.3179 -0.0739
17244W        W33318   4.237  15.265   2.793 -0.2545  0.1509  0.1512
17245W        W33319  16.169  16.448  13.475 -0.2104  0.2477  0.2169
17246W        W33320   6.389  16.000  15.696 -0.0459  0.1693  0.2620
17247W        W33321   5.291   9.869  12.800  0.0591  0.0478 -0.4747
17248W        W33322   4.220   4.221  16.548 -0.0642 -0.1489 -0.0996
17249W        W33323  13.216  17.247   5.597 -0.2817 -0.2147 -0.1232
17250W        W33324   3.700  15.871   0.646 -0.3081 -0.2225  0.1700
17251W        W33325  16.299   3.907  12.591  0.2794 -0.1640 -0.0258
17252W        W33326   4.937  17.265   2.593  0.1780 -0.3177  0.0816
17253W        W33327   9.150  15.852   0.700  0.0968 -0.1259 -0.2186
17254W        W33328  14.589   7.979   1.026  0.3715  0.2183  0.0508
17255W        W33329   4.128  16.794   3.225 -0.0851  0.0908  0.2006
17256W        W33330   9.588  11.185  13.525  0.1838 -0.1731 -0.0810
17257W        W33331  15.367  11.857   3.421 -0.3242  0.3163  0.1220
17258W        W33332  10.871  14.426   4.425 -0.1938 -0.2098  0.0072
17259W        W33333  14.275  13.246  16.101 -0.0742  0.0397  0.0621
17260W        W33334  13.424   8.022   2.763  0.2627  0.0880 -0.0085
17261W        W33335  17.595   4.173  13.141 -0.0111  0.2061 -0.1648
17262W        W33336   1.420   4.974  13.223 -0.2894  0.1159  0.2414
17263W        W33337   5.707   1.633  17.012 -0.1131  0.2751 -0.1515
17264W        W33338  14.637   0.872  12.928  0.0498  0.2038 -0.2128
17265W        W33339  16.344   6.141   3.222  0.1535 -0.0226  0.1089
17266W        W33340   5.786   2.524   1.236 -0.0549 -0.0180  0.1154
17267W        W33341   2.099   7.383   2.023 -0.0578 -0.1248  0.2173
17268W        W33342   6.348   0.941  14.788  0.2112 -0.1470 -0.3271
17269W        W33343   5.940   2.923   3.688 -0.1797 -0.0210 -0.1097
17270W        W33344   9.596   2.316  14.846  0.3311  0.2551 -0.2916
17271W        W33345   0.008   9.541   1.361 -0.1168  0.2339  0.2706
17272W        W33346   6.084  15.419   5.226  0.4652  0.1786 -0.2754
17273W        W33347  13.166  13.816  11.905 -0.0080  0.1712 -0.0743
17274W        W33348   0.364   3.598  16.202  0.0569  0.1018  0.0345
17275W        W33349   0.956   7.380   6.249 -0.0403  0.0450 -0.1654
17276W        W33350  16.258  14.207  14.006 -0.1298  0.0918  0.3364
17277W        W33351   9.603  10.092   1.472  0.1567  0.0252 -0.5285
17278W        W33352   9.996   3.514   2.669  0.0770 -0.0795  0.2527
17279W        W33353  12.615   5.764  14.832 -0.2580 -0.1187  0.0032
17280W        W33354  10.196   0.392  15.832  0.0406  0.0743  0.0052
17281W        W33355  14.880   3.438  12.743  0.1891 -0.0947  0.2519
17282W        W33356  13.944   0.300  14.585  0.0348 -0.4158  0.0592
17283W        W33357   6.150  14.109  15.017 -0.0021  0.3340  0.0168
17284W        W33358   4.129  13.931  12.248  0.4727  0.0244 -0.2001
17285W        W33359   6.708   0.190  16.930 -0.3576  0.3632 -0.0297
17286W        W33360  14.010   6.249   0.828 -0.3177  0.1291  0.1732
17287W        W33361   1.708   7.898   2.524  0.3211  0.0017 -0.0778
17288W        W33362  14.479   0.972  16.410  0.2778 -0.0939  0.1941
17289W        W33363   9.561   5.699   2.310 -0.1458 -0.4798  0.1371
17290W        W33364  16.190   9.530  11.363  0.2672  0.0768 -0.2575
17291W        W33365  14.214   2.791  14.654 -0.2709 -0.3159  0.0247
17292W        W33366   9.850   4.074   1.753  0.0654  0.0947 -0.0366
17293W        W33367  14.236   8.989  13.278 -0.2298 -0.0333 -0.2566
17294W        W33368   8.209  14.611   2.696 -0.1995  0.0399  0.1299
17295W        W33369   9.168   7.665  11.811 -0.3535  0.1576 -0.0776
17296W        W33370   9.651  16.331   1.963  0.2650  0.2578  0.0979
17297W        W33371   5.050  15.753   3.935 -0.1404  0.3617 -0.2370
17298W        W33372  10.218   8.851  16.329  0.0453  0.0320 -0.2543
17299W        W33373   2.228  10.998  13.614 -0.2680  0.0336  0.1884
17300W        W33374  15.273   1.399   0.188  0.1654  0.0647  0.0943
17301W        W33375   6.173   6.978   4.092  0.2991  0.1149  0.0655
17302W        W33376   2.890   1.348   2.079  0.0514  0.3390  0.2195
17303W        W33377   2.131  15.694   3.374  0.1964 -0.0025 -0.3407
17304W        W33378  17.389   7.539   2.221 -0.2578  0.3388  0.2151
17305W        W33379   9.498  12.177   3.112 -0.1702  0.0343 -0.1746
17306W        W33380   0.630   1.081  12.612  0.1858 -0.1909 -0.1040
17307W        W33381  16.101   5.282   1.019  0.0827  0.2509  0.2687
17308W        W33382   6.071   8.573   4.259  0.2142  0.1618 -0.0828
17309W        W33383   0.399  17.559   4.155  0.0039 -0.0702  0.1680
17310W        W33384  16.941  10.671   5.416 -0.1485 -0.1989  0.4413
17311W        W33385  17.007   4.986   0.229  0.0602  0.0614 -0.3683
17312W        W33386   2.005   7.298   1.405  0.2552  0.2800  0.1673
17313W        W33387   8.201  11.350  14.408  0.5247 -0.0152 -0.3066
17314W        W33388   6.934   3.236  11.795  0.1704  0.1091 -0.0520
17315W        W33389   2.458  12.876  13.095 -0.0296 -0.0678 -0.3239
17316W        W33390   7.427  11.739  16.387  0.3563  0.1527  0.0259
17317W        W33391   0.180   8.614   2.937 -0.0014 -0.1586  0.0006
17318W        W33392   7.141   8.421  11.662 -0.1349  0.1675  0.1409
17319W        W33393   9.924  13.902   4.850  0.0959 -0.4062 -0.0415
17320W        W33394   1.500   0.805   1.469 -0.3093  0.1532 -0.0643
17321W        W33395   2.827   2.546  16.406 -0.0915  0.1537  0.1925
17322W        W33396  16.448   3.812   3.205  0.0552  0.0306 -0.0713
17323W        W33397  16.226   2.133   1.376  0.1483 -0.4446 -0.3423
17324W        W33398   1.336  13.259   6.492 -0.2852  0.0728  0.0495
17325W        W33399  16.347   9.462  12.381 -0.0719  0.1156  0.2100
17326W        W33400   2.858   7.529  15.226 -0.0489 -0.1288 -0.0442
17327W        W33401   0.513   0.441   4.721  0.0974  0.0947 -0.2602
17328W        W33402  11.566   4.703   3.353  0.1739  0.1168 -0.1160
17329W        W33403  16.001   8.596   5.246 -0.0618  0.2196 -0.1442
17330W        W33404   8.207  12.855   2.733  0.0712  0.1426 -0.3873
17331W        W33405   4.532   5.892   5.320  0.0720  0.1280  0.1667
17332W        W33406   3.326  10.787   4.506  0.2421 -0.1820 -0.2793
17333W        W33407   6.325   5.635   2.404 -0.3548  0.3329 -0.0346
17334W        W33408  11.456  10.995  16.254 -0.1317  0.1511 -0.0852
17335W        W33409   3.362  16.733  15.207 -0.1261  0.0585 -0.2820
17336W        W33410   3.450   9.052  13.438  0.0201 -0.0536 -0.0739
17337W        W33411   9.599   7.804   5.607  0.3782  0.1113  0.1574
17338W        W33412   7.968  16.053   4.307 -0.0842 -0.1499 -0.1712
17339W        W33413  15.227   6.936   3.401 -0.2553 -0.1224 -0.1965
17340W        W33414  12.278   7.663   5.551  0.2302  0.1166 -0.0070
17341W        W33415  15.230   2.606  16.007  0.3089 -0.2122 -0.0014
17342W        W33416   6.772  12.547  12.582  0.0349  0.0015  0.1125
17343W        W33417   5.584   3.527  14.861 -0.0798 -0.2502 -0.2070
17344W        W33418   1.996  13.298  11.943 -0.0536 -0.0723 -0.1439
17345W        W33419  11.937   4.958   3.161 -0.0809 -0.2140 -0.1505
17346W        W33420  16.351   3.977  13.890  0.3396 -0.1122 -0.0876
17347W        W33421  15.113   3.642  11.712  0.1351  0.0733 -0.4147
17348W        W33422   9.077   3.780  14.569 -0.0168 -0.2383 -0.3655
17349W        W33423   3.203   7.190  11.681  0.1422 -0.0485  0.0122
17350W        W33424  14.393  13.555   2.899  0.1556 -0.4392  0.0980
17351W        W33425  10.974  12.377  13.669  0.0074 -0.1967  0.0295
17352W        W33426  15.089   7.256  15.126 -0.1667  0.2077  0.0609
17353W        W33427   9.405   5.067   5.317 -0.0762  0.0960 -0.0853
17354W        W33428   4.260   7.958  11.835 -0.1634 -0.0640 -0.4912
17355W        W33429   9.627  15.389  13.849  0.1351  0.0048  0.1309
17356W        W33430   2.865   8.683   3.340 -0.1323  0.0354 -0.0467
17357W        W33431  10.984   0.557   2.339 -0.1623  0.1152  0.3838
17358W        W33432  13.482  10.925   1.332  0.0016 -0.2518  0.0939
17359W        W33433   0.980  13.501  14.135 -0.2567 -0.1335 -0.1613
17360W        W33434  15.398   5.721   2.361 -0.2431  0.0110 -0.3218
17361W        W33435   0.455   7.392   3.116 -0.0935  0.1526  0.2571
17362W        W33436  17.041   8.543  12.292  0.2503  0.1467  0.2052
17363W        W33437  16.302   5.273  15.165  0.1248 -0.1869  0.0304
17364W        W33438   0.090  15.576  14.776 -0.1589 -0.4666 -0.1101
17365W        W33439   1.893   2.394   5.516  0.3050 -0.1375 -0.1548
17366W        W33440  16.846  16.425   0.841 -0.2585  0.2420 -0.0979
17367W        W33441  12.895  11.045  15.394  0.0512 -0.0000  0.0815
17368W        W33442  12.609  15.162  13.464  0.0145  0.2456  0.1693
17369W        W33443  17.164   9.493  12.978  0.3257 -0.0528 -0.0604
17370W        W33444  14.733  10.986  12.056 -0.4486 -0.0689  0.1110
17371W        W33445  11.998   0.575   3.164  0.1060 -0.1991 -0.3941
17372W        W33446  12.773  15.636  13.783 -0.0412 -0.1639  0.1898
17373W        W33447  15.935  11.301  13.093 -0.0183  0.0084 -0.0174
17374W        W33448   0.608   4.169   2.579 -0.2187 -0.2915  0.2498
17375W        W33449  12.306   5.599   3.815 -0.2889  0.0753  0.1166
17376W        W33450   9.178   0.897   2.598  0.1486  0.0561 -0.2663
17377W        W33451  16.256   4.506   4.008  0.1843  0.1349  0.2755
17378W        W33452  11.398   6.827   4.256 -0.0640 -0.1195 -0.0390
17379W        W33453  15.683   8.298   3.276  0.3137 -0.4614 -0.0265
17380W        W33454   1.172   7.646   5.079  0.2428  0.1702 -0.1454
17381W        W33455  15.521   5.724  16.981 -0.0037 -0.1125 -0.2523
17382W        W33456   1.362  12.373   1.436 -0.0156  0.1060 -0.1663
17383W        W33457  16.960   7.732   2.141  0.3353 -0.0810 -0.0532
17384W        W33458   7.459   5.064   2.272 -0.2680 -0.0461  0.4079
17385W        W33459   8.236  11.589   5.870 -0.2731 -0.0389  0.2326
17386W        W33460   4.791   4.413  14.122  0.1132 -0.0206 -0.2585
17387W        W33461  13.277   1.185   1.735 -0.1413 -0.0310  0.0008
17388W        W33462   4.397   1.492   0.177  0.4283 -0.1309  0.0901
17389W        W33463   3.083   5.915  13.822  0.0032 -0.0610  0.1371
17390W        W33464   8.688   2.910   3.186 -0.1135 -0.0676 -0.3306
17391W        W33465   3.202   0.215  14.044  0.2731 -0.1779 -0.0384
17392W        W33466   1.876   1.284  12.787  0.1709 -0.5299 -0.1023
17393W        W33467   6.806   7.038   1.378  0.1114 -0.0005 -0.0049
17394W        W33468   5.744  10.172   1.936 -0.1352  0.1995  0.0541
17395W        W33469   8.169   9.480   5.507  0.0769  0.1447  0.2247
17396W        W33470   0.995  12.219  16.448 -0.4693 -0.1125  0.0273
17397W        W33471   2.398  13.405  13.018 -0.0587 -0.2171  0.1095
17398W        W33472   2.930   2.412  14.410 -0.0865  0.0015  0.1611
17399W        W33473  13.641   4.794  12.119 -0.0951 -0.0932  0.2626
17400W        W33474   3.210  10.523   5.959 -0.2983  0.0374  0.2960
17401W        W33475   2.617   9.249   0.588 -0.0771  0.0994 -0.0166
17402W        W33476   0.175   7.813   3.016  0.0252  0.2348  0.1516
17403W        W33477  10.806   1.969   5.706 -0.0133  0.1284  0.0543
17404W        W33478   4.044   8.355  11.466 -0.0721 -0.3660 -0.3638
17405W        W33479   4.207   4.480   2.942  0.3150  0.1931 -0.0147
17406W        W33480  15.649   1.273  12.203 -0.3604 -0.0646 -0.1355
17407W        W33481   1.122  12.309   2.141  0.2525 -0.2061 -0.3720
17408W        W33482  12.142   9.321  11.892  0.1170  0.0325 -0.0159
17409W        W33483  10.867   8.544   1.539 -0.1916  0.1568 -0.0179
17410W        W33484  16.354  14.323   1.643 -0.0793 -0.1772 -0.0160
17411W        W33485   9.260   4.348   5.878  0.0156  0.0506 -0.1407
17412W        W33486  13.821   4.984  16.320 -0.1757 -0.2018  0.1057
17413W        W33487   4.063  17.231  14.722  0.1272  0.1011  0.1481
17414W        W33488   8.374   4.281   5.043 -0.0206  0.1830  0.1169
17415W        W33489  12.924  11.095  14.164 -0.0857 -0.0125 -0.0399
17416W        W33490  11.380   6.827  15.880  0.4804  0.1547  0.3081
17417W        W33491  13.312  12.149   0.243  0.1518  0.0369 -0.1251
17418W        W33492  14.721   6.341   3.241 -0.0889 -0.0970 -0.0377
17419W        W33493   9.503   0.083   0.556 -0.0463  0.0280  0.1164
17420W        W33494  13.213   8.832   4.699 -0.0790 -0.1195  0.0533
17421W        W33495   4.944   5.716   5.099  0.0140  0.1601 -0.2188
17422W        W33496  10.104   5.673   1.515 -0.2057 -0.2731 -0.3354
17423W        W33497  11.976   8.534   3.999 -0.2167  0.0615 -0.1227
17424W        W33498   4.889   0.224  12.244 -0.1564 -0.0160  0.0205
17425W        W33499   1.687   1.888   2.658 -0.0791  0.2008 -0.0724
17426W        W33500  11.571   1.850  12.455 -0.3302  0.1593  0.0591
17427W        W33501  11.199   6.874  13.204  0.2487 -0.1635 -0.1284
17428W        W33502  15.946  15.451   4.618 -0.1226  0.2200 -0.0642
17429W        W33503   2.891   5.064  11.775 -0.0959 -0.0218 -0.3167
17430W        W33504   4.455   4.173   1.428  0.0265 -0.0699 -0.0676
17431W        W33505  15.533  12.092   6.283 -0.0785 -0.1999 -0.0806
17432W        W33506   3.874  11.183  16.458  0.0381 -0.0581  0.0823
17433W        W33507  10.855  12.533  16.816 -0.1947  0.0614  0.0472
17434W        W33508   4.025  11.172  11.783 -0.0726 -0.0679 -0.2258
17435W        W33509   5.711  16.642   4.060  0.0921 -0.0587  0.4708
17436W        W33510   9.318   5.381   2.560 -0.0599  0.1598  0.2358
17437W        W33511  14.796   6.471  10.958  0.0783 -0.0526 -0.0854
17438W        W33512   8.945   2.073   1.868 -0.0118  0.0828  0.0362
17439W        W33513  10.827  13.736   0.901 -0.2792 -0.0859 -0.0471
17440W        W33514  14.020  16.493   2.947  0.2853 -0.2141 -0.3470
17441W        W33515  10.986   7.034  13.592  0.0680  0.2119 -0.1409
17442W        W33516   1.912  13.548   5.138  0.1987 -0.0616  0.1317
17443W        W33517  13.577   7.194   3.209 -0.1884 -0.1101 -0.0081
17444W        W33518  10.983   3.605  14.474 -0.0092 -0.2139  0.0596
17445W        W33519  16.948   3.323  12.893 -0.3448 -0.1966  0.2577
17446W        W33520  12.833   2.741  14.315  0.0757  0.1071  0.2526
17447W        W33521  17.478  11.028   1.012  0.1929  0.1102 -0.0275
17448W        W33522   7.089  13.913   6.167 -0.2473  0.1593  0.2149
17449W        W33523  12.110  16.718   4.836 -0.2410  0.2370  0.1050
17450W        W33524   8.242  15.430   5.049  0.1296 -0.0062  0.0584
17451W        W33525  15.647   6.675  12.328 -0.0679  0.2019 -0.0236
17452W        W33526   2.377  11.965   2.641 -0.1152  0.3000  0.0054
17453W        W33527   7.645   5.202  16.206 -0.1783 -0.4983 -0.0652
17454W        W33528   0.793   8.303  16.286  0.0663 -0.0368 -0.3371
17455W        W33529  12.367   9.135   5.698 -0.1496  0.0596  0.0652
17456W        W33530  14.343   1.151   1.009  0.0562  0.0104  0.0080
17457W        W33531   1.641   0.565  11.178  0.1298 -0.0952 -0.1059
17458W        W33532  10.422  12.091   2.651 -0.1326 -0.0053 -0.0575
17459W        W33533   4.387  10.836   0.673 -0.0492  0.1468  0.0463
17460W        W33534   7.041   0.835   1.439  0.1132 -0.1301  0.3445
17461W        W33535  10.832   6.140   5.967 -0.2108  0.2551  0.2323
17462W        W33536  10.888   9.515   1.241  0.1752 -0.2325 -0.1780
17463W        W33537   6.056   9.289   0.420 -0.1781 -0.0116 -0.1791
17464W        W33538  14.656   3.548   1.643 -0.0810 -0.0920 -0.1002
17465W        W33539  15.599   3.079   4.336  0.1348  0.0468  0.0359
17466W        W33540   9.667   3.278   0.055 -0.0473  0.0352 -0.0259
17467W        W33541  16.263  17.675  12.989 -0.2365  0.3244 -0.2343
17468W        W33542  14.108   2.022   0.243 -0.0001  0.4593 -0.4453
17469W        W33543   7.392   6.178   1.075  0.0845 -0.2920  0.0793
17470W        W33544  10.369  16.220  14.800  0.2609  0.0029  0.2425
17471W        W33545   4.715   1.229   1.616  0.0940 -0.0585 -0.0674
17472W        W33546  15.570   9.745   5.973  0.1928 -0.2671  0.3235
17473W        W33547   9.930  12.974   2.519 -0.1746  0.1647  0.0130
17474W        W33548  12.893   0.965  14.795 -0.0067  0.3517  0.1550
17475W        W33549   8.665   5.223  11.786  0.0065 -0.2384  0.1486
17476W        W33550  12.749  16.447  15.437  0.1191  0.0050  0.0574
17477W        W33551  16.836   0.980  13.042  0.2393 -0.3438  0.2161
17478W        W33552  10.452   2.258  12.145  0.0473 -0.0335  0.1003
17479W        W33553   7.438  13.294  13.208 -0.0536  0.1904  0.2897
17480W        W33554   2.729   7.520  13.301  0.3380  0.0777  0.1547
17481W        W33555  16.770  12.566   4.963 -0.0654  0.0189 -0.1101
17482W        W33556  15.715   5.287  13.248  0.0943  0.0109 -0.1137
17483W        W33557   6.644   0.431  11.389  0.0843 -0.0206 -0.0277
17484W        W33558   5.981   7.602   1.074  0.0034 -0.0873 -0.0006
17485W        W33559  12.690   3.748  16.632  0.0439  0.4486  0.0184
17486W        W33560   3.923   5.033   0.546  0.1648 -0.1951  0.3476
17487W        W33561   2.799  15.201  14.860  0.1217  0.3048  0.0616
17488W        W33562  16.310   4.972  15.955  0.3573  0.1911  0.2412
17489W        W33563   0.063   4.909   3.266  0.0238 -0.0232  0.1016
17490W        W33564  13.015   4.107  14.283  0.3302  0.1641  0.1623
17491W        W33565   9.403   6.451  11.967  0.1151  0.1262 -0.0891
17492W        W33566   4.149  15.352  16.637 -0.1763  0.0270  0.3011
17493W        W33567  12.374   0.876  15.013  0.1848 -0.1482  0.0692
17494W        W33568   4.589  17.031  13.606  0.1103 -0.1158  0.1974
17495W        W33569   5.315   0.252   5.583  0.1821  0.2524 -0.1458
17496W        W33570  16.634   4.508  13.669  0.0669 -0.0893  0.1360
17497W        W33571  15.620  12.170   3.131  0.1693  0.2463  0.0084
17498W        W33572   9.623  13.177   5.776  0.1199  0.1934  0.2241
17499W        W33573  11.850   0.502  17.094 -0.2160 -0.0997 -0.0683
17500W        W33574   8.988   8.192   1.604 -0.1288 -0.0597  0.0736
17501W        W33575   6.286   7.898  16.275  0.0226 -0.1012  0.2510
17502W        W33576   1.996  15.946   5.486  0.2681 -0.2940  0.0920
17503W        W33577  13.056   6.705   5.781 -0.1582 -0.1047 -0.0198
17504W        W33578  12.789   4.619   4.086  0.4204 -0.0710 -0.1164
17505W        W33579  17.122   8.117  14.881 -0.2016  0.1999 -0.2613
17506W        W33580   0.687   1.421  15.387 -0.1837  0.1219 -0.0890
17507W        W33581   2.238   5.397   1.413  0.2376 -0.0424 -0.3492
17508W        W33582  14.805   3.565  14.797 -0.1638 -0.0235 -0.3153
17509W        W33583   5.181  16.559   1.714  0.0674  0.0419  0.1619
17510W        W33584  12.414  11.199   0.187 -0.3280  0.0455  0.1296
17511W        W33585  13.148  15.526  15.116 -0.2235  0.0379 -0.0656
17512W        W33586  15.157  13.998   2.001  0.1886  0.0781  0.0801
17513W        W33587  17.150  10.622   2.382  0.1454  0.0950  0.3492
17514W        W33588   0.385  17.061   3.654  0.1916  0.1387  0.0542
17515W        W33589   5.610   1.418   0.800 -0.1365 -0.5918  0.2000
17516W        W33590  11.770   8.554   2.919 -0.2082 -0.1403  0.2779
17517W        W33591  12.037  13.288   1.866 -0.1372 -0.2627 -0.2191
17518W        W33592   6.248   7.549   3.394  0.0057  0.5081  0.2436
17519W        W33593   9.967  14.218  13.151  0.0650  0.2702 -0.4455
17520W        W33594  15.676   1.604   2.868  0.0369 -0.1545  0.0297
17521W        W33595   6.503  10.050   4.772  0.0437  0.0781 -0.0705
17522W        W33596  11.432  17.052   1.043  0.2682 -0.0322  0.0924
17523W        W33597   8.693  12.789   3.196 -0.0385  0.1293  0.1136
17524W        W33598  15.921   2.581   1.804  0.1075  0.4382  0.3355
17525W        W33599   4.584  10.424  14.317  0.1002  0.1172  0.1443
17526W        W33600   7.018   6.509  13.589 -0.1795 -0.1156  0.1765
17527W        W33601  13.919   9.383   4.360  0.2636  0.0439 -0.1348
17528W        W33602   7.138  15.607  12.387 -0.0701  0.0787  0.0926
17529W        W33603   8.126   2.154  13.855  0.1644  0.0468 -0.0930
17530W        W33604  10.441   4.014  16.185  0.2540 -0.5276  0.0233
17531W        W33605  13.025   1.747  15.398 -0.1871 -0.2499  0.0606
17532W        W33606  15.349   8.239   0.347 -0.0049  0.2058 -0.0682
17533W        W33607   3.283  10.463  16.956 -0.1899 -0.1649  0.1374
17534W        W33608   0.153   8.805   5.029  0.1075  0.0360  0.3045
17535W        W33609  16.258  10.327   2.731  0.0744  0.1766 -0.0782
17536W        W33610  10.252   1.386  12.679 -0.0382  0.3689  0.0680
17537W        W33611   6.200  10.934   4.178 -0.3792 -0.1254  0.0051
17538W        W33612  15.663  16.847  15.026  0.4412 -0.1942  0.1216
17539W        W33613  17.702   7.348   3.214 -0.2954  0.1722  0.2505
17540W        W33614   0.484   1.015  15.743 -0.1780 -0.0895 -0.2863
17541W        W33615  12.788   6.562  17.089 -0.1066  0.2172 -0.2615
17542W        W33616   0.203   6.632  11.678 -0.1627  0.2373 -0.0082
17543W        W33617  12.171   9.503  14.053 -0.1264  0.1855 -0.2995
17544W        W33618   6.941   8.692  12.538 -0.1802 -0.0766 -0.3029
17545W        W33619   7.115   5.189  11.921 -0.1757 -0.0921  0.0510
17546W        W33620  15.496   6.537   2.652  0.1212 -0.0059  0.1880
17547W        W33621   7.221   7.618  16.724 -0.1220  0.0433 -0.2206
17548W        W33622  12.603  17.646   3.068 -0.3522 -0.2561  0.3263
17549W        W33623   9.929  10.733  12.148 -0.2660 -0.0036  0.0618
17550W        W33624   4.392  10.565   1.279  0.0465  0.1313  0.3475
17551W        W33625   7.042   0.014  16.241  0.1263  0.2408  0.2235
17552W        W33626  14.880  10.616   3.427  0.0077 -0.1719 -0.2274
17553W        W33627  15.750   3.331   3.853 -0.0137 -0.1515 -0.2629
17554W        W33628   8.884   2.148   5.524 -0.0395 -0.5058  0.1302
17555W        W33629   3.867   9.882  15.957  0.1920  0.0345  0.0516
17556W        W33630  11.977  15.880  13.973  0.0096  0.1274 -0.2467
17557W        W33631  13.299   5.717   3.468 -0.3462 -0.3243  0.3508
17558W        W33632  15.258   0.991  12.234 -0.0068 -0.1996  0.0168
17559W        W33633  17.362  14.061  12.321 -0.0103 -0.1059 -0.2029
17560W        W33634  13.553  15.052   3.225  0.2347  0.1661  0.2433
17561W        W33635   8.689   7.050   0.013  0.1731  0.0853  0.0821
17562W        W33636  13.897  17.041  15.090  0.0301 -0.0278 -0.0043
17563W        W33637  10.473   5.703   1.823  0.0028 -0.1544  0.2629
17564W        W33638  14.604   5.913   1.965  0.0065  0.0917 -0.0790
17565W        W33639   7.189   3.779   3.951  0.0139 -0.0863  0.0835
17566W        W33640  14.134  15.923  17.100  0.1868 -0.0889  0.2441
17567W        W33641   9.949  11.485  14.285 -0.0705 -0.2574  0.0026
17568W        W33642   9.771  15.308  12.370  0.1184 -0.1913  0.0820
17569W        W33643   5.813   5.357   0.220 -0.0891  0.0431  0.3350
17570W        W33644  13.315   6.675  14.913  0.1840  0.1163  0.1520
17571W        W33645  14.932   8.352  15.423 -0.0714  0.2043 -0.0257
17572W        W33646  15.596  15.770  14.140  0.0564 -0.0112 -0.2138
17573W        W33647   8.467  14.652  16.064  0.3698 -0.2132  0.0082
17574W        W33648  10.636  14.019  15.399 -0.2537  0.0244  0.1499
17575W        W33649   1.997  13.635   6.306  0.1696 -0.4998 -0.0279
17576W        W33650   1.332  12.844   5.391 -0.2399 -0.0622 -0.1626
17577W        W33651   9.945   4.599   3.414 -0.0781 -0.2370 -0.1329
17578W        W33652  15.772   7.010   4.370  0.0614  0.0790 -0.0085
17579W        W33653  10.889  14.172  16.351 -0.4557  0.2548  0.0420
17580W        W33654   0.116  11.971  11.828  0.0309  0.2542  0.0684
17581W        W33655   7.021  13.720   5.639  0.0314  0.4152  0.2111
17582W        W33656   0.281  13.169  16.438  0.4995 -0.2458  0.2567
17583W        W33657   3.652  12.099   2.129 -0.2094  0.2253  0.0281
17584W        W33658   1.845   5.027   5.263 -0.1055 -0.1255  0.3625
17585W        W33659   6.300   7.643  12.313  0.1684  0.0115  0.1865
17586W        W33660  10.138   7.542   1.451 -0.2052 -0.0229 -0.0619
17587W        W33661  12.805   2.731   2.987  0.0687 -0.3041 -0.1304
17588W        W33662   5.924   5.969  13.867 -0.2930 -0.0616  0.2696
17589W        W33663  16.395  16.667  11.483  0.2138  0.0353  0.1716
17590W        W33664  13.742  16.595   3.960 -0.0035 -0.0857 -0.1117
17591W        W33665   3.910   7.850  12.159 -0.0224  0.0299  0.0851
17592W        W33666   7.827   4.288  11.998 -0.0288  0.2823 -0.0089
17593W        W33667   4.173   8.190   5.058  0.1813  0.1676 -0.0938
17594W        W33668   3.021   1.526   6.520  0.0564  0.2868 -0.0146
17595W        W33669   4.455   3.549   3.316 -0.2568 -0.2505  0.1747
17596W        W33670  13.939  13.561   1.457 -0.0797 -0.1652 -0.3329
17597W        W33671  11.606   9.365   0.667  0.0914 -0.1690 -0.0828
17598W        W33672   0.412   2.720  14.102  0.1659  0.4370  0.1987
17599W        W33673   4.087   7.042   4.760  0.0354 -0.4634 -0.3117
17600W        W33674  13.822   7.835  12.651 -0.0160  0.0555 -0.2065
17601W        W33675  13.758   0.422  11.854  0.0567  0.0746 -0.0926
17602W        W33676  12.323  14.587   1.377  0.2740 -0.2012 -0.0055
17603W        W33677   9.547   1.154   0.653  0.1216  0.1369  0.0478
17604W        W33678   8.647   2.628  12.762  0.2320  0.0138  0.2464
17605W        W33679  14.871   6.884   2.949  0.1081  0.4517 -0.0471
17606W        W33680   2.551  10.322   1.757 -0.1220  0.0581  0.0808
17607W        W33681   9.180   9.167   6.144 -0.2049  0.0222 -0.0340
17608W        W33682  11.811  10.557   0.142  0.1501 -0.1952  0.0541
17609W        W33683  13.598  17.027   1.823  0.2447  0.4015 -0.0467
17610W        W33684  13.736   7.520   5.683 -0.0096  0.1699 -0.1542
17611W        W33685  11.500   3.286  17.082  0.1393  0.2996 -0.1193
17612W        W33686  16.622   1.087  13.981 -0.2578  0.0152 -0.1177
17613W        W33687   1.648  11.341   4.535 -0.0154 -0.1790 -0.1447
17614W        W33688  16.223   3.023   3.673 -0.3488  0.1549  0.0720
17615W        W33689   0.744   9.395   1.348  0.3851  0.1607  0.1773
17616W        W33690   3.196   8.813  16.708  0.0996 -0.1185 -0.0523
17617W        W33691   3.344  16.338  14.118 -0.2743 -0.0404 -0.1419
17618W        W33692   4.524   4.720  11.799 -0.2251 -0.1493 -0.3574
17619W        W33693  11.363  17.274  15.102  0.0875  0.0649  0.0584
17620W        W33694   0.065  12.060   0.168  0.2490  0.0615  0.0906
17621W        W33695   6.804   9.597   0.198  0.1052  0.1567  0.0789
17622W        W33696   5.679  13.454   4.793 -0.0109  0.0893 -0.1709
17623W        W33697  15.311   1.657  16.257 -0.0062 -0.1884 -0.0242
17624W        W33698  12.543  17.130  11.949 -0.2217 -0.1993 -0.2181
17625W        W33699  14.593  14.826  13.964  0.0633  0.0836  0.0095
17626W        W33700   3.299   3.703  13.100  0.1979 -0.2123 -0.0804
17627W        W33701   2.374   1.048   5.560 -0.1022  0.0993 -0.0814
17628W        W33702   7.185  11.488   1.576 -0.0472  0.0790 -0.2036
17629W        W33703  12.248  16.486  16.961 -0.3087  0.0313 -0.0420
17630W        W33704   8.446   6.327  11.648 -0.0366  0.1121  0.2758
17631W        W33705   4.360  17.409   1.663  0.2896  0.1301 -0.1113
17632W        W33706  10.791   1.909  16.434  0.1833 -0.3650  0.3273
17633W        W33707  15.866   1.303   1.086 -0.3309 -0.0094 -0.3691
17634W        W33708  12.234  16.053   3.942 -0.2405 -0.1272 -0.0660
17635W        W33709  10.180   2.691  13.350 -0.3110 -0.2757  0.1213
17636W        W33710   7.896  13.820  12.621 -0.1222  0.1042 -0.1017
17637W        W33711   9.727   7.262  16.559  0.0569  0.1760 -0.1471
17638W        W33712  15.606   4.710   2.728 -0.1680 -0.1255 -0.0384
17639W        W33713  14.340  13.802   3.788 -0.2631 -0.2042  0.0639
17640W        W33714   2.753   7.567  13.878 -0.0281 -0.1928 -0.2888
17641W        W33715   4.979  11.977   2.064 -0.5940 -0.0086  0.1100
17642W        W33716   4.807   2.590   3.039  0.3136 -0.5775  0.1457
17643W        W33717  12.276  14.714   2.014  0.2120 -0.0865  0.1125
17644W        W33718   4.355   9.516  15.271  0.0855  0.0747  0.2188
17645W        W33719  13.205   1.505  16.051 -0.1483  0.2770  0.0813
17646W        W33720  16.719   4.178   0.548 -0.1410  0.0923 -0.1091
17647W        W33721   3.739   3.381   5.038 -0.1677  0.2556  0.0074
17648W        W33722  17.566   3.120   5.605 -0.1536 -0.1554 -0.2293
17649W        W33723   0.037  17.195   1.301 -0.0741 -0.3566 -0.1298
17650W        W33724  13.069  12.508  13.305  0.0621  0.1978  0.0794
17651W        W33725   4.683   2.639  14.506 -0.2388 -0.1252 -0.2078
17652W        W33726  17.655   7.801  12.234 -0.2755  0.0061  0.1198
17653W        W33727   2.460   5.334   2.652 -0.4512 -0.0167 -0.3676
17654W        W33728  14.835  11.105   3.403 -0.0984  0.0307 -0.1260
17655W        W33729  13.528  17.371  15.075  0.2066 -0.0695 -0.0431
17656W        W33730   3.007  15.466  13.306  0.2079  0.1159 -0.0158
17657W        W33731   3.130   4.152   3.688 -0.2172 -0.3421 -0.1610
17658W        W33732   3.540   7.339   2.344 -0.0505 -0.0867 -0.0170
17659W        W33733   5.721   9.470  16.312  0.3765 -0.0681  0.2599
17660W        W33734  17.198  11.754   6.441 -0.2881  0.2150 -0.1399
17661W        W33735   5.671  12.220   5.235  0.1305 -0.2088  0.1231
17662W        W33736   6.071   3.598  14.786  0.2700 -0.2844  0.1697
17663W        W33737  17.644   5.770  15.735 -0.2822  0.1744  0.1288
17664W        W33738   4.584  15.493   4.442  0.2410  0.2594  0.0428
17665W        W33739   3.664   0.060   2.233 -0.0231  0.1562  0.0052
17666W        W33740  16.137   3.044  12.141 -0.0856 -0.2637 -0.0401
17667W        W33741   0.062  12.571  14.511  0.1069  0.1020  0.1729
17668W        W33742   2.347   1.710  11.991  0.0790  0.0214  0.0177
17669W        W33743   7.358  17.531   1.046  0.3317  0.3418  0.4638
17670W        W33744   2.814  14.076   4.073 -0.1464 -0.0378  0.3661
17671W        W33745  15.749   6.671  15.488  0.2370 -0.0809 -0.1025
17672W        W33746  16.751  16.429  14.080 -0.3430  0.0257 -0.2833
17673W        W33747   7.701   4.851   1.460 -0.0243 -0.1130 -0.4053
17674W        W33748   4.067   6.308  12.155 -0.1449 -0.0507 -0.1772
17675W        W33749   9.373   6.576  13.223 -0.0936  0.3083  0.2565
17676W        W33750  10.071  13.704   1.909 -0.2421  0.1468  0.1442
17677W        W33751  16.534   7.316  12.117  0.1633 -0.0549 -0.2020
17678W        W33752   5.964  13.351  15.192 -0.0936 -0.2544 -0.1266
17679W        W33753   0.311   0.178   0.411  0.0268  0.1927  0.3173
17680W        W33754  15.043   0.235   5.982 -0.0631 -0.1698  0.0586
17681W        W33755   7.658   2.971   3.329 -0.0051 -0.1086 -0.1226
17682W        W33756   7.991   9.532  14.006  0.1023 -0.1527  0.1068
17683W        W33757   0.042   0.585   4.589  0.1493 -0.0272 -0.0239
17684W        W33758   7.863  11.991  16.217  0.1138 -0.1462 -0.0699
17685W        W33759  11.281  15.800   3.361  0.2848 -0.0007  0.0827
17686W        W33760   8.281   2.247  15.341 -0.2645  0.0895 -0.1612
17687W        W33761  14.596   8.007  15.272  0.0314 -0.0504 -0.2165
17688W        W33762   9.558   7.328  13.547 -0.2888 -0.1263 -0.2145
17689W        W33763  10.339  11.420   1.433  0.1852 -0.0186  0.1718
17690W        W33764   3.577   5.755   5.162 -0.0846 -0.0192  0.0422
17691W        W33765   0.589   9.461   3.831  0.3671  0.0870 -0.0091
17692W        W33766   9.936   9.409   1.649  0.2930  0.1445 -0.3100
17693W        W33767  14.560  11.709   4.826 -0.1086  0.0515 -0.1838
17694W        W33768  11.346   8.810  12.888 -0.1904  0.1246 -0.1945
17695W        W33769  14.544   4.259   6.311  0.0577  0.0837 -0.1324
17696W        W33770   4.629  14.030   1.155  0.0955  0.0179 -0.1017
17697W        W33771  15.488  13.217   0.993 -0.3582 -0.2949  0.1539
17698W        W33772  16.705  11.249  16.663  0.0805 -0.0397  0.4188
17699W        W33773  15.114  13.240   4.156 -0.0007 -0.3164 -0.0434
17700W        W33774   0.909   1.120  14.762  0.4097  0.1637  0.1748
17701W        W33775   0.943   1.159  14.167 -0.6245 -0.1420 -0.2212
17702W        W33776   4.960  16.739  13.462 -0.0992 -0.0005  0.0430
17703W        W33777  11.466   9.302  13.772 -0.1295  0.1343  0.1131
17704W        W33778   3.854   5.677  17.073  0.1001 -0.1790  0.2459
17705W        W33779   4.924   3.991   1.696 -0.2115  0.0379 -0.0348
17706W        W33780   2.372   4.786  13.778 -0.0908  0.3407  0.0109
17707W        W33781   4.044  12.921  13.974 -0.0866 -0.1646  0.1736
17708W        W33782  14.871  12.674   1.903  0.0199 -0.1146  0.1306
17709W        W33783   2.825  12.143   5.555 -0.1741 -0.1153 -0.0819
17710W        W33784   1.784  10.623   0.999  0.0855 -0.0427  0.1407
17711W        W33785   5.808  12.022  16.233 -0.1724 -0.1527  0.1002
17712W        W33786   1.454  10.984   4.928  0.0300 -0.4869  0.1974
17713W        W33787   5.351   6.466   5.577  0.0597 -0.2991  0.0121
17714W        W33788   7.816  10.501  14.597  0.0162 -0.0634  0.1226
17715W        W33789   8.444  14.668  13.672  0.0140 -0.1133  0.1927
17716W        W33790  10.178   7.358   6.153 -0.3885  0.3683  0.0680
17717W        W33791  11.964   5.622  13.968  0.0773 -0.1647 -0.0991
17718W        W33792   9.894  14.112   3.397 -0.0799 -0.1221 -0.2434
17719W        W33793   5.482   9.990  11.828 -0.0293 -0.0678  0.0847
17720W        W33794   3.760  12.220  15.732 -0.0832 -0.0647  0.2070
17721W        W33795   4.466  13.666  12.005  0.2360  0.1395 -0.1613
17722W        W33796  12.276  10.079   3.915  0.1379  0.1896  0.3722
17723W        W33797  10.905  12.987  17.019 -0.2506 -0.1282 -0.1694
17724W        W33798  16.789  16.247   0.334  0.1231  0.1884 -0.0931
17725W        W33799  12.138  14.805  11.781 -0.0734 -0.2597  0.0314
17726W        W33800  12.513   4.266   2.998  0.2741 -0.0837  0.3433
17727W        W33801   3.139   6.333   5.587  0.0195  0.2001  0.0073
17728W        W33802  14.948   7.003   6.029 -0.1312 -0.2859 -0.1213
17729W        W33803  13.459   7.816  14.755  0.2910  0.1123 -0.1659
17730W        W33804  11.241  12.466   3.105 -0.1777  0.2185  0.1075
17731W        W33805  10.882   4.879  13.159 -0.0456  0.2486 -0.2607
17732W        W33806   2.604  14.002  16.804  0.0285  0.1312  0.0965
17733W        W33807   0.031  16.811   5.615  0.1394  0.0582 -0.2793
17734W        W33808   6.243  10.214  16.292 -0.4074 -0.0920 -0.1521
17735W        W33809   8.038   8.388  11.857  0.0085 -0.4985 -0.2240
17736W        W33810   1.447   3.264   1.511 -0.1374 -0.4111 -0.0468
17737W        W33811   3.014   3.069   4.559  0.1702 -0.2218 -0.4012
17738W        W33812  17.257   4.982   1.980 -0.1322 -0.1026  0.1301
17739W        W33813  14.638   7.547  11.622 -0.1081 -0.4202  0.2234
17740W        W33814   5.934   1.921  12.760 -0.1840 -0.0165  0.2307
17741W        W33815  12.843  10.876   5.986  0.1831 -0.2366  0.0498
17742W        W33816   3.514  12.810  11.830  0.2782  0.2341 -0.0548
17743W        W33817  16.877   4.922  16.370 -0.0806  0.1267 -0.1720
17744W        W33818  16.262   9.856   1.316 -0.3193  0.2249  0.0630
17745W        W33819   1.738  10.097   1.433  0.3293  0.0415 -0.0355
17746W        W33820  13.338  17.672  16.778 -0.2180  0.0801  0.3246
17747W        W33821  10.103   9.962  12.210  0.2421 -0.1257 -0.1815
17748W        W33822  10.130  10.846  15.466  0.0830  0.2547 -0.0462
17749W        W33823   1.458  17.163   1.782 -0.0606  0.1381 -0.0292
17750W        W33824  12.233  15.192  15.501  0.1510  0.0897 -0.1832
17751W        W33825  15.981  16.482   5.450 -0.2098  0.0019  0.0759
17752W        W33826   8.831   0.674  13.429 -0.1220  0.1525  0.0132
17753W        W33827   8.536  13.524  12.581 -0.1237 -0.0251 -0.0820
17754W        W33828   1.751   3.547  14.155 -0.0201 -0.1292  0.0614
17755W        W33829   5.745   2.253  14.425  0.0069 -0.0399  0.1529
17756W        W33830  10.201   2.441  11.711  0.1847 -0.3568 -0.0936
17757W        W33831   0.679   0.779   5.011 -0.1656 -0.0580 -0.1930
17758W        W33832   6.557   2.051   0.819  0.1733  0.1438 -0.0481
17759W        W33833  17.301  15.601  14.648  0.2421 -0.2602  0.1129
17760W        W33834  10.889  14.285   3.944  0.0656 -0.1255 -0.0323
17761W        W33835   2.294  10.325  14.940 -0.1554  0.1153  0.0929
17762W        W33836  16.397   2.560  15.013  0.4339  0.1414 -0.1770
17763W        W33837   1.560   2.141   1.193  0.0477 -0.4332  0.2789
17764W        W33838  15.129   8.752   1.336 -0.0257 -0.1343  0.0340
17765W        W33839  16.960   5.327   4.903 -0.0749 -0.0462  0.0688
17766W        W33840   0.915   1.321   2.481  0.1024 -0.0545 -0.1632
17767W        W33841   6.539  14.461   1.830  0.0236  0.3333 -0.0229
17768W        W33842  14.353  17.503  12.926 -0.0095  0.1290  0.0279
17769W        W33843  13.511   5.573  17.015 -0.0877 -0.0484  0.1321
17770W        W33844   8.143  14.332   0.390  0.0931 -0.0387  0.4593
17771W        W33845   8.519   9.791  14.784 -0.1466  0.3299  0.1275
17772W        W33846  11.827  11.579  14.512 -0.0616 -0.0127 -0.0370
17773W        W33847   1.507  13.605   3.881  0.2156 -0.1295  0.0863
17774W        W33848  16.122  16.560  15.242 -0.2036 -0.2914 -0.3133
17775W        W33849  16.900   3.127   1.592 -0.0037 -0.2795 -0.0376
17776W        W33850  11.468   4.028   6.255  0.3937 -0.3039 -0.2617
17777W        W33851  16.752   5.865  11.549 -0.0596 -0.1847  0.4805
17778W        W33852  10.226   3.057   2.574  0.1625 -0.2160 -0.1964
17779W        W33853   3.287  16.762   2.228  0.0779 -0.0545  0.2774
17780W        W33854   4.626  12.831  14.176 -0.1005 -0.0851  0.0403
17781W        W33855  12.546  12.657   3.628  0.1792 -0.0985 -0.0144
17782W        W33856   8.167   2.747  12.577 -0.1508  0.0651  0.0657
17783W        W33857  13.438  15.364  16.429  0.4204 -0.0517  0.3819
17784W        W33858   8.599   6.573   1.961  0.0938  0.2801  0.1032
17785W        W33859   3.345   3.104   3.618 -0.0585  0.1674 -0.0037
17786W        W33860   5.792   0.369   1.868 -0.1122  0.2287  0.1374
17787W        W33861   7.092  11.741  13.950  0.0465  0.1246 -0.0521
17788W        W33862  10.133  12.609  13.591 -0.2345 -0.0487  0.1793
17789W        W33863   7.155   5.321  16.063 -0.1882 -0.1479 -0.4072
17790W        W33864  10.841  12.818   2.911 -0.4453  0.1127 -0.3994
17791W        W33865  14.011   4.030  14.249  0.1579  0.0881  0.3682
17792W        W33866  14.127  12.389   4.299 -0.0205  0.0856  0.1171
17793W        W33867  16.924   6.990  14.857 -0.0615  0.1113 -0.1130
17794W        W33868   3.656   2.768   5.761  0.0935 -0.0147 -0.0527
17795W        W33869   7.305  10.559  12.053 -0.0155  0.0227 -0.2644
17796W        W33870   6.367   3.270  14.989 -0.0959 -0.1475 -0.5213
17797W        W33871  13.650   5.189  13.364  0.2432 -0.0555  0.1357
17798W        W33872   7.961  16.305   2.678 -0.0159 -0.2043 -0.1634
17799W        W33873   8.206  16.655  14.423 -0.0819 -0.0324 -0.1061
17800W        W33874  14.396   1.577   0.188 -0.1228 -0.0972 -0.0548
17801W        W33875  10.004   6.615   3.721 -0.0900 -0.2083  0.0142
17802W        W33876   8.356   7.880  14.543  0.0425  0.0554 -0.1533
17803W        W33877   0.093  12.916  14.114 -0.0138 -0.0351  0.0913
17804W        W33878  10.945  16.143  16.039 -0.0720 -0.1652  0.1767
17805W        W33879  15.969  11.148   1.480  0.0329  0.1211 -0.0624
17806W        W33880  13.939   5.914  13.858  0.1794  0.1055  0.1216
17807W        W33881   1.995   9.231  16.474 -0.3520  0.2019 -0.0158
17808W        W33882   7.647   8.426  11.446 -0.1302 -0.0227  0.0913
17809W        W33883  13.555   3.738   3.705 -0.2416  0.1989  0.1862
17810W        W33884   9.478   3.179   3.479  0.2005  0.2687 -0.0278
17811W        W33885   1.814  12.794   4.860  0.1405 -0.3443  0.0198
17812W        W33886   3.025  13.018   3.925 -0.1075 -0.0277  0.0996
17813W        W33887   6.327   1.306  12.260  0.1397  0.0059  0.0332
17814W        W33888   6.445   3.501   2.003 -0.0566 -0.1083 -0.1473
17815W        W33889   0.864   0.276   5.767 -0.1222 -0.0571  0.1953
17816W        W33890  17.049   4.745  13.411  0.1444 -0.0052  0.0561
17817W        W33891   8.892   4.033   4.422  0.0728  0.1119  0.0471
17818W        W33892   2.334   9.268  15.254 -0.0471 -0.0010  0.1993
17819W        W33893   5.091  12.426  12.369  0.2719  0.1796  0.2690
17820W        W33894  17.557  16.944   3.619  0.0128  0.0411  0.2641
17821W        W33895   5.738   1.662  16.432 -0.2135 -0.0556  0.2701
17822W        W33896   5.372   3.015   5.649 -0.0625 -0.2441  0.1907
17823W        W33897   4.779   6.584   1.608  0.2786  0.0437  0.4434
17824W        W33898  14.701  16.732   4.001 -0.1173 -0.1316 -0.1396
17825W        W33899  16.057   2.418   5.917 -0.0866  0.1984  0.0144
17826W        W33900  13.638   0.720  15.941  0.5622 -0.0005  0.1318
17827W        W33901  10.397  14.832   6.190 -0.0120  0.2977  0.1820
17828W        W33902   0.292  10.122  11.934  0.1615 -0.0571 -0.1905
17829W        W33903   5.872  15.249   1.426  0.0001  0.3994  0.2049
17830W        W33904   1.419   8.937  15.348  0.0552  0.0168  0.0495
17831W        W33905  10.864   3.822  16.866 -0.1043  0.3612 -0.2799
17832W        W33906  15.177   3.156  12.425  0.2687 -0.2417 -0.1397
17833W        W33907   2.595   4.665   4.156 -0.0263  0.1578 -0.2370
17834W        W33908   4.253   2.955   1.591  0.1093 -0.0036  0.0420
17835W        W33909  12.707   5.025  16.457 -0.0437  0.2573 -0.0263
17836W        W33910   3.032   9.583  14.613  0.0060 -0.2858  0.0441
17837W        W33911  10.360  10.262   1.946  0.3031 -0.0545 -0.0492
17838W        W33912  10.510   0.436   2.424 -0.2421 -0.0471 -0.4569
17839W        W33913   7.221  16.674   5.158 -0.1371  0.1662  0.1542
17840W        W33914   1.660   5.271   5.646 -0.2469  0.0747  0.0560
17841W        W33915   8.984   1.859   2.295 -0.0558  0.1230 -0.2333
17842W        W33916  10.046  14.970  12.488 -0.1251 -0.0022 -0.2049
17843W        W33917   3.126   8.494   5.109 -0.0693 -0.0750 -0.1675
17844W        W33918   7.839   4.481   2.193 -0.1454 -0.2470  0.0851
17845W        W33919  16.640   5.352   5.916  0.2362  0.0068  0.2637
17846W        W33920   9.048  11.835   4.708  0.3077 -0.0163  0.1594
17847W        W33921  13.417   2.821  15.812  0.1204 -0.0993  0.3844
17848W        W33922  15.096   0.200   2.790  0.0609 -0.3213 -0.1440
17849W        W33923  14.956  16.932  15.969  0.2158  0.0372  0.1666
17850W        W33924   9.947  11.840   5.720 -0.1091 -0.1073  0.2350
17851W        W33925   1.361   7.587   4.561 -0.3310  0.3107 -0.4441
17852W        W33926  16.294  16.974  13.356  0.1044  0.0169  0.0624
17853W        W33927  14.288   4.310  11.953 -0.0953  0.1128 -0.0029
17854W        W33928  12.213   2.404   2.025 -0.0719 -0.1000  0.0011
17855W        W33929   9.270   2.207  15.323  0.1337  0.2184 -0.0365
17856W        W33930  13.968  17.053   5.236  0.0539  0.0665 -0.1650
17857W        W33931  14.884  12.101   1.804  0.1577 -0.1431 -0.1883
17858W        W33932  15.690  10.317   4.051  0.0523  0.1177  0.0991
17859W        W33933   7.675   4.275   0.437 -0.2991  0.1354 -0.1404
17860W        W33934   9.177   4.777  14.653 -0.2340  0.0416  0.1197
17861W        W33935   5.838   1.255   4.919 -0.0063 -0.0643 -0.0257
17862W        W33936  16.479   0.208   2.110  0.3025 -0.2814  0.0518
17863W        W33937  13.032  17.262  11.756  0.3025 -0.1923 -0.2047
17864W        W33938  17.506  15.659   1.939 -0.0873  0.0259 -0.1379
17865W        W33939   2.628  15.316  12.345  0.2017 -0.0720 -0.0191
17866W        W33940   0.713   8.260  13.031  0.2927 -0.0531 -0.1409
17867W        W33941  10.373  16.001  16.084 -0.0660  0.0594  0.1793
17868W        W33942   5.680   4.853   0.606 -0.0157  0.1711  0.1180
17869W        W33943   0.527   9.461  14.866 -0.1817 -0.2609  0.2796
17870W        W33944  12.350   1.245  14.705 -0.5229  0.0156  0.2007
17871W        W33945  15.276   0.901   2.404 -0.0803 -0.0717 -0.0320
17872W        W33946   4.621   1.549   2.683 -0.0216 -0.2368 -0.2358
17873W        W33947   0.833   0.716   3.974  0.1047  0.0016  0.0093
17874W        W33948   1.431  10.591  15.116  0.0048 -0.2510 -0.0614
17875W        W33949   4.753   1.573  13.047 -0.0925  0.1509  0.0651
17876W        W33950   1.873   1.050   1.254 -0.4045 -0.0596 -0.0697
17877W        W33951  12.358  17.584   3.913 -0.0455 -0.0744 -0.1114
17878W        W33952  13.855  12.679   3.264  0.5091  0.2957  0.0949
17879W        W33953   0.282   2.931   1.995 -0.0237  0.0577 -0.0987
17880W        W33954   4.358  11.276  16.629  0.3004  0.0952 -0.3358
17881W        W33955  17.455   8.137   4.801  0.0668 -0.2466  0.0694
17882W        W33956   3.728  15.710   3.627 -0.1235  0.1420  0.3128
17883W        W33957  16.943  11.013   3.104 -0.0177  0.1326  0.1280
17884W        W33958  16.025  14.192   3.120 -0.2957 -0.0689  0.2492
17885W        W33959   7.160   4.741  13.244  0.0143 -0.0909 -0.1711
17886W        W33960  16.735  16.413  15.077  0.0469 -0.0659  0.0784
17887W        W33961   6.081  15.129   0.930  0.0779  0.0962 -0.0100
17888W        W33962  11.804  13.493  13.860  0.2309 -0.0716 -0.0225
17889W        W33963  11.498   8.064  15.123  0.0384  0.2615 -0.0035
17890W        W33964  11.674  14.668  12.661 -0.3436 -0.3572 -0.0739
17891W        W33965   7.205   5.274  14.599  0.0893 -0.2540  0.0396
17892W        W33966   3.048   8.982   2.868  0.0892  0.0106 -0.1200
17893W        W33967   1.594   4.723   1.884  0.0283 -0.3603 -0.1581
17894W        W33968   1.875  12.622   3.578 -0.1787  0.0821  0.0573
17895W        W33969   8.211  14.463   4.792 -0.3060 -0.0242  0.2135
17896W        W33970  12.520   0.860  13.595 -0.0213 -0.0056  0.1911
17897W        W33971   2.657   4.013  12.378 -0.1150  0.1183  0.0245
17898W        W33972  10.376  10.767   4.536 -0.1978  0.0465 -0.2769
17899W        W33973   2.965  11.559  12.865  0.2457 -0.1503 -0.0445
17900W        W33974  11.089   5.425   5.142  0.2854  0.1364 -0.0702
17901W        W33975  10.649  13.718  15.806 -0.0648  0.0475  0.0624
17902W        W33976  15.256   4.772  13.844 -0.0875 -0.3155 -0.0093
17903W        W33977   3.771   1.375   3.122  0.2293  0.0206  0.1200
17904W        W33978   6.782  13.932   0.578  0.2322 -0.0123 -0.0009
17905W        W33979   5.332   7.293  12.045  0.1595  0.2086  0.3024
17906W        W33980   0.737  13.616   2.101 -0.2291  0.0264 -0.1352
17907W        W33981   6.983  14.592   1.900  0.0190 -0.1080 -0.0873
17908W        W33982   6.567  10.062  15.593 -0.1116 -0.0071  0.1658
17909W        W33983  11.412   1.414  11.969  0.0434  0.1107 -0.0417
17910W        W33984   5.683   4.600   2.009 -0.2638  0.0618 -0.0938
17911W        W33985  12.390   6.762   5.966 -0.0381  0.0271 -0.0037
17912W        W33986   0.659   6.234  12.150 -0.0272  0.1409 -0.1047
17913W        W33987   9.632  16.709   3.144  0.1935  0.1493  0.1045
17914W        W33988   5.696   5.740   4.012  0.1261  0.5402 -0.0306
17915W        W33989  17.007   9.430  15.653  0.2276  0.0739 -0.2294
17916W        W33990  10.673  14.941  13.270 -0.2075  0.4083  0.1916
17917W        W33991  10.870  10.669  14.719 -0.2039  0.1855  0.0160
17918W        W33992   4.882   6.945  14.312 -0.1666 -0.2984 -0.1238
17919W        W33993  14.380   6.726  12.666 -0.2686 -0.3341 -0.1257
17920W        W33994  13.304   8.656  13.371  0.0798 -0.0646 -0.0316
17921W        W33995  14.137   9.295  16.361  0.0288 -0.0879  0.2557
17922W        W33996  15.413  15.350   1.449 -0.2069  0.3358  0.1561
17923W        W33997  16.098  13.341   4.775  0.0212 -0.1826  0.0718
17924W        W33998  15.104  15.269   0.294 -0.1028 -0.1076 -0.2267
17925W        W33999   5.920   3.086  14.683  0.5296  0.0742 -0.0065
17926W        W34000   8.096  15.023   1.234  0.0477  0.2157  0.0797
17927W        W34001   5.223   5.921   4.344 -0.0426 -0.1597 -0.0891
17928W        W34002  11.488  17.335  15.890 -0.2635  0.0465 -0.0575
17929W        W34003   6.300   5.607  16.090  0.2724  0.2455 -0.1092
17930W        W34004  17.243   7.637  12.401 -0.0582 -0.1950  0.1414
17931W        W34005   8.950   3.455  12.775  0.2311 -0.0405  0.1607
17932W        W34006   6.329   0.392  15.630  0.0859  0.3113 -0.2291
17933W        W34007  17.551   7.206  16.138  0.1530 -0.0095  0.2283
17934W        W34008  16.256  12.802   1.446 -0.1586  0.0826  0.1406
17935W        W34009   1.443   9.407  15.262 -0.0320 -0.0824  0.0672
17936W        W34010   4.405   2.556   4.824 -0.1171 -0.1785 -0.0531
17937W        W34011   9.782  16.372   4.058 -0.1936  0.0985  0.0530
17938W        W34012  10.269   4.921   3.212  0.5064  0.2912  0.0224
17939W        W34013   3.428  15.957  16.693 -0.1902  0.3195  0.0405
17940W        W34014   3.634  10.258   6.069  0.2057 -0.0114 -0.0972
17941W        W34015  17.094  10.760  13.545  0.0217 -0.0035  0.0989
17942W        W34016  15.328   6.938  15.433  0.0134  0.1688 -0.0323
17943W        W34017  10.511  12.646  15.047  0.2062  0.0665  0.3234
17944W        W34018  13.392  14.182  12.389  0.2537  0.1906  0.0771
17945W        W34019   9.565   0.521   4.233  0.2826  0.1886 -0.1999
17946W        W34020   8.431  13.337   1.952  0.1060 -0.0402  0.4357
17947W        W34021   4.710  12.456   1.400 -0.3159 -0.1770  0.0335
17948W        W34022   1.621  10.997  15.467  0.0088 -0.1809 -0.2173
17949W        W34023  16.641   7.385   0.224  0.0611  0.1902  0.0113
17950W        W34024   1.339  13.363   2.155  0.2226 -0.1386  0.0193
17951W        W34025  11.116  11.039   4.813  0.3059  0.1608 -0.1559
17952W        W34026   4.908   1.765  16.635 -0.1299  0.0651  0.0961
17953W        W34027   4.443   3.739   5.535 -0.1686  0.1640  0.2598
17954W        W34028   1.824   0.207   3.014  0.1682 -0.2716 -0.3031
17955W        W34029  13.930   1.154  12.455 -0.1615 -0.2207  0.0657
17956W        W34030   4.325  10.869   5.945 -0.1662  0.2198 -0.1055
17957W        W34031  10.820  14.513  12.463 -0.0398 -0.1006 -0.0000
17958W        W34032   9.809   1.424   5.710 -0.1908  0.2966  0.0609
17959W        W34033  12.610  10.198  15.912  0.0060  0.1243 -0.3161
17960W        W34034   2.673  17.513   2.153  0.3157  0.1277  0.2611
17961W        W34035   1.118  16.175  14.731 -0.0820 -0.0182  0.3114
17962W        W34036   2.486   1.379   3.366  0.1366  0.3202  0.3080
17963W        W34037   1.423  16.668  13.123  0.2556  0.2321 -0.0976
17964W        W34038  16.576   8.153  16.283 -0.1252  0.0212 -0.1026
17965W        W34039   6.055   4.585  14.206  0.0640 -0.4536 -0.0850
17966W        W34040   9.350  11.395  16.241  0.0786  0.1415  0.0711
17967W        W34041   0.142  14.256   5.490 -0.1005 -0.0207  0.0256
17968W        W34042   5.780   4.880  15.073  0.0933 -0.2529  0.0347
17969W        W34043  12.110   0.390  14.839 -0.0869 -0.1751  0.0322
17970W        W34044   4.160   5.650  12.140 -0.1560  0.0786  0.2403
17971W        W34045   4.274  12.716   3.117 -0.0869 -0.0223  0.0061
17972W        W34046  12.296   3.816  12.552 -0.0116  0.1012 -0.0375
17973W        W34047   6.232   2.925  11.749 -0.1134 -0.2470 -0.2239
17974W        W34048   1.889  14.067  17.016 -0.0690 -0.3048  0.0707
17975W        W34049  14.087  17.474  15.221  0.2191 -0.5588  0.0863
17976W        W34050  11.168   4.700   0.056 -0.2002  0.2626 -0.2851
17977W        W34051   6.202  11.513   4.443  0.1074 -0.1374 -0.6497
17978W        W34052  12.300   2.832  16.619  0.0605  0.0482  0.1497
17979W        W34053   5.790  14.824  12.498 -0.0834 -0.2976 -0.0614
17980W        W34054   8.250  15.166   2.970  0.3204  0.2764  0.2151
17981W        W34055   1.621   3.663   1.123 -0.1240 -0.0008 -0.1549
17982W        W34056   3.606   6.941  16.791  0.0675  0.0526  0.3248
17983W        W34057   1.295   3.892  15.848 -0.0575 -0.1491  0.1189
17984W        W34058  16.184   5.431   2.149  0.2430  0.0162  0.0015
17985W        W34059   8.631  17.173  15.585 -0.0527  0.0327 -0.0978
17986W        W34060  12.139   8.218   6.199 -0.0162  0.0409 -0.1003
17987W        W34061   2.830   6.382   4.814  0.1835 -0.2232 -0.0899
17988W        W34062   6.388   1.543   3.654  0.0774 -0.4067  0.2219
17989W        W34063   2.765   4.297  11.960 -0.0159  0.4272  0.1167
17990W        W34064  12.569   8.037  10.591 -0.0081  0.0909 -0.2091
17991W        W34065   4.256  12.820   2.032 -0.6961  0.2137  0.1578
17992W        W34066   9.167  16.850  14.416  0.3646  0.2753 -0.0146
17993W        W34067   0.711   3.052   0.818  0.0222 -0.1391 -0.1829
17994W        W34068   3.019   0.106   1.407  0.0655  0.1687  0.3670
17995W        W34069  16.525  16.014   0.759 -0.1330 -0.0185  0.1140
17996W        W34070  17.211  17.359   0.977  0.0050 -0.3214  0.0654
17997W        W34071   7.901   5.546   3.671 -0.2394 -0.0361 -0.0621
17998W        W34072   3.123  15.397  12.375  0.2305 -0.0425 -0.1947
17999W        W34073   5.045  14.442   5.137 -0.5390 -0.2629  0.3321
18000W        W34074   3.192  12.204   4.464  0.1039 -0.0388  0.2013
18001W        W34075   0.183  15.996   2.081 -0.0793  0.2991  0.0113
18002W        W34076   4.086  10.185   4.972 -0.1643 -0.0426  0.0288
18003W        W34077  15.877   5.588   6.153 -0.1465 -0.0121 -0.0451
18004W        W34078   7.284   8.832   3.612  0.1331  0.0590 -0.0491
18005W        W34079  15.365   7.692  15.707  0.0334 -0.1369  0.0388
18006W        W34080   5.214   0.897  13.332  0.0218  0.6001 -0.0924
18007W        W34081   2.511  12.776   2.206 -0.2060 -0.0794  0.4034
18008W        W34082   3.605   0.964   1.901  0.2463  0.2275 -0.0060
18009W        W34083  16.161  14.865  14.520 -0.0509 -0.2290 -0.0861
18010W        W34084   7.576  14.417  12.850  0.1838  0.1534 -0.3960
18011W        W34085   0.091   9.002  14.896 -0.4075 -0.2671  0.0848
18012W        W34086  12.184   1.884  12.626  0.2565  0.4600  0.2258
18013W        W34087   0.068  13.894   1.815 -0.2958 -0.1541 -0.3635
18014W        W34088   9.094   6.096  15.748  0.0684  0.0131  0.1101
18015W        W34089  14.319   9.354  14.913 -0.1725 -0.4497  0.0377
18016W        W34090   0.613   8.861   3.749  0.1397 -0.3376 -0.0419
18017W        W34091  11.003   6.640  14.444  0.0129 -0.1540 -0.2649
18018W        W34092  14.923   6.804  15.960  0.2832 -0.0770 -0.0867
18019W        W34093  14.110   7.316  13.400 -0.1098 -0.0354 -0.1681
18020W        W34094  10.360   2.098   5.545 -0.0537 -0.0936  0.1352
18021W        W34095  13.396   9.433  11.746  0.2226  0.1936 -0.0161
18022W        W34096   0.035  15.460   2.922 -0.0611  0.0819 -0.1922
18023W        W34097   5.357  16.493   0.329 -0.0300 -0.1331  0.2240
18024W        W34098   0.703  11.988   4.717  0.2871  0.1649 -0.0874
18025W        W34099   3.630  11.355   1.191  0.0034  0.4337  0.0500
18026W        W34100   8.996  14.142  16.559 -0.0765  0.3279 -0.1684
18027W        W34101  12.985   1.948   1.894 -0.2748 -0.3622 -0.1365
18028W        W34102   5.818  17.117   5.822  0.1765  0.3303 -0.0085
18029W        W34103   6.300   5.367  14.291  0.1376  0.0999 -0.1846
18030W        W34104   4.805   9.517   1.083  0.1211 -0.2812 -0.1657
18031W        W34105  17.010  14.090   1.028  0.0899 -0.0732  0.1850
18032W        W34106  15.051  11.931   3.076 -0.0020  0.2200 -0.0463
18033W        W34107  13.428   1.429  17.118 -0.2788 -0.0705 -0.0424
18034W        W34108  12.916   1.536   1.723  0.0037 -0.1486  0.0141
18035W        W34109  17.303   2.653   4.499 -0.3153 -0.1184 -0.3419
18036W        W34110   7.109   5.378   0.978 -0.0290  0.1126 -0.0782
18037W        W34111  11.789   1.583  12.799  0.4026  0.6074 -0.0525
18038W        W34112  15.385   0.205  15.681  0.2621  0.0681  0.2711
18039W        W34113  10.569  14.520   1.478 -0.2227 -0.0634  0.4145
18040W        W34114   3.267  17.673   5.493 -0.1360 -0.1411 -0.3226
18041W        W34115   5.064  12.916  16.167  0.3357 -0.1186  0.1935
18042W        W34116   9.536   8.987  16.963 -0.2558  0.2496 -0.1155
18043W        W34117   2.254   9.887  10.913 -0.1770  0.0372 -0.1946
18044W        W34118   1.610   0.033  15.497  0.2277  0.0731  0.3176
18045W        W34119   9.317  15.445   5.823  0.3177 -0.2663  0.2284
18046W        W34120  12.694   4.650  15.552 -0.0279  0.1143  0.0386
18047W        W34121   4.565  16.506  13.662 -0.0605  0.3069  0.1439
18048W        W34122   9.950  15.802  16.826 -0.0590 -0.1498  0.2545
18049W        W34123   7.434   3.802  16.744 -0.0465  0.0752 -0.0529
18050W        W34124   5.121   6.826  12.450  0.1685 -0.0833 -0.0297
18051W        W34125   1.395  13.402  14.407  0.2465  0.3630  0.1624
18052W        W34126  16.903   9.518   0.279 -0.0717  0.0329 -0.1137
18053W        W34127   7.453   5.638  14.314 -0.1400  0.0700 -0.0565
18054W        W34128  17.312  12.432  14.527 -0.2640 -0.2768 -0.0562
18055W        W34129   1.731  15.485  14.273  0.0731  0.2292 -0.0235
18056W        W34130   9.672   6.162   6.114  0.6300  0.3246 -0.1129
18057W        W34131   4.994  15.772   4.864  0.2097 -0.1010  0.0406
18058W        W34132  13.944   6.060  16.982 -0.0514  0.1794 -0.0950
18059W        W34133   6.747   4.698  15.391 -0.1274 -0.0414 -0.1160
18060W        W34134  17.413   8.033   0.081 -0.0169  0.2198 -0.4480
18061W        W34135   9.151   1.173  16.892 -0.0692 -0.2965  0.2736
18062W        W34136   0.645   6.737  12.148  0.1209 -0.0659  0.0781
18063W        W34137   6.815   2.373  11.952 -0.0621  0.1136  0.1527
18064W        W34138  12.767  16.880  16.972 -0.1980  0.0290 -0.0437
18065W        W34139  14.696   6.923   3.892 -0.1152 -0.2716 -0.1685
18066W        W34140  16.402  17.526  15.972 -0.1692 -0.1948  0.1787
18067W        W34141   1.410  10.923   4.370  0.0188 -0.1451  0.1640
18068W        W34142  15.244   5.447   3.204  0.2504 -0.0760 -0.0122
18069W        W34143   4.613   4.708  15.907 -0.1907 -0.1387 -0.1702
18070W        W34144   9.335   5.874   1.788 -0.1836 -0.3178 -0.0889
18071W        W34145  14.573  10.026   5.619 -0.0192 -0.1477 -0.2560
18072W        W34146   4.645  15.139   2.427 -0.0131  0.0259 -0.0330
18073W        W34147  11.428  12.827  12.802 -0.1170  0.1362  0.0607
18074W        W34148   0.483   1.031   0.568 -0.0216 -0.0974  0.0026
18075W        W34149  14.554  15.043   1.254  0.3790 -0.0543  0.1814
18076W        W34150   8.563   3.657   1.988  0.2429 -0.2549 -0.0369
18077W        W34151   9.807  10.111   0.552  0.1223 -0.2196 -0.0016
18078W        W34152  11.723   8.607  12.118  0.2716 -0.0405  0.0525
18079W        W34153   0.640   0.014  14.562  0.4142  0.4817  0.1516
18080W        W34154  11.164   1.937   3.022 -0.1949 -0.1671  0.0406
18081W        W34155   3.434   2.810   4.078  0.5004  0.1360  0.0589
18082W        W34156   9.543  14.471  12.969  0.2966  0.1363  0.0453
18083W        W34157  12.613  14.658  14.274 -0.0665 -0.0402  0.1490
18084W        W34158  17.592   3.522  13.958  0.1802  0.4370 -0.1533
18085W        W34159   3.457  16.608   1.600 -0.1089 -0.0274  0.0361
18086W        W34160  13.087   0.613   2.354 -0.1883 -0.0947 -0.0769
18087W        W34161   5.120  17.124   0.219 -0.0984 -0.1627  0.1517
18088W        W34162   4.791   0.865  13.685 -0.2086  0.0450 -0.1709
18089W        W34163   9.567   5.364  15.246  0.1837 -0.0592 -0.0054
18090W        W34164   6.019   3.303  14.238  0.0377 -0.1192  0.1794
18091W        W34165  13.982  12.892  16.544 -0.2487 -0.1519  0.0215
18092W        W34166  10.411   7.688   3.771 -0.2243 -0.1194 -0.0460
18093W        W34167   6.235  16.230   4.221  0.2704 -0.0476  0.2209
18094W        W34168  14.990   1.504   5.120 -0.3186 -0.1742  0.1399
18095W        W34169   8.072  11.713   1.860  0.1538  0.1342  0.0047
18096W        W34170  10.226   2.561   1.315 -0.2494  0.1651 -0.1889
18097W        W34171  16.530   6.805  11.920 -0.0998 -0.0682 -0.1189
18098W        W34172  13.686   2.190  13.121  0.0345  0.0184 -0.1334
18099W        W34173  16.153   2.853   3.133 -0.1756 -0.1931 -0.0719
18100W        W34174   4.944  14.213  14.546 -0.2599 -0.5217 -0.1243
18101W        W34175   3.317   9.209  12.868 -0.1355 -0.3295  0.0480
18102W        W34176   8.474  14.634   3.248  0.4452  0.0575  0.2778
18103W        W34177  11.212   0.355   3.691  0.2372  0.1693 -0.1285
18104W        W34178  10.207   8.225   2.146  0.0649 -0.0974 -0.0676
18105W        W34179   0.037   1.368  11.838 -0.0032 -0.0392 -0.3211
18106W        W34180   6.895   6.138  11.835 -0.2346  0.2234 -0.2074
18107W        W34181  11.615   0.857   3.752 -0.2344  0.1729 -0.1485
18108W        W34182  17.231   3.881  12.103  0.0865  0.1563  0.2557
18109W        W34183   8.480   5.370  12.312  0.5190  0.1083  0.2086
18110W        W34184   1.552  12.846   0.661  0.0341 -0.0618  0.0873
18111W        W34185  10.340  16.717   1.747 -0.1532  0.3592  0.2039
18112W        W34186   0.509  14.326  14.096  0.2045  0.0962  0.0744
18113W        W34187   2.346   0.888  14.845 -0.1138  0.2273 -0.2527
18114W        W34188  14.878  14.926   4.633 -0.0304 -0.1814  0.2138
18115W        W34189   9.568  11.864   1.698 -0.2753 -0.1757  0.0569
18116W        W34190  16.593   0.627   2.840  0.0604  0.1220 -0.0553
18117W        W34191   7.004  17.303  17.077  0.0628 -0.1856  0.1313
18118W        W34192   5.792   3.851   4.401  0.1246  0.4465 -0.2645
18119W        W34193   0.727   0.499   3.352  0.0752  0.0543  0.1987
18120W        W34194  15.440  11.837   0.984 -0.3387  0.0187 -0.0956
18121W        W34195  14.508   9.265  12.972 -0.0246 -0.0517 -0.0991
18122W        W34196   3.966   6.417  13.276 -0.1547  0.3422 -0.0759
18123W        W34197  12.937  14.998  12.200  0.0759  0.0720  0.0067
18124W        W34198   1.499  10.460   4.704  0.1949 -0.4456 -0.0213
18125W        W34199  11.927   4.994   5.462  0.0969  0.2025  0.0937
18126W        W34200  14.386  11.872   0.674  0.4181 -0.1546  0.0246
18127W        W34201   3.046   7.619  16.110  0.2100  0.0033 -0.1040
18128W        W34202   8.147   8.726   4.524 -0.2823 -0.1448 -0.1601
18129W        W34203   7.589  11.726   6.353  0.0385 -0.1415  0.3577
18130W        W34204  13.601   3.497  15.085  0.1643 -0.1181 -0.1247
18131W        W34205   3.897  13.351   5.294 -0.0896 -0.4228 -0.0047
18132W        W34206   9.095  16.156   0.192 -0.0227  0.0684  0.0991
18133W        W34207   7.822  17.655   0.308 -0.1864  0.0105 -0.0181
18134W        W34208   6.008  11.202  12.565 -0.1546 -0.3461 -0.0810
18135W        W34209   2.992   8.334  14.470 -0.0452 -0.0865 -0.0223
18136W        W34210   7.504   1.656  13.740  0.0202 -0.3712  0.0478
18137W        W34211   4.393   1.465  15.361 -0.0510 -0.1093  0.0052
18138W        W34212   6.856   3.834  16.639 -0.1402 -0.1923  0.2634
18139W        W34213  12.916   5.731   5.205 -0.2981 -0.0132  0.3047
18140W        W34214   7.533   4.406  13.117  0.0430  0.1351  0.0980
18141W        W34215  13.323   0.033   3.473  0.0978  0.0671  0.2173
18142W        W34216   5.804  16.886  14.390 -0.1110 -0.0226  0.1453
18143W        W34217   8.882   5.271   2.333  0.3200 -0.0913  0.1617
18144W        W34218   7.896   1.587  17.060 -0.0200 -0.0691  0.0317
18145W        W34219  13.030   0.639  14.348  0.2180 -0.1028  0.2541
18146W        W34220  15.492  10.146   5.109  0.1593  0.3084  0.0456
18147W        W34221  13.754  11.104  15.381  0.1416 -0.0898 -0.3223
18148W        W34222  10.956   7.438   5.563 -0.2460  0.2766 -0.0824
18149W        W34223  14.923  13.768  11.914 -0.2942  0.1170  0.0925
18150W        W34224  13.851  11.189   0.582  0.1233  0.2403 -0.1159
18151W        W34225   5.501   4.034  16.068  0.1074  0.3238 -0.2740
18152W        W34226   7.579   0.194  12.526  0.1152  0.1136 -0.1046
18153W        W34227   4.090  17.433   2.393  0.4215  0.1826 -0.0585
18154W        W34228   3.979   5.253  13.998 -0.0156 -0.2236  0.2426
18155W        W34229  14.776   6.332   0.047  0.2796  0.0715 -0.0943
18156W        W34230   5.929  12.894  16.515  0.1597 -0.0148 -0.1102
18157W        W34231   6.192   6.908  14.625  0.0788 -0.4508 -0.1697
18158W        W34232  16.553   4.105  15.146  0.0820 -0.2715 -0.0451
18159W        W34233   9.117  12.171   5.227  0.0255 -0.0712 -0.2263
18160W        W34234  17.309   8.121  13.036 -0.1487 -0.0152 -0.1901
18161W        W34235   6.385   8.830   3.889 -0.2674  0.0444 -0.1361
18162W        W34236   9.299   4.449   2.714  0.2673  0.1550 -0.2466
18163W        W34237   3.197  10.033  16.673  0.2901 -0.1146  0.2600
18164W        W34238  13.594  15.481   3.424 -0.2216  0.1912 -0.0484
18165W        W34239   2.532  13.903  11.793 -0.4056 -0.2467  0.3322
18166W        W34240   4.199   7.476  11.870 -0.2422  0.0605  0.0018
18167W        W34241   0.769   3.606  15.160  0.1566 -0.0852  0.2493
18168W        W34242   5.016   1.391  12.672  0.1253 -0.0787  0.2199
18169W        W34243  14.649   3.381  14.186 -0.0339  0.0608 -0.1127
18170W        W34244  17.305  16.616  13.574  0.0467 -0.0750 -0.3689
18171W        W34245   8.456   2.716  16.245  0.0724  0.1275 -0.1813
18172W        W34246   3.436  16.146   4.416  0.0137 -0.1642 -0.1221
18173W        W34247   8.360  16.132   2.984 -0.1982  0.1961  0.1995
18174W        W34248   9.179  11.403   3.107 -0.2303 -0.2516 -0.2709
18175W        W34249  12.018  17.151   4.099 -0.2177 -0.0800  0.0172
18176W        W34250   7.348  12.358   3.457 -0.2316  0.1321  0.0557
18177W        W34251  10.136   1.162  14.159  0.0776 -0.1345  0.0818
18178W        W34252   4.318   0.632  15.802  0.0156  0.3002 -0.0724
18179W        W34253   6.359   8.597  14.329  0.3236  0.3219  0.0137
18180W        W34254   3.794  11.916  15.289 -0.0423 -0.0374  0.0497
18181W        W34255   6.593  10.004  12.381  0.3030 -0.0618 -0.1548
18182W        W34256   5.693   7.021   2.522 -0.0050 -0.0507  0.3954
18183W        W34257  11.791   1.839  11.953 -0.1065 -0.2142 -0.3204
18184W        W34258   9.303  15.061  13.123  0.2959  0.0946 -0.2841
18185W        W34259   6.617  16.128   0.018  0.0938 -0.0091  0.0073
18186W        W34260   1.211   0.317  15.673 -0.0836  0.2250  0.1918
18187W        W34261  14.061   6.901   1.403  0.0792  0.0744  0.0961
18188W        W34262  12.900   4.743   2.199  0.0968 -0.2086  0.0283
18189W        W34263   3.927  14.784   3.995  0.0743 -0.1437  0.1325
18190W        W34264   1.552  17.497  14.625 -0.0016 -0.2105 -0.0959
18191W        W34265   3.767   0.739   3.345 -0.2911 -0.1213 -0.0948
18192W        W34266   7.983   0.609  15.946  0.1006 -0.3246 -0.0420
18193W        W34267   2.244  15.018   6.524 -0.0239  0.1799  0.0504
18194W        W34268  10.585   0.236  14.055 -0.0844  0.3873 -0.0694
18195W        W34269   1.461   9.695  14.868 -0.0782 -0.2352 -0.1882
18196W        W34270  17.717  11.888   5.718  0.1225 -0.1642 -0.2172
18197W        W34271  17.286   5.309  16.273  0.3057 -0.0915  0.2203
18198W        W34272  15.872  13.646   1.135  0.1709 -0.1644 -0.0279
18199W        W34273   5.715  12.052  17.013 -0.2820 -0.0292  0.0225
18200W        W34274   4.482  10.440   4.550  0.1663 -0.0814 -0.0588
18201W        W34275   3.690   3.940  13.400  0.3968 -0.0456 -0.1014
18202W        W34276   3.127   0.165   0.335  0.0405  0.1255  0.2404
18203W        W34277  17.407   8.654   4.726  0.1522  0.0288 -0.2592
18204W        W34278   8.226  10.096   2.124  0.0196 -0.0085  0.2537
18205W        W34279   3.188   6.272  12.693 -0.0506 -0.1024 -0.1644
18206W        W34280  13.188  10.715  16.598  0.0076  0.0908 -0.1930
18207W        W34281  13.143  12.602   1.519 -0.0290 -0.1489  0.2455
18208W        W34282   0.443   8.673   1.986 -0.1311  0.0908  0.2310
18209W        W34283   8.062   1.194   0.234  0.0280 -0.0837  0.2426
18210W        W34284   8.550   3.487   2.501  0.3508 -0.0349  0.3196
18211W        W34285   1.039  17.458   0.618  0.2868  0.0311 -0.1213
18212W        W34286  13.675  14.407  15.777 -0.0838  0.0750 -0.1353
18213W        W34287   5.100   4.083   0.429  0.0236  0.3017  0.1943
18214W        W34288   0.246   1.222  15.201  0.1843  0.1613  0.0017
18215W        W34289   7.488  11.552   3.900  0.2403 -0.0799  0.1588
18216W        W34290   5.036  13.201   0.054 -0.1726  0.4672  0.0824
18217W        W34291   8.670   2.063   4.360 -0.2059 -0.0268  0.1273
18218W        W34292  14.297   1.430   2.544  0.3121 -0.2203  0.1548
18219W        W34293   9.340   9.097  16.221 -0.1041  0.0756  0.1087
18220W        W34294  13.436   8.801  16.659  0.2010 -0.4132 -0.1468
18221W        W34295  13.772   9.959  16.724 -0.0997  0.2137  0.0423
18222W        W34296  17.091   4.088   4.266 -0.0827 -0.0613  0.1098
18223W        W34297   1.655  11.630   2.468  0.1905 -0.2229 -0.3107
18224W        W34298  17.548  12.967  16.227 -0.1077  0.2623  0.2423
18225W        W34299  12.968   6.029   6.264 -0.0468 -0.1396  0.0668
18226W        W34300  14.129   8.373  16.708 -0.0217 -0.0255 -0.1851
18227W        W34301  13.395  14.827  16.682  0.0204 -0.1556  0.0161
18228W        W34302  15.385  12.374  16.328  0.1795  0.0267  0.0274
18229W        W34303  16.867  13.192  14.986 -0.1998 -0.1543  0.3511
18230W        W34304  12.639   7.544  13.786  0.0793  0.1411 -0.0606
18231W        W34305   5.640   5.947  14.797 -0.0812 -0.1584 -0.3025
18232W        W34306  11.307  16.654  12.226 -0.0299  0.1383 -0.1825
18233W        W34307   7.794  13.130   1.901 -0.0384  0.0274 -0.0327
18234W        W34308   2.315  17.391   1.335 -0.2713  0.1883  0.1843
18235W        W34309  10.344   7.978  15.082 -0.1651  0.1868 -0.0816
18236W        W34310   5.025   7.209  13.083 -0.1450  0.1642  0.4128
18237W        W34311   1.183   0.634  12.919 -0.2688 -0.1306  0.1666
18238W        W34312   0.809   0.580  12.539  0.0886 -0.0018 -0.0776
18239W        W34313   6.663  15.436   2.013  0.2028 -0.1224 -0.0348
18240W        W34314   7.336   2.507  12.902  0.1237  0.0269  0.2627
18241W        W34315   1.099  13.236   4.184  0.0071 -0.0975  0.0833
18242W        W34316  16.692  13.602   2.110  0.0184  0.1233 -0.0732
18243W        W34317  15.894  10.486  15.081 -0.1753  0.1821  0.0455
18244W        W34318  15.281  11.806   1.779 -0.2965 -0.0908  0.2912
18245W        W34319  13.176   5.383  13.731  0.1352  0.0898 -0.1247
18246W        W34320   8.268  12.376  13.016  0.1158 -0.1162  0.1908
18247W        W34321   2.930   5.502   4.672  0.0313  0.0254 -0.3228
18248W        W34322   7.106  11.334  16.046 -0.2779 -0.0141 -0.1371
18249W        W34323  14.697   2.943  13.641 -0.1072  0.1859 -0.3889
18250W        W34324   5.153  12.035   3.856  0.0559 -0.1177  0.0676
18251W        W34325   4.141  14.495   1.232 -0.0486  0.0226  0.1335
18252W        W34326   4.206   5.366   4.697  0.0214  0.1251  0.1036
18253W        W34327   2.003   6.549  11.820 -0.1140  0.1915  0.2628
18254W        W34328   0.373   1.642   0.147  0.0031 -0.1624  0.1642
18255W        W34329  10.165   9.454   2.453  0.1248  0.0485 -0.1910
18256W        W34330   0.711   7.915   0.415  0.1292 -0.0875 -0.2972
18257W        W34331   6.943   7.666  13.497 -0.1042 -0.0212  0.0810
18258W        W34332  15.039  15.675   4.528  0.1916 -0.2495 -0.1678
18259W        W34333  15.885  11.764  16.467 -0.0552 -0.1313  0.1997
18260W        W34334   2.063  16.517  15.638 -0.2211  0.0708 -0.2242
18261W        W34335  10.590   4.418   5.121  0.0328  0.0235 -0.2862
18262W        W34336  12.598  16.605  12.073  0.0660 -0.0338 -0.2958
18263W        W34337   4.189   4.349  11.874  0.2416 -0.0244  0.1621
18264W        W34338   0.071  14.322   0.889  0.0566 -0.1281  0.0167
18265W        W34339   6.766  15.531   5.983  0.2861  0.2127  0.0340
18266W        W34340  12.516   8.608  13.780 -0.3030  0.0010  0.0616
18267W        W34341   4.634   3.531   2.032 -0.2101 -0.0847  0.1371
18268W        W34342  12.568   1.771  14.044 -0.0704 -0.3004  0.1273
18269W        W34343   1.899   5.486  12.335  0.1889  0.2151  0.2595
18270W        W34344  12.191   8.826   4.412 -0.0209  0.2908  0.2764
18271W        W34345  10.391  13.024  16.949 -0.0641 -0.1697  0.2942
18272W        W34346  15.225  17.178   5.455  0.2810 -0.2458  0.3837
18273W        W34347   6.856  15.445   4.895 -0.1813 -0.0056  0.0055
18274W        W34348   9.100  11.514  14.298  0.0834  0.0045 -0.0831
18275W        W34349  15.394  11.698  11.625  0.2608 -0.0360  0.3267
18276W        W34350   0.107   4.457  17.098  0.2379 -0.0336  0.2270
18277W        W34351   1.240   0.387  13.596 -0.0634  0.1716 -0.2460
18278W        W34352  16.445   3.110   1.314 -0.0555 -0.1135  0.1962
18279W        W34353   7.081   2.048  12.996  0.0772  0.0762 -0.2113
18280W        W34354  17.082  11.065   4.660 -0.1354 -0.2331 -0.0337
18281W        W34355  13.540  17.716   2.993 -0.0772  0.0058  0.0712
18282W        W34356  10.305   2.658   5.627  0.0562 -0.2245  0.3818
18283W        W34357   8.117   2.499   5.506  0.0051  0.0379 -0.0351
18284W        W34358  15.208  14.992  11.867  0.0541  0.2807 -0.2565
18285W        W34359   0.583   6.138   2.761 -0.0743  0.2217 -0.2177
18286W        W34360  13.613  10.230   4.511  0.1067 -0.1536 -0.0399
18287W        W34361   8.954   3.440   3.888  0.0301 -0.0559  0.2430
18288W        W34362  10.504   9.886  13.686 -0.0218 -0.0995  0.2763
18289W        W34363   7.136  13.359  12.722  0.2657  0.3405  0.3832
18290W        W34364   9.951   8.754   4.747  0.0949  0.1100  0.0100
18291W        W34365  13.789   1.050   0.002  0.1992  0.0760  0.0225
18292W        W34366  16.685   5.332   3.993  0.4204 -0.2700  0.0756
18293W        W34367  16.396  10.961   6.472  0.0879  0.2618 -0.3318
18294W        W34368   8.934   4.236  11.986 -0.2011 -0.1796  0.1470
18295W        W34369  15.185  13.428   4.621 -0.4052  0.1807 -0.0837
18296W        W34370   3.233  11.329   0.811 -0.0997  0.2642 -0.0572
18297W        W34371  12.881   8.526  15.075  0.0485  0.1378 -0.1560
18298W        W34372  12.928   9.705  14.160  0.2110  0.1745 -0.2834
18299W        W34373  10.155   4.556   1.707 -0.3056  0.1624 -0.4819
18300W        W34374  14.417  16.904  17.019  0.0905  0.3026 -0.0842
18301W        W34375   3.298   7.467  12.790  0.0826 -0.1050 -0.0437
18302W        W34376   9.194   3.389   1.786 -0.2062 -0.1661 -0.1955
18303W        W34377   3.352  14.686   0.168  0.0723  0.1330  0.1233
18304W        W34378   6.657  12.278   3.632  0.0163 -0.0250  0.1508
18305W        W34379   7.075  16.787   6.372  0.3607  0.2279 -0.3124
18306W        W34380   9.222  13.123   5.431 -0.3259  0.2235 -0.0199
18307W        W34381   6.291   6.873   0.027 -0.0122  0.0248  0.1093
18308W        W34382   1.322  13.935  13.116  0.0916  0.0386 -0.1028
18309W        W34383  13.160   8.038   0.676  0.3687  0.0632  0.0903
18310W        W34384  11.322   7.868   1.289 -0.0049  0.0605  0.0688
18311W        W34385  17.432  16.133  13.373  0.1699  0.1159  0.2679
18312W        W34386   8.599   3.060  12.534  0.3187 -0.1526  0.0564
18313W        W34387   4.656  15.772   3.697 -0.3089 -0.1392  0.1256
18314W        W34388  16.295  15.721   2.801 -0.2576  0.3073  0.3533
18315W        W34389   1.489  10.418   6.062  0.2200  0.3230  0.1923
18316W        W34390   9.825  17.233  14.877 -0.1803 -0.1867 -0.0448
18317W        W34391  15.841   7.034   6.151  0.1061 -0.0556 -0.1261
18318W        W34392   4.260   2.580   3.234  0.1585 -0.0163 -0.1530
18319W        W34393  15.107   0.112   5.529  0.0130  0.1807  0.3528
18320W        W34394   7.706  11.516  10.898  0.5636 -0.3549  0.0513
18321W        W34395   3.451   4.789   3.334  0.1214  0.0542  0.0364
18322W        W34396  14.590  12.426   0.016 -0.1980 -0.0376  0.0403
18323W        W34397   8.958  13.349  12.294  0.2275 -0.3183 -0.1963
18324W        W34398   3.239   5.978   1.573 -0.2905  0.0728  0.0397
18325W        W34399   1.637   8.318  12.394 -0.2437  0.0111  0.1409
18326W        W34400   7.415  10.968   0.258  0.0913 -0.0481 -0.0821
18327W        W34401  13.960   0.716   1.133 -0.1602  0.0338  0.2052
18328W        W34402   8.250   9.094  14.158  0.4513  0.0170  0.0783
18329W        W34403  13.040  13.265   4.301  0.0669  0.0913  0.1066
18330W        W34404  11.798  10.592  15.522 -0.1837  0.2381 -0.2567
18331W        W34405  17.177  10.451  14.454  0.0117  0.0968  0.1276
18332W        W34406   5.269   2.501   3.033 -0.2166 -0.0217 -0.0127
18333W        W34407   5.553   3.385   0.650 -0.2294  0.0927 -0.0332
18334W        W34408   8.630   7.974  16.143  0.2525 -0.3792 -0.0535
18335W        W34409   3.932  16.737   1.002  0.3870 -0.3183 -0.1503
18336W        W34410   0.789  14.451  16.331 -0.0588 -0.0028 -0.3936
18337W        W34411  15.161   9.651  13.311 -0.0558  0.0851  0.2204
18338W        W34412   0.732  14.398  16.861 -0.1256  0.3320 -0.0281
18339W        W34413  12.817   0.663  15.225 -0.3316  0.0175  0.2416
18340W        W34414  17.686   0.437   5.583  0.0435 -0.3048 -0.1344
18341W        W34415  15.380   5.365   4.178  0.1471 -0.1453  0.2472
18342W        W34416  14.276   8.591   0.041 -0.4339 -0.1055 -0.0676
18343W        W34417  14.864  12.890  14.462  0.0309  0.0510  0.1284
18344W        W34418   0.623   6.612  15.869  0.1680  0.1162  0.3491
18345W        W34419  12.365   5.534   5.809  0.1690 -0.4375  0.1783
18346W        W34420  12.723  15.451   1.429 -0.0736  0.0691 -0.0356
18347W        W34421  13.778  10.151   5.099 -0.3536 -0.0480 -0.0646
18348W        W34422  10.054  10.410  14.452 -0.0567 -0.2907  0.1538
18349W        W34423  16.095   7.039  13.215  0.1286  0.0619  0.1057
18350W        W34424   8.395   3.379  16.863 -0.0321  0.1522  0.0657
18351W        W34425  16.659  16.295  11.816 -0.0467 -0.0590  0.2835
18352W        W34426   4.869  11.562   4.524  0.2655 -0.0292 -0.4071
18353W        W34427   9.859   1.324   4.331 -0.2322  0.1911  0.2341
18354W        W34428   0.883   8.297  13.498 -0.3885  0.1073 -0.1917
18355W        W34429   1.742  16.579   4.892 -0.0382 -0.2306  0.0545
18356W        W34430   7.756   7.513   4.443 -0.0617  0.1590  0.0409
18357W        W34431   0.597  13.197  11.437  0.2446 -0.1255  0.0922
18358W        W34432   9.954   2.164   2.991 -0.0754 -0.2529  0.2280
18359W        W34433   9.618   2.465   5.045 -0.0695  0.2370  0.3322
18360W        W34434  14.152   0.635  15.972  0.0024  0.0794 -0.4896
18361W        W34435  13.826  10.494  12.549  0.1021  0.0019 -0.2818
18362W        W34436  10.627   8.996  16.596  0.1807 -0.1805 -0.0756
18363W        W34437  16.743   5.859   3.989 -0.0322  0.0357 -0.0317
18364W        W34438   0.984   4.237   0.448 -0.0185 -0.0681 -0.2095
18365W        W34439   9.212  10.847  16.013 -0.0916 -0.0552  0.1358
18366W        W34440   0.943  12.558   1.618  0.1550 -0.2695 -0.0402
18367W        W34441  10.380   2.394  16.218 -0.1357  0.2541 -0.0128
18368W        W34442   8.473  11.906  13.133  0.1676 -0.0052 -0.2160
18369W        W34443  11.380  12.391  13.297 -0.2298  0.2505  0.2064
18370W        W34444   9.986  13.369   4.901 -0.0420 -0.1839  0.1426
18371W        W34445   4.215   5.083   5.270  0.1435  0.1470 -0.1902
18372W        W34446  16.934   2.352   4.731 -0.1317 -0.1670  0.1171
18373W        W34447  13.953   3.760   4.802  0.2358 -0.0904 -0.0258
18374W        W34448  12.932  13.101  15.894  0.0424  0.0153 -0.2604
18375W        W34449   3.887   4.653   2.450  0.2308 -0.1609 -0.0114
18376W        W34450  16.158   9.412   1.044 -0.0570 -0.2075 -0.0071
18377W        W34451  16.090   4.793   0.832  0.1683 -0.2016  0.2110
18378W        W34452   3.246   5.808  11.531  0.2586 -0.1092  0.3080
18379W        W34453  10.438  17.433   3.645  0.0164  0.2815 -0.0976
18380W        W34454  15.354   1.906  12.548  0.0877  0.2147  0.0701
18381W        W34455  12.931   5.029  15.313  0.0122 -0.2994  0.2303
18382W        W34456  17.154  16.792   0.633  0.2382  0.0714  0.0197
18383W        W34457   7.953   2.024  15.608 -0.1745  0.0755 -0.1224
18384W        W34458   2.803   1.528  12.796 -0.1073  0.2564 -0.0105
18385W        W34459   2.251   1.859  15.100  0.0372 -0.0856 -0.3344
18386W        W34460   0.506  11.253  17.073  0.0147 -0.1645 -0.1322
18387W        W34461   8.902   5.660  12.024  0.0597  0.1922  0.1955
18388W        W34462   8.459   8.971  15.201 -0.0428  0.0749 -0.0701
18389W        W34463   0.315   0.594  15.536  0.0899 -0.0438  0.0330
18390W        W34464  15.937   5.807   3.649  0.1229  0.2355  0.3740
18391W        W34465  12.604   0.381   0.176 -0.0974  0.1914  0.2708
18392W        W34466   8.656  15.112   3.315 -0.3010 -0.0496 -0.0089
18393W        W34467   5.620  16.385  12.642  0.1109  0.0234 -0.2206
18394W        W34468   6.540   7.084  14.914 -0.4740 -0.0360  0.1382
18395W        W34469   7.836  13.647   3.635  0.0939 -0.0873  0.0281
18396W        W34470   8.840  14.996  13.548 -0.0311  0.1783 -0.1071
18397W        W34471  11.618  15.387  16.902  0.1615  0.0700  0.2483
18398W        W34472  12.635  12.410  15.911 -0.1257 -0.1826  0.1315
18399W        W34473   1.783  14.023   3.071 -0.1069  0.3033  0.1978
18400W        W34474  17.725   9.107  16.664  0.0683 -0.1349 -0.2029
18401W        W34475   0.957  14.579   6.807  0.2121  0.0569  0.0700
18402W        W34476   0.143   2.138   5.254  0.2964  0.0755 -0.2419
18403W        W34477  10.602  10.068   3.422 -0.0795  0.2774 -0.2075
18404W        W34478   7.728   3.321  16.883 -0.0899  0.1402  0.0667
18405W        W34479  10.764   1.754  12.928  0.4894 -0.0367  0.3167
18406W        W34480   5.077  16.001   0.248  0.0496  0.0780  0.0443
18407W        W34481  12.717  15.458   0.891 -0.0043 -0.0831  0.1728
18408W        W34482   5.290   7.832  13.363 -0.0584 -0.4542  0.0511
18409W        W34483   4.898   6.298   2.042  0.3274  0.3992 -0.0541
18410W        W34484   2.762   5.653   2.376 -0.0406  0.1477  0.2540
18411W        W34485   9.906  13.279  15.974 -0.2982  0.1601 -0.2169
18412W        W34486  12.688  16.236   2.842 -0.0780 -0.0200  0.3017
18413W        W34487   1.654   2.203  12.372 -0.0894  0.0233  0.1406
18414W        W34488   5.583  10.590   0.840 -0.0956 -0.0407 -0.3726
18415W        W34489   9.251  11.405   2.510 -0.1069 -0.0400 -0.1715
18416W        W34490  15.000   7.013   2.484 -0.0344  0.3373  0.0096
18417W        W34491  16.952   9.123   6.439  0.3159  0.4638  0.1586
18418W        W34492   3.771   9.440  16.708 -0.0292  0.0837 -0.1683
18419W        W34493  16.651   3.534  13.764 -0.1484  0.3135 -0.2182
18420W        W34494   2.138  15.573  13.227 -0.0329  0.0527  0.0709
18421W        W34495  15.710  13.226   3.416 -0.1413  0.0060  0.2192
18422W        W34496   2.042  16.438   4.477  0.0310 -0.0211 -0.3383
18423W        W34497   7.017   7.366  14.652  0.0271 -0.2542  0.1119
18424W        W34498   5.484   7.450  11.595 -0.2269  0.2711  0.3316
18425W        W34499   6.710   3.663  15.770 -0.2894 -0.2779 -0.0314
18426W        W34500   8.456   4.307   3.021 -0.0961 -0.0884  0.2139
18427W        W34501  12.940  13.083  16.515  0.0334 -0.2029  0.0779
18428W        W34502   4.160  14.169  16.655 -0.0431 -0.1785 -0.2211
18429W        W34503  13.766  16.083  15.736  0.2364 -0.6016  0.0899
18430W        W34504  11.496  13.000   5.317  0.2094  0.1817  0.2881
18431W        W34505   2.228  12.454  14.292 -0.0996 -0.1249  0.0396
18432W        W34506  12.639   2.904   0.794 -0.0883 -0.1099  0.0749
18433W        W34507  15.086   5.253   2.289  0.2781  0.1057  0.1089
18434W        W34508   2.268  17.045   2.172  0.4311 -0.1086 -0.2894
18435W        W34509   1.976  16.191   1.168 -0.1358  0.1742  0.2152
18436W        W34510   3.509   2.039   0.773 -0.1525  0.0542 -0.2513
18437W        W34511   4.282  14.230  12.648  0.1242 -0.1458  0.1914
18438W        W34512   5.629   3.611   3.549  0.3236 -0.0321  0.0396
18439W        W34513  10.943  12.706   4.145 -0.3392  0.0042 -0.0969
18440W        W34514   1.758  15.929  11.974  0.1200  0.0356 -0.0507
18441W        W34515   0.682  11.495   4.508  0.0705 -0.1964 -0.1493
18442W        W34516   4.998  10.824   0.723 -0.5543  0.1704 -0.3827
18443W        W34517   8.597   4.824   3.765  0.1138  0.0063 -0.2656
18444W        W34518   1.650  11.802  16.760 -0.2512  0.4258 -0.2407
18445W        W34519  16.233  11.155   2.547  0.0381  0.0138 -0.0917
18446W        W34520   2.172   5.397  14.226  0.1157 -0.2172  0.3204
18447W        W34521   8.189  16.212  15.227  0.0878 -0.3692  0.0283
18448W        W34522  17.064   3.137   1.083  0.1765 -0.1627 -0.3852
18449W        W34523   9.318   2.349  16.129  0.0000  0.0506 -0.2449
18450W        W34524   3.905  16.342   0.610 -0.0120 -0.1866 -0.1365
18451W        W34525   1.322  11.337  16.298 -0.1959  0.0720  0.0997
18452W        W34526  17.707   0.134  16.286  0.1091  0.2224 -0.1669
18453W        W34527   6.812   3.832   1.639  0.0744  0.0051  0.3576
18454W        W34528   9.785  10.770   3.164  0.1395 -0.0065 -0.0076
18455W        W34529   7.241  13.232  12.153  0.1069  0.1481 -0.0608
18456W        W34530  17.588  10.820  15.711  0.0344 -0.1748  0.1426
18457W        W34531  16.939  12.975   2.806  0.1009 -0.0954 -0.0328
18458W        W34532  16.049  15.793  13.480  0.0424 -0.0941 -0.0692
18459W        W34533  11.796  11.312   1.750 -0.1468  0.0853 -0.2339
18460W        W34534  12.027  15.650   0.205 -0.4059  0.2109 -0.0734
18461W        W34535   1.629   2.085   3.956  0.1680  0.3516  0.1829
18462W        W34536  12.053   1.055   3.332 -0.1043 -0.1379  0.1740
18463W        W34537  13.013   2.764   3.530 -0.0250 -0.2218 -0.1836
18464W        W34538   4.039  10.300  14.785 -0.3071 -0.2276 -0.1810
18465W        W34539   2.433   8.189   2.160  0.3295  0.1824  0.0692
18466W        W34540  16.699  15.035  17.114  0.3444 -0.1773  0.0029
18467W        W34541  17.654  11.670  14.417 -0.0815 -0.0339 -0.1044
18468W        W34542  14.275  10.720   4.643  0.1661  0.0909 -0.0423
18469W        W34543   9.279   0.432   1.728 -0.1748  0.1017  0.1685
18470W        W34544   1.583   9.924   5.665 -0.2100 -0.1319  0.3929
18471W        W34545   4.291   5.653   0.212  0.1679  0.0675 -0.2072
18472W        W34546  11.618   0.191   0.946 -0.2030  0.0561 -0.0681
18473W        W34547   0.879   5.748  14.623 -0.1336  0.1417 -0.0224
18474W        W34548   9.345   1.719   3.644  0.0434 -0.0135  0.0449
18475W        W34549   4.307   7.176  12.248  0.0927 -0.2803  0.0127
18476W        W34550  10.406   5.237  14.705 -0.2371  0.0245 -0.2452
18477W        W34551   6.361   8.976  13.772  0.0103  0.4190 -0.1656
18478W        W34552   9.455  11.086   0.977 -0.0056  0.1493  0.0401
18479W        W34553   2.469  16.385   1.262  0.3063  0.0304 -0.0179
18480W        W34554   1.638   6.021   1.592 -0.0210  0.2453 -0.0810
18481W        W34555  15.100  14.584  13.890 -0.0205  0.0998 -0.0827
18482W        W34556   1.316  12.197   6.271 -0.0061 -0.0308 -0.1721
18483W        W34557  10.026   8.364   5.993 -0.1598  0.0127 -0.0473
18484W        W34558   9.121   0.115   4.289 -0.2346 -0.1373  0.1140
18485W        W34559   8.390   8.990   4.183 -0.1663 -0.0997 -0.1105
18486W        W34560   8.635  14.929   1.496 -0.0080  0.2556 -0.7612
18487W        W34561   6.615  12.742   3.848  0.1396 -0.2221 -0.0589
18488W        W34562   9.966   5.567  13.661  0.1289 -0.0296  0.3217
18489W        W34563   6.797  13.781   5.123 -0.2519  0.3328 -0.2200
18490W        W34564  10.324  13.248  15.609 -0.0672 -0.1387  0.1555
18491W        W34565  14.029  10.769   4.225 -0.2394 -0.0668  0.1410
18492W        W34566   1.715   9.952   0.315  0.3157 -0.0440  0.2145
18493W        W34567  17.424  13.587   5.234 -0.0359 -0.0959  0.3751
18494W        W34568   3.280  16.564   3.082 -0.2271  0.0854  0.1302
18495W        W34569   7.781  15.288  16.079  0.1255  0.0651 -0.0829
18496W        W34570  14.910   5.089   2.943  0.0515 -0.1516 -0.2417
18497W        W34571  15.732   1.262   2.488  0.1748 -0.1674  0.3259
18498W        W34572   7.241   6.305   1.571 -0.2000  0.2000  0.0950
18499W        W34573  14.000   8.785  11.792 -0.1796 -0.1945  0.0247
18500W        W34574  10.874  15.801   5.932  0.0561  0.0625 -0.3071
18501W        W34575   8.967   8.238  16.489  0.0230 -0.1167  0.0602
18502W        W34576   2.339  13.231  15.225  0.0670  0.1379  0.0729
18503W        W34577  17.518  11.224  15.452  0.3247 -0.1530 -0.2382
18504W        W34578   1.938   3.257  14.643 -0.1074 -0.1771 -0.4212
18505W        W34579  15.618   4.305  16.969 -0.5122  0.1548  0.0305
18506W        W34580  12.632   6.151  13.858  0.1734  0.1280 -0.3595
18507W        W34581  17.062   5.056   0.801  0.1967  0.3224  0.2466
18508W        W34582  11.097  14.305  14.792 -0.2389 -0.0088 -0.1923
18509W        W34583   0.263   4.988   6.410 -0.0285 -0.1446  0.1246
18510W        W34584  16.975   2.818  16.236 -0.3519 -0.2706 -0.2864
18511W        W34585  12.540  12.533   1.447  0.1809 -0.0861 -0.0214
18512W        W34586  15.246   8.030  12.402 -0.1957 -0.2912  0.2410
18513W        W34587  11.293  11.673  13.806 -0.2646 -0.0241 -0.2585
18514W        W34588   1.198  14.152   0.594  0.0158  0.0670  0.3919
18515W        W34589   1.585  17.458   5.171 -0.0877 -0.2136 -0.1976
18516W        W34590  15.143  17.010  16.386 -0.2550  0.0009 -0.2712
18517W        W34591  13.104   2.356   3.851  0.0195 -0.0441  0.3458
18518W        W34592   7.285   3.008  13.768  0.1520  0.0255  0.2645
18519W        W34593   1.036  15.085   1.706  0.2273  0.1439 -0.0988
18520W        W34594  12.200  17.579  13.146  0.0605 -0.1069  0.2409
18521W        W34595  13.001   4.984   4.327 -0.2357 -0.0806 -0.3492
18522W        W34596   4.347   1.145  13.473 -0.2665 -0.4337  0.0876
18523W        W34597   2.401   6.818  14.024  0.0575  0.0126 -0.0879
18524W        W34598  15.858  14.167   4.290  0.2262  0.1011  0.0400
18525W        W34599  15.497   7.552  12.199 -0.1919 -0.0930  0.1923
18526W        W34600   8.410  15.854   1.362  0.1114  0.1899  0.2291
18527W        W34601  11.785  13.215   0.388 -0.0052  0.0214  0.1131
18528W        W34602  17.444   6.548   5.149 -0.0391  0.0711  0.0199
18529W        W34603  15.679   9.220   1.057  0.1062 -0.1680  0.0181
18530W        W34604   4.849   8.409  15.787 -0.1153 -0.0897 -0.0526
18531W        W34605   4.669  16.931   3.973  0.2961 -0.1946  0.0891
18532W        W34606   9.602  15.518  16.458 -0.1312  0.0328 -0.1329
18533W        W34607  10.159   2.148  16.942 -0.0231 -0.0533  0.0183
18534W        W34608   0.158  14.104   3.373  0.1826 -0.0761 -0.0765
18535W        W34609  14.710  16.793  13.534  0.1285 -0.0250 -0.2363
18536W        W34610   2.345   5.208   0.666 -0.1606 -0.3465  0.2637
18537W        W34611  16.517  15.159  11.779  0.1680  0.2139  0.1374
18538W        W34612   1.794   4.841   4.807  0.0550  0.2060 -0.1105
18539W        W34613   4.875  15.937  14.665  0.1057  0.1741 -0.0978
18540W        W34614   6.148   0.868   1.264 -0.0266  0.1614  0.4147
18541W        W34615   2.854   4.203   4.126  0.0147  0.1169  0.1084
18542W        W34616   8.649  12.308   0.160  0.4214  0.1937  0.0906
18543W        W34617   8.841  13.418   3.781  0.0002  0.1194  0.1505
18544W        W34618   9.825   6.727   3.251 -0.1178  0.0108 -0.0319
18545W        W34619  14.157  11.578   1.419 -0.0502 -0.0315  0.0521
18546W        W34620  13.703   0.294  15.658  0.0612  0.0082  0.0680
18547W        W34621   3.366   6.733   0.344 -0.3615 -0.0483 -0.1843
18548W        W34622  17.108  12.794  13.002 -0.0830  0.2215  0.0100
18549W        W34623   0.131   7.265   5.763 -0.1376 -0.1019 -0.0901
18550W        W34624   9.245  13.557  13.409  0.1191 -0.1453 -0.2023
18551W        W34625   7.156  17.137   1.558  0.1773  0.0100  0.0629
18552W        W34626  11.319   1.165   2.855  0.1506 -0.1454 -0.2379
18553W        W34627  16.577  13.994  16.842 -0.2537 -0.2749  0.1277
18554W        W34628  17.530   6.557  15.521  0.2326 -0.1733  0.1820
18555W        W34629   1.236  12.555  16.775  0.0966  0.0084 -0.1380
18556W        W34630  17.272  15.772   3.565  0.2259  0.1474  0.2784
18557W        W34631  10.158  17.042  13.607 -0.1256  0.1189  0.2197
18558W        W34632   2.072   2.608   2.301  0.0014  0.0130  0.0686
18559W        W34633   5.184   8.821   0.725 -0.2700 -0.1229  0.0484
18560W        W34634  10.732   1.222  16.734  0.0066 -0.2576 -0.0456
18561W        W34635  13.520   0.409  14.286  0.0063 -0.1765  0.1269
18562W        W34636   4.529  15.313  12.690  0.0935 -0.0649 -0.2454
18563W        W34637   8.668   5.455  14.309 -0.1167  0.4269 -0.0439
18564W        W34638   0.428   5.435   3.963  0.0796 -0.0810 -0.1307
18565W        W34639  17.154  14.101  11.419  0.1278 -0.1509  0.2818
18566W        W34640  10.350  14.216  16.731  0.1616  0.1501  0.1336
18567W        W34641  15.477   8.876   4.368  0.4310  0.1702 -0.2901
18568W        W34642  11.233  10.184  14.803 -0.1718  0.2398 -0.0359
18569W        W34643   7.842   7.048  14.590  0.0588 -0.1626 -0.0181
18570W        W34644   0.542   4.616  13.460 -0.0678 -0.1662  0.0334
18571W        W34645  13.745   1.098  11.967 -0.0443  0.3783  0.2189
18572W        W34646  13.479   6.167  15.787  0.3707 -0.0134 -0.0271
18573W        W34647  16.642  16.370   2.177  0.0527 -0.2328 -0.2670
18574W        W34648   2.852  12.479   5.145 -0.4277  0.2516 -0.2921
18575W        W34649   3.758  15.876  11.335  0.0649 -0.3311  0.0672
18576W        W34650   9.243  10.460  16.344 -0.1626 -0.0221 -0.0279
18577W        W34651   0.176  10.854  17.111 -0.2306  0.0144  0.0991
18578W        W34652  13.979   1.096  16.203 -0.0731  0.0850 -0.0728
18579W        W34653   0.801  15.742   3.110 -0.1356  0.1027 -0.3508
18580W        W34654   8.202  17.163  16.720  0.0700 -0.0964 -0.1524
18581W        W34655   9.541   2.138   1.915 -0.0049  0.0594 -0.0446
18582W        W34656   9.992  17.382   5.444  0.0965  0.0874  0.1272
18583W        W34657   5.631   6.105  14.321 -0.4298  0.1115  0.1143
18584W        W34658   2.506   3.233  11.993  0.0639  0.1834 -0.0578
18585W        W34659  13.528   8.322  11.525  0.0415  0.0832 -0.1165
18586W        W34660   7.119   2.404  12.415 -0.1746  0.0982  0.1022
18587W        W34661  16.934   0.943   4.379  0.0068  0.1830  0.1396
18588W        W34662   3.796  16.684  14.710 -0.2497 -0.2886  0.3503
18589W        W34663  15.156   6.593   0.346  0.1261  0.2155  0.0521
18590W        W34664   8.648  10.445  15.535  0.0391  0.0166  0.0928
18591W        W34665   4.156  12.014  13.165  0.0165 -0.0677  0.1350
18592W        W34666  11.846   1.286   2.764  0.1998 -0.1590 -0.0758
18593W        W34667  12.081  10.265   5.333  0.1497  0.0829 -0.0528
18594W        W34668  12.292   8.539  16.868  0.1490  0.0102  0.2694
18595W        W34669   1.314   2.316   3.401 -0.2021 -0.1624  0.1265
18596W        W34670  11.133   4.627  15.383 -0.0915 -0.2386  0.0119
18597W        W34671   1.803  10.143  15.036  0.2655 -0.1284  0.3121
18598W        W34672  15.469   9.167   0.451  0.1131  0.2370  0.3140
18599W        W34673   0.816   3.615   4.153  0.0186 -0.0069  0.1132
18600W        W34674   0.690   6.299  13.481 -0.1007  0.2877  0.0916
18601W        W34675  15.460   6.820   5.796  0.2856  0.3306  0.1981
18602W        W34676   2.150  11.112   3.286 -0.0014 -0.0834  0.0776
18603W        W34677  15.750   6.348  15.963  0.2197 -0.0438  0.0320
18604W        W34678   5.849  13.188   0.416  0.0379 -0.2062 -0.0633
18605W        W34679   7.288  16.900   4.628  0.1397 -0.0960  0.2378
18606W        W34680  12.711   0.813   5.397  0.1696  0.0491  0.1319
18607W        W34681   1.070  16.620   0.648  0.2342  0.1840 -0.3978
18608W        W34682   7.230   3.774   3.101 -0.1613  0.0481  0.0677
18609W        W34683   0.670  12.656  12.130  0.3736 -0.2148  0.2462
18610W        W34684   8.742  16.157   2.062 -0.1379 -0.5163 -0.1550
18611W        W34685  17.147   0.860   6.348  0.0342  0.3611  0.2805
18612W        W34686   7.064   8.056  16.931 -0.2394 -0.1225 -0.0239
18613W        W34687   0.743  12.794  16.362  0.0006  0.0947 -0.0747
18614W        W34688   8.278   3.595   0.902  0.0692  0.0192  0.2483
18615W        W34689  14.479   3.170   4.979  0.1926  0.0168  0.2336
18616W        W34690  13.325  13.711   3.517  0.1999  0.0123 -0.3692
18617W        W34691  14.837   2.000   4.274 -0.0945  0.3767 -0.0649
18618W        W34692  13.753   2.935   3.254  0.0383  0.2085 -0.1705
18619W        W34693   9.342  17.683   0.992 -0.1038  0.3752  0.3776
18620W        W34694  13.345   0.532   4.865  0.1750  0.1179 -0.0137
18621W        W34695   1.192   0.594  16.121  0.1519  0.0280 -0.2227
18622W        W34696   0.228   8.532  13.516  0.0509 -0.5033 -0.0630
18623W        W34697   7.419  13.806  15.473  0.2936  0.0857  0.2692
18624W        W34698   8.959   9.584  13.008 -0.1950 -0.1762  0.1364
18625W        W34699   9.201  10.130   2.120  0.0196  0.2376 -0.1622
18626W        W34700   3.216   7.474  13.262 -0.1262 -0.0070 -0.0504
18627W        W34701  11.996   0.994  12.339  0.1326  0.0907  0.1147
18628W        W34702   0.452   8.059   5.370  0.0899 -0.3339  0.0522
18629W        W34703   6.861   3.167  15.257  0.2541  0.0162  0.2619
18630W        W34704  14.578   7.634   0.075  0.2351 -0.2195 -0.1509
18631W        W34705   8.997  15.826  16.960  0.0125 -0.1501 -0.0377
18632W        W34706   8.811   9.255  16.362 -0.0083  0.1854  0.0775
18633W        W34707   9.339   4.556  15.083 -0.0640 -0.1127  0.0746
18634W        W34708   2.469  13.166   4.837 -0.2852 -0.2536 -0.2712
18635W        W34709  11.515   0.673  16.700 -0.2584 -0.2376 -0.1211
18636W        W34710   5.511  11.954  13.216 -0.0109 -0.2205  0.0943
18637W        W34711  10.292   5.516  16.115  0.0237 -0.1108  0.2865
18638W        W34712   3.085   6.102  16.846 -0.1596 -0.2355 -0.1061
18639W        W34713   5.074  14.844  15.377  0.2521 -0.1380 -0.1392
18640W        W34714  12.181   7.238   5.300 -0.0458 -0.2830 -0.0365
18641W        W34715  15.697   5.651  13.802  0.1552  0.0230  0.1859
18642W        W34716  11.116   6.169  16.615  0.2629  0.3248 -0.0451
18643W        W34717  14.080  12.520   1.513 -0.0471 -0.2439  0.2830
18644W        W34718  12.635  11.780  11.041  0.0730  0.0360  0.0051
18645W        W34719   3.137  11.622  15.002 -0.0328  0.0545  0.1145
18646W        W34720   9.241   1.913   5.762 -0.0719 -0.1423  0.1141
18647W        W34721   1.403   6.471  12.415 -0.1174  0.1167  0.0513
18648W        W34722   3.098  15.076  12.861  0.2340 -0.1152 -0.0657
18649W        W34723   4.251  12.556  15.029  0.3558  0.1136 -0.0498
18650W        W34724  12.562  17.362   3.509  0.0100 -0.0369  0.0266
18651W        W34725   4.248  12.220  14.664 -0.3968 -0.1878  0.0289
18652W        W34726   1.025  16.720  12.462 -0.0496  0.0838 -0.0268
18653W        W34727   8.656   5.974  15.071 -0.1514  0.1566 -0.0584
18654W        W34728  13.576   0.291   4.343 -0.0820 -0.0652 -0.1584
18655W        W34729   5.800   8.017   0.919 -0.3082 -0.1369 -0.0434
18656W        W34730  12.202   8.157   5.382  0.1323 -0.1459 -0.2751
18657W        W34731   4.498   2.675  13.838 -0.1062  0.1899 -0.1054
18658W        W34732  13.897   5.993   3.454  0.2252 -0.2305 -0.1750
18659W        W34733   0.529   5.547   3.408  0.3123 -0.3071  0.2113
18660W        W34734  16.471   9.553   0.083 -0.0277  0.1234 -0.2542
18661W        W34735   2.039  16.677   1.363 -0.1177  0.2861 -0.1958
18662W        W34736   4.122   1.553   2.810 -0.2824 -0.1461  0.0429
18663W        W34737   1.712  11.436   5.152 -0.0527  0.2284  0.2985
18664W        W34738  10.441  11.617   2.062 -0.3545 -0.0096  0.1358
18665W        W34739   2.648  12.797  13.641  0.0052 -0.1470 -0.0680
18666W        W34740   1.139   2.531   2.958  0.0416 -0.2511 -0.2369
18667W        W34741   4.222   4.478   0.011 -0.3127 -0.2204 -0.0524
18668W        W34742   7.458   7.380   3.870 -0.1828 -0.1672 -0.1234
18669W        W34743   6.062   4.666   0.963 -0.3658 -0.0801  0.2656
18670W        W34744  15.264   4.805  12.124 -0.1781 -0.0234 -0.0374
18671W        W34745   3.253   1.951  12.505  0.0487  0.1393 -0.1395
18672W        W34746   6.829   5.523   0.272  0.1590 -0.1887 -0.1220
18673W        W34747   7.653   2.677   1.143  0.3987 -0.1008 -0.2534
18674W        W34748   3.273  14.649   5.157  0.1053 -0.0317  0.1507
18675W        W34749  10.494   1.400   0.687 -0.0142 -0.1081  0.3594
18676W        W34750   9.740   7.304   5.529 -0.3605 -0.1661 -0.2945
18677W        W34751  12.582   3.795   6.285  0.0516 -0.1321  0.2095
18678W        W34752   1.682   3.509   3.866 -0.0478  0.0800 -0.0245
18679W        W34753  12.472  12.891  14.301 -0.1541  0.1456 -0.1010
18680W        W34754   0.454  10.264   3.374 -0.0140 -0.0645 -0.0043
18681W        W34755   7.241   9.583  12.865 -0.0314 -0.2571  0.1622
18682W        W34756   0.050   8.799  12.600  0.0447 -0.1379 -0.0263
18683W        W34757   2.563   0.631   5.450 -0.0483  0.1870 -0.0073
18684W        W34758   0.355   3.436  16.649 -0.2474 -0.0690 -0.2125
18685W        W34759  17.123  14.697  15.184  0.2298 -0.2099  0.1394
18686W        W34760  11.823   2.598  15.969  0.2229  0.4024 -0.1948
18687W        W34761   1.812   4.233   5.007 -0.3876  0.2435  0.0735
18688W        W34762   7.259   2.364   4.214  0.2739 -0.1214 -0.3178
18689W        W34763   1.705  14.982   4.872 -0.0313  0.1637 -0.0293
18690W        W34764  14.273   2.171  13.865  0.1253 -0.3492 -0.1640
18691W        W34765  17.484  12.014   1.203 -0.2876  0.0512 -0.3795
18692W        W34766   7.503  12.737  14.614 -0.1841 -0.3385 -0.1240
18693W        W34767  15.021   2.811   3.634 -0.1951  0.0247  0.0070
18694W        W34768   3.762   9.754   5.907 -0.1316  0.0877 -0.0822
18695W        W34769   0.504   3.032  16.087 -0.2996 -0.3401  0.1577
18696W        W34770   7.854  15.748  13.546 -0.0364  0.1059 -0.2037
18697W        W34771  12.683  14.555  13.447  0.1441  0.1863  0.2123
18698W        W34772  16.574  14.744  15.437 -0.1182  0.3017  0.2536
18699W        W34773   0.264   6.304   0.310  0.0264 -0.1474  0.0400
18700W        W34774   8.351   0.016   3.434  0.0690 -0.0478  0.0346
18701W        W34775   7.828  17.088   4.478  0.0658  0.1493  0.1640
18702W        W34776   8.065  16.237   4.840  0.2948 -0.3248 -0.1739
18703W        W34777   1.609   7.896   3.793 -0.2017  0.1050 -0.0658
18704W        W34778   0.771   9.645  12.644 -0.2255 -0.0443  0.1563
18705W        W34779  15.440  16.638  12.574 -0.3233  0.1322  0.1181
18706W        W34780   4.241   0.597  11.771  0.0143  0.0031  0.1254
18707W        W34781   7.240  15.944   1.516 -0.2122  0.0370 -0.1818
18708W        W34782  14.483  14.391   2.079 -0.1860 -0.0012 -0.2909
18709W        W34783  15.710  17.394  14.965  0.1484  0.1809 -0.1072
18710W        W34784   3.771   7.336   5.169 -0.1652  0.0271  0.0382
18711W        W34785   0.405   0.141   3.315  0.0940  0.0202  0.0434
18712W        W34786   8.454  17.521  13.908  0.0533  0.1197  0.0151
18713W        W34787   4.762  16.067   0.649  0.1041  0.1076  0.0968
18714W        W34788   1.737   6.038  14.046  0.1289 -0.3108  0.0571
18715W        W34789   9.683  16.263   2.462  0.2655  0.0487 -0.2692
18716W        W34790   7.255   6.037  12.209  0.1444  0.0491  0.3022
18717W        W34791  10.303  11.407   2.526 -0.1761 -0.1573  0.0010
18718W        W34792   3.593  16.292  17.067 -0.0608  0.0561  0.4051
18719W        W34793  17.430  16.695   2.627  0.0939  0.0713 -0.1790
18720W        W34794   5.402   5.241  14.028 -0.1191  0.1779 -0.0671
18721W        W34795   8.976   1.383   2.679 -0.0107  0.0630 -0.1387
18722W        W34796  12.457   9.711   2.330 -0.1364 -0.1972  0.1314
18723W        W34797  17.234   5.636   5.279  0.1510 -0.0585  0.1223
18724W        W34798   3.496   3.828  11.945 -0.0056  0.3437 -0.1465
18725W        W34799  13.137  13.270   3.249  0.0863 -0.2471 -0.1443
18726W        W34800   2.914   2.905   4.129  0.1139 -0.2293  0.1052
18727W        W34801   9.505   8.248  16.002  0.1360 -0.3508  0.0372
18728W        W34802  17.714  16.309  15.983 -0.2403  0.0115 -0.1367
18729W        W34803   5.110   9.827   4.640  0.0938  0.3871  0.1080
18730W        W34804   2.571   2.668  14.188  0.1577 -0.2413  0.1629
18731W        W34805   2.254  12.368   5.812 -0.0663  0.1659  0.2182
18732W        W34806  11.326  16.259   0.603  0.0683 -0.2708 -0.0649
18733W        W34807  13.428   3.306  15.558 -0.3534  0.1396  0.1682
18734W        W34808  12.579   3.767   2.989  0.0454  0.1116 -0.0999
18735W        W34809   5.927  17.565  14.505 -0.0089 -0.2876 -0.0671
18736W        W34810   0.929  14.917  16.462  0.0974  0.2331  0.0984
18737W        W34811   2.166   3.867  13.936 -0.0679 -0.0821 -0.1082
18738W        W34812  16.637   3.950   4.960  0.1108 -0.0985 -0.1127
18739W        W34813  17.550   7.436   2.726 -0.0487  0.1474 -0.1269
18740W        W34814   4.950   9.130  13.487 -0.3802 -0.0863 -0.2214
18741W        W34815  16.304  12.126   4.327  0.0273  0.0906 -0.2153
18742W        W34816   9.004  14.643   3.215  0.0062 -0.4006  0.6213
18743W        W34817  12.844   9.611  16.429  0.2660  0.1750 -0.0829
18744W        W34818   6.566   6.563  14.725 -0.1482  0.0621 -0.0786
18745W        W34819  16.556   8.310  14.935 -0.1934  0.2001  0.0140
18746W        W34820   6.744   1.925  11.780 -0.2880 -0.1710 -0.0938
18747W        W34821   1.616   2.779   4.634 -0.0788  0.3325 -0.4236
18748W        W34822   6.587   8.880  16.516 -0.2033  0.0766  0.0334
18749W        W34823  14.061   6.696   2.244 -0.0083 -0.0606  0.0566
18750W        W34824   9.609   4.772   2.483 -0.0076 -0.1244 -0.3826
18751W        W34825   1.112   0.575   2.952 -0.1666  0.0712 -0.0153
18752W        W34826   8.691  11.902   5.042 -0.1169 -0.1882 -0.0825
18753W        W34827  10.615   7.263   3.099 -0.1269  0.1457 -0.1552
18754W        W34828  11.047   6.312  16.065 -0.1613 -0.1740 -0.2018
18755W        W34829   9.108  14.450   5.789 -0.0218 -0.2306 -0.0286
18756W        W34830  14.855   7.276   4.778  0.2865 -0.0651 -0.3153
18757W        W34831  10.911  12.228   4.351 -0.0277 -0.4690 -0.0480
18758W        W34832   0.441   8.942  16.781  0.1270  0.1058  0.1134
18759W        W34833   2.323   4.041   0.650  0.0021 -0.3103 -0.2872
18760W        W34834   6.430  13.659  14.960 -0.0847 -0.2665 -0.3118
18761W        W34835  10.271   4.236   3.150 -0.5209  0.1411  0.1716
18762W        W34836   3.919   0.235  14.584  0.0129 -0.1128  0.2539
18763W        W34837   3.544   4.127  12.550  0.1916 -0.4575  0.1117
18764W        W34838   6.205   1.513   4.119 -0.1829  0.2783  0.0704
18765W        W34839  16.696   8.659   2.581 -0.0215 -0.0163 -0.1464
18766W        W34840   1.794   5.335  13.103  0.1937  0.3743 -0.1856
18767W        W34841   1.960   1.052   2.833 -0.0733 -0.1888 -0.3381
18768W        W34842   7.352   9.818   4.004 -0.1226  0.1728 -0.1930
18769W        W34843  14.304  15.725  14.100 -0.3502  0.1312 -0.3302
18770W        W34844   2.816  13.740   3.152 -0.0070  0.2569 -0.1871
18771W        W34845   5.244   8.342   3.914  0.1179 -0.3055  0.2123
18772W        W34846   9.236  14.802  12.644 -0.1782  0.0376  0.0099
18773W        W34847   1.498   0.609   5.173 -0.1068  0.0009 -0.0948
18774W        W34848  16.594  11.832   2.035 -0.2659 -0.0572 -0.1035
18775W        W34849   9.401   0.513   1.092  0.0250 -0.2694 -0.1580
18776W        W34850   2.266  16.669  15.220 -0.0080 -0.1235  0.1104
18777W        W34851  16.783  15.640   3.722 -0.1642  0.0925  0.0521
18778W        W34852  14.746  17.724  13.179  0.0033 -0.1259 -0.2607
18779W        W34853   5.666   0.124   3.239 -0.2401  0.2558 -0.1676
18780W        W34854  13.740   2.858  13.886  0.0419  0.4634 -0.0626
18781W        W34855   7.791  12.167  15.198  0.3437 -0.2953 -0.1393
18782W        W34856   1.997  14.520   4.787  0.1593 -0.4033 -0.2085
18783W        W34857   5.625  13.293  14.579 -0.0838  0.2272 -0.2115
18784W        W34858   1.454  16.871   3.914  0.0335  0.2292 -0.0385
18785W        W34859   6.490  15.951   6.083  0.0429  0.2961 -0.0114
18786W        W34860   1.748  11.932   0.356  0.0651 -0.0585 -0.2484
18787W        W34861   8.943  16.946  12.087  0.0606  0.4749 -0.0747
18788W        W34862  13.165  11.312   1.507 -0.0806 -0.1101  0.0598
18789W        W34863   8.221   9.521  12.471  0.1956  0.2173 -0.4525
18790W        W34864  14.658  10.146  17.054  0.0468  0.0264 -0.1992
18791W        W34865   7.791   9.258   1.846 -0.3463 -0.3820 -0.2065
18792W        W34866   9.935  14.406  12.164  0.1335  0.1591 -0.0227
18793W        W34867   7.635   2.825   1.620 -0.0285 -0.1135  0.0062
18794W        W34868   3.708  13.767  12.839  0.1349 -0.0866 -0.1898
18795W        W34869   7.689   7.539  14.347 -0.0138  0.0779  0.1582
18796W        W34870  12.439  16.569   3.800 -0.1703 -0.1112 -0.1043
18797W        W34871  17.225   0.277  13.961  0.3476 -0.0505  0.1905
18798W        W34872  15.104   5.498   0.544  0.0173  0.0232 -0.2846
18799W        W34873  17.382   8.467  16.758 -0.3231  0.4091  0.2765
18800W        W34874  10.818  17.168  14.816 -0.1782 -0.0893 -0.1518
18801W        W34875  17.122   9.985   6.502 -0.0806 -0.0751 -0.1251
18802W        W34876  13.560   6.923  13.012 -0.0036  0.2327 -0.1071
18803W        W34877   9.097   6.687   5.665  0.0691 -0.2442  0.0647
18804W        W34878  10.377   6.450   5.781  0.0975  0.1203 -0.2865
18805W        W34879   0.960  10.355   3.152 -0.2099 -0.0627  0.1869
18806W        W34880  11.200   9.744   1.671 -0.1675 -0.1212  0.0232
18807W        W34881  16.522   2.309  14.077  0.1088  0.0051 -0.0176
18808W        W34882  13.398   0.909  14.683  0.2836  0.2640 -0.0334
18809W        W34883   4.270   3.763  14.763  0.1122 -0.2057 -0.2672
18810W        W34884   5.997   5.677  13.410 -0.0272 -0.0103  0.1522
18811W        W34885  14.250  14.353  13.219 -0.2800 -0.1151 -0.1585
18812W        W34886   9.637   4.091  12.401 -0.1130 -0.0247 -0.2608
18813W        W34887   9.954  16.060   5.380 -0.0306 -0.0013 -0.1322
18814W        W34888   0.329  15.331  15.920 -0.1408 -0.2570  0.1734
18815W        W34889   1.114  15.066   0.768  0.1902  0.2603 -0.2042
18816W        W34890  11.093  10.233   0.453  0.1533  0.0299 -0.3068
18817W        W34891   8.784   4.016   4.960  0.3642 -0.0448 -0.0879
18818W        W34892  11.695  12.788  13.335 -0.1844  0.2216 -0.4310
18819W        W34893   8.194   0.846   3.853  0.0162  0.1783  0.1206
18820W        W34894   4.104  12.534   5.581 -0.0441  0.0032 -0.2316
18821W        W34895   9.686  13.008  15.596 -0.0802 -0.1320 -0.0729
18822W        W34896  16.902   0.551  16.644 -0.2413  0.0575  0.0871
18823W        W34897  16.396   2.018   5.654 -0.1355 -0.0697  0.2675
18824W        W34898   8.319   2.326   1.449 -0.0269 -0.3538  0.2365
18825W        W34899  12.830  13.606  14.623  0.2654  0.2061  0.0576
18826W        W34900  12.803   7.010  13.706 -0.1090 -0.1323  0.0501
18827W        W34901  13.131  10.768   0.463  0.0613 -0.0595  0.2329
18828W        W34902   8.959   7.744  13.912  0.1629 -0.1754 -0.2444
18829W        W34903   2.536   5.846  13.009 -0.0385  0.0120 -0.1864
18830W        W34904   4.871   1.108   4.461 -0.1657 -0.2696  0.1354
18831W        W34905   6.111   8.073  15.665  0.1786 -0.0372  0.1248
18832W        W34906  16.445   2.533   5.531  0.0252 -0.1670  0.3487
18833W        W34907   4.613  12.138  13.040 -0.3437  0.1500  0.3746
18834W        W34908   9.849   6.286  15.221 -0.1727 -0.1547  0.0318
18835W        W34909   3.618  17.549  13.864  0.0766  0.3471  0.0420
18836W        W34910   7.177   8.980  15.392 -0.1267  0.0509  0.2074
18837W        W34911  11.730  13.835   5.921 -0.1797 -0.2821 -0.1874
18838W        W34912   3.669   3.172  14.254 -0.1186  0.2656 -0.1236
18839W        W34913   5.264  14.184  11.943  0.3434 -0.3881  0.0432
18840W        W34914  10.668   0.132   5.540 -0.0462 -0.1133  0.2521
18841W        W34915   9.323  13.644   3.857 -0.0422  0.1393  0.1057
18842W        W34916   9.596  13.622   0.118  0.1343 -0.4130 -0.1378
18843W        W34917  12.626  15.819  15.353  0.1490  0.0365  0.2157
18844W        W34918   8.572   9.000   3.687  0.0436 -0.2363  0.2076
18845W        W34919   9.708   0.838   2.986  0.0907 -0.0504  0.1233
18846W        W34920  15.039  10.080   5.430  0.0626 -0.0712  0.0176
18847W        W34921   9.294   0.487  13.476  0.2832  0.0680  0.0962
18848W        W34922   3.091  17.233   5.326 -0.2475  0.1458 -0.4222
18849W        W34923  12.940  11.539   4.792  0.0620 -0.2950  0.3552
18850W        W34924   7.080   1.422  13.687 -0.0406  0.0155  0.2523
18851W        W34925  10.779   5.249   0.586  0.0707 -0.1900  0.0227
18852W        W34926  12.431   7.805   2.481 -0.2019  0.0736  0.0886
18853W        W34927  12.419  12.670   0.684  0.2291 -0.0432  0.0443
18854W        W34928  10.535   7.729  12.717 -0.1436 -0.0026 -0.2562
18855W        W34929   5.305   4.210  12.803  0.1481  0.1443  0.1640
18856W        W34930   3.691  11.814  13.396  0.0479 -0.0295  0.1846
18857W        W34931   3.746   7.801   5.019 -0.1025  0.1398  0.0223
18858W        W34932   6.001  11.246  11.683 -0.0511  0.0044 -0.1930
18859W        W34933   9.154   4.138   0.739 -0.1468 -0.0585  0.3448
18860W        W34934  11.384   8.089   3.523  0.2467  0.0214  0.2572
18861W        W34935  13.812   5.814   2.110 -0.4628  0.1523 -0.0150
18862W        W34936  12.773  11.904   4.521  0.0504  0.2342 -0.2103
18863W        W34937   6.553   9.643  13.049 -0.2712 -0.0522 -0.0746
18864W        W34938   7.701   5.696  16.959 -0.3102 -0.0100 -0.0631
18865W        W34939   0.336  15.172   2.617  0.1373  0.1125 -0.4363
18866W        W34940  15.191  11.461   5.539  0.2229  0.1494 -0.0519
18867W        W34941  14.889  10.346  11.513  0.2763 -0.3304 -0.1937
18868W        W34942   0.505   0.655   0.240  0.2567 -0.1673  0.1296
18869W        W34943  11.308  16.335  14.301  0.0496  0.1251  0.0877
18870W        W34944   9.756   2.642  16.120  0.2199 -0.0125  0.2924
18871W        W34945  13.567   2.491  16.507  0.0841  0.3150  0.2764
18872W        W34946   7.185   7.127   1.768 -0.0499  0.0110  0.3011
18873W        W34947  12.144   5.381  13.378  0.2636  0.1044  0.2809
18874W        W34948   2.497  13.035   4.166  0.1497 -0.1812  0.0390
18875W        W34949   5.119   1.823  14.630 -0.0818  0.1833  0.0826
18876W        W34950   1.021   0.098  12.411 -0.0316 -0.1907  0.2868
18877W        W34951   1.833  13.332   2.952  0.0019  0.2086  0.2924
18878W        W34952  12.766   5.063   5.999  0.3148 -0.0461  0.2346
18879W        W34953   1.987   0.069  16.364  0.1015 -0.1503 -0.1149
18880W        W34954  14.021  15.426  15.382  0.0384  0.2231  0.1134
18881W        W34955   0.244   3.963  16.862  0.0407 -0.4433 -0.0926
18882W        W34956  12.398   4.312  16.046 -0.3801 -0.2747 -0.0400
18883W        W34957   8.848  16.425  15.945  0.4415  0.3690  0.1398
18884W        W34958   1.322   1.736  16.507 -0.1079 -0.2045  0.6163
18885W        W34959  13.018  12.994  13.715 -0.0964  0.0331  0.1975
18886W        W34960   7.787  16.139   3.084 -0.1017  0.0427  0.2397
18887W        W34961   8.766   5.103   4.724  0.1925 -0.0447 -0.0047
18888W        W34962  11.994   3.298   4.219 -0.0378  0.1137  0.0595
18889W        W34963  17.013   6.548   1.910 -0.0499  0.0871  0.5051
18890W        W34964  12.909   6.229  13.022 -0.0661 -0.0404  0.3849
18891W        W34965  10.009  14.826  15.288 -0.2336  0.4468 -0.0426
18892W        W34966   1.369  10.838   1.076 -0.0761 -0.3375 -0.0559
18893W        W34967  15.227   6.532  12.046 -0.4467  0.1526  0.3486
18894W        W34968   5.478  17.171  16.003 -0.0467  0.2664 -0.0411
18895W        W34969   3.233   0.387  13.149  0.1969  0.0330  0.1643
18896W        W34970   0.122   8.630   0.879 -0.0717  0.0857 -0.3772
18897W        W34971  11.155   3.294   4.435  0.1615  0.2229 -0.0221
18898W        W34972  12.284  16.322  15.271 -0.0662 -0.1904 -0.4063
18899W        W34973  12.949   5.408  16.880 -0.1226  0.0396 -0.0091
18900W        W34974  16.097   4.831  10.716 -0.1806 -0.3199  0.0004
18901W        W34975   7.197  11.986  15.689 -0.1389 -0.0572 -0.0422
18902W        W34976  13.157   3.672  13.086  0.1409  0.2631  0.0103
18903W        W34977  10.494  15.873   4.684 -0.0729 -0.5725  0.2979
18904W        W34978   3.141   5.101  14.782 -0.3091 -0.0842 -0.0033
18905W        W34979  11.843   9.680   2.313 -0.0674  0.1371  0.0872
18906W        W34980   4.333   0.140  16.618 -0.1030 -0.3895  0.0263
18907W        W34981   0.082  15.201   4.463 -0.0129  0.2540  0.0649
18908W        W34982  15.178   8.162  14.305 -0.0828 -0.2094 -0.1243
18909W        W34983   7.751  10.769  12.014 -0.0791 -0.4842 -0.0081
18910W        W34984   2.443   2.033  11.528  0.1151  0.0914 -0.2605
18911W        W34985   3.021  11.960  14.582  0.0884  0.0142  0.0968
18912W        W34986   3.128   3.010   5.464 -0.3786  0.1402  0.0029
18913W        W34987   5.272   7.541   2.215 -0.2251  0.0143 -0.0480
18914W        W34988  11.081  15.433   2.972 -0.1212  0.1538  0.0707
18915W        W34989   3.644   3.368  14.702 -0.0060 -0.2103  0.1352
18916W        W34990  16.672   2.139  15.014 -0.0023  0.1931 -0.1780
18917W        W34991  17.697  17.699   1.396 -0.1699 -0.1034 -0.0264
18918W        W34992   8.909  17.357  15.180 -0.1481  0.2236 -0.3203
18919W        W34993   2.791   7.232   5.485  0.2164 -0.2688 -0.0500
18920W        W34994  16.234  10.593   6.061 -0.1359 -0.0888  0.1544
18921W        W34995   0.249   0.948   2.792  0.1650 -0.2475  0.4549
18922W        W34996  15.833  12.997  14.167  0.1320 -0.0021  0.2138
18923W        W34997   7.101  10.289   0.723 -0.2328 -0.0821  0.2496
18924W        W34998   3.208  17.127   3.595 -0.3563  0.2961 -0.1929
18925W        W34999   6.932  15.609  11.904  0.0118 -0.1737 -0.3544
18926W        W35000  11.783  17.552   5.340  0.0455 -0.1998  0.1207
18927W        W35001   2.675  11.697  13.950  0.0169  0.1851 -0.0242
18928W        W35002  11.540  15.556  12.050  0.0954  0.2075 -0.0479
18929W        W35003  14.842   3.836   2.675 -0.2324  0.1414 -0.0363
18930W        W35004   2.131  11.947   1.172 -0.1095 -0.1374 -0.1673
18931W        W35005  17.134  14.195   3.957  0.1618 -0.1653  0.1966
18932W        W35006   4.023   9.718   1.777  0.0300 -0.0651  0.0995
18933W        W35007   0.949  17.409  12.845 -0.0938 -0.1509  0.0295
18934W        W35008   0.565  10.988  12.281  0.0634  0.2051 -0.0627
18935W        W35009  14.717  13.533   0.285  0.0470 -0.1574  0.1367
18936W        W35010  14.902  14.149   5.657 -0.0111 -0.2095  0.0211
18937W        W35011  16.172  14.053  15.859 -0.0662  0.0007 -0.1403
18938W        W35012  11.275  12.513   3.766 -0.3729  0.0261  0.2019
18939W        W35013   5.114  15.571  12.449 -0.0503 -0.1807  0.1906
18940W        W35014  17.158   2.964   3.045 -0.1721  0.0523 -0.1511
18941W        W35015   9.970   9.927  11.653 -0.0598  0.2985 -0.0658
18942W        W35016   7.858   5.716  14.596 -0.0550  0.3647  0.0411
18943W        W35017  17.510   4.834   3.707  0.2005  0.3178  0.0111
18944W        W35018  15.449   6.147  14.010  0.0580 -0.2306  0.1013
18945W        W35019   6.786   6.907   0.302 -0.0429 -0.2210 -0.0426
18946W        W35020   8.393  17.196   1.745 -0.0398 -0.2306 -0.3479
18947W        W35021   1.662  16.237  12.987 -0.1547 -0.1185 -0.1902
18948W        W35022   3.114  16.625  15.612 -0.3727 -0.1066 -0.3837
18949W        W35023  11.205  16.667  11.686  0.2112  0.2084  0.0084
18950W        W35024  11.701  14.602   3.038 -0.0535 -0.0952  0.1692
18951W        W35025   0.367   2.616  12.068 -0.0679 -0.1662  0.2227
18952W        W35026  11.626   7.793  12.479 -0.0794 -0.0153 -0.0260
18953W        W35027  17.333   0.281   2.836  0.1877  0.3462 -0.0855
18954W        W35028   3.391   5.659  16.807  0.1040 -0.3094  0.0016
18955W        W35029   1.977   3.517  12.691  0.0048  0.1212  0.1736
18956W        W35030   9.116   7.802   0.398 -0.1407  0.1080 -0.5633
18957W        W35031  15.714   0.005  13.044  0.0072 -0.2085 -0.0490
18958W        W35032   3.605   2.895   5.224  0.1522 -0.3066  0.0346
18959W        W35033   3.604  10.907  13.862  0.0975  0.1186 -0.1499
18960W        W35034   4.971  15.891  11.929  0.1881  0.0587 -0.1322
18961W        W35035  17.291   0.239  13.243 -0.0356  0.0099  0.0485
18962W        W35036  15.320   6.723  13.215 -0.1744 -0.3391  0.1346
18963W        W35037  10.305   6.864  15.831  0.0383  0.0874  0.3153
18964W        W35038  17.671   0.248  13.594  0.0682 -0.0048 -0.3550
18965W        W35039   0.642   6.361   3.864 -0.1569 -0.1264 -0.0802
18966W        W35040   8.228   6.729   0.163 -0.3632 -0.0995  0.0907
18967W        W35041   7.261   2.064  16.228  0.0169  0.1961 -0.0172
18968W        W35042   3.038  15.248   3.396 -0.0417  0.0875  0.1586
18969W        W35043  11.018  12.077  14.991 -0.2279  0.2432 -0.1079
18970W        W35044   6.045   1.072   0.815  0.2468 -0.3289 -0.0239
18971W        W35045  12.689  12.815   4.181 -0.0289  0.0969  0.2295
18972W        W35046   9.226   3.534  13.743  0.0090 -0.0734  0.2490
18973W        W35047   4.617  16.411  14.158 -0.0266 -0.1401 -0.1698
18974W        W35048   3.486  17.708  14.367 -0.2906 -0.4073 -0.1963
18975W        W35049   5.004   0.978  11.776 -0.0463 -0.0650 -0.2556
18976W        W35050   6.902   8.666   2.354 -0.1032  0.0631 -0.0264
18977W        W35051   6.494  15.608   3.584  0.0954 -0.0940  0.1296
18978W        W35052   2.313   8.005  16.412 -0.0724 -0.0023  0.2432
18979W        W35053  16.315  16.189   2.517 -0.1077  0.0723  0.1808
18980W        W35054   2.269  11.374  13.982 -0.2957 -0.0309 -0.1992
18981W        W35055   1.294  15.752   4.672  0.0331 -0.2789  0.2404
18982W        W35056   4.645  12.759  12.368  0.1598 -0.1209 -0.3622
18983W        W35057   3.658   7.744   3.748  0.0739 -0.0994 -0.2131
18984W        W35058   0.384   9.989  12.805  0.1476  0.2284 -0.0922
18985W        W35059  11.979  10.466  13.783  0.0884 -0.1216  0.0726
18986W        W35060   1.020   4.944  15.193  0.0688  0.3738 -0.1606
18987W        W35061  13.911  15.965  13.187 -0.1114  0.2124 -0.0885
18988W        W35062   3.498   9.425   1.672  0.0914  0.1011 -0.0574
18989W        W35063   2.970  10.604  15.740  0.2633  0.2608 -0.1583
18990W        W35064  17.482  11.964  13.184 -0.1106  0.0563  0.2001
18991W        W35065   8.609   8.656  13.411  0.0909 -0.0330  0.3903
18992W        W35066   3.689   3.223   6.736  0.1514  0.0924  0.1986
18993W        W35067   3.021   0.707  14.135 -0.1968 -0.3119  0.1362
18994W        W35068  13.469  13.658   3.015 -0.1566 -0.3477  0.1902
18995W        W35069   7.955   9.920  13.107 -0.0937  0.2373 -0.0392
18996W        W35070  13.649  12.691   4.474  0.0671 -0.1865 -0.1131
18997W        W35071  14.509  15.375  12.894  0.0651  0.1654  0.3489
18998W        W35072   6.011  11.582   3.722  0.1689  0.1040 -0.2542
18999W        W35073   5.666  15.943   3.708 -0.3118  0.0026  0.1761
19000W        W35074   1.467   5.167   4.918 -0.2304 -0.0023 -0.0142
19001W        W35075  16.334   3.506   3.881  0.0548 -0.1074  0.0599
19002W        W35076  11.648   5.434  13.076  0.0826 -0.1398  0.1069
19003W        W35077   9.058   7.270  12.787 -0.0750 -0.1994 -0.2806
19004W        W35078  10.445  15.723   0.888 -0.1031  0.3159  0.0062
19005W        W35079   8.818   2.369   1.346 -0.1596  0.2004 -0.1562
19006W        W35080   7.776  16.751  12.029  0.1365  0.0119 -0.1195
19007W        W35081  10.058   5.642   0.499  0.0408 -0.1257 -0.0258
19008W        W35082   4.648  14.175   4.727 -0.2453  0.0479  0.2315
19009W        W35083  11.418  17.207  16.393 -0.2722 -0.0623  0.0619
19010W        W35084   1.906  15.077   3.059  0.1666 -0.0330  0.1289
19011W        W35085   9.541  12.593  13.516  0.2303 -0.0636  0.0017
19012W        W35086   8.171  15.670   5.484 -0.0669  0.0115 -0.1612
19013W        W35087   4.224  16.669  13.967  0.4263 -0.0753 -0.1032
19014W        W35088   8.445   1.496  14.940  0.0353  0.0015  0.2594
19015W        W35089  12.393   5.732  13.737  0.2096 -0.2722  0.1151
19016W        W35090  11.368  12.257  12.804 -0.2668 -0.3002  0.1529
19017W        W35091   5.050  16.696   5.173 -0.1640  0.4124  0.1413
19018W        W35092  16.881   0.479  14.698 -0.0235 -0.5756 -0.0910
19019W        W35093   9.581  11.725   3.549 -0.1678  0.0377 -0.0333
19020W        W35094   8.925  15.867  15.878  0.3856  0.3690  0.2518
19021W        W35095   5.803   6.764  15.926  0.3779 -0.2801  0.1066
19022W        W35096  13.026  10.813   2.068  0.3037 -0.3489  0.0888
19023W        W35097  10.723  14.636  16.491 -0.0341 -0.1073  0.1448
19024W        W35098  16.358  16.536   0.125 -0.0541  0.2159 -0.0617
19025W        W35099  10.078   7.534   0.932 -0.0632  0.1811  0.1215
19026W        W35100   6.963   1.642   3.715 -0.4877  0.0005  0.0811
19027W        W35101   2.990  14.658   1.207  0.1074 -0.0637 -0.3183
19028W        W35102  16.567   4.921  15.497 -0.0979  0.3794 -0.0289
19029W        W35103  11.355  11.327   5.229  0.0634  0.0174 -0.1531
19030W        W35104   8.622  17.264   5.385  0.1926  0.0729  0.2102
19031W        W35105  16.765   2.803   4.594 -0.0128 -0.3774 -0.1068
19032W        W35106   8.381   6.153  16.732  0.1159 -0.1359 -0.0647
19033W        W35107  12.776   8.862   0.906  0.1783  0.0532  0.3350
19034W        W35108   5.868  11.071  14.235  0.2650  0.2533 -0.2130
19035W        W35109  11.413   6.660  14.985 -0.1313  0.3511  0.0723
19036W        W35110   7.525   7.409  14.792 -0.1948 -0.5990 -0.0165
19037W        W35111  16.755   8.999   5.480 -0.0221 -0.0237 -0.2625
19038W        W35112   6.811   5.255  12.555  0.1827 -0.0833  0.1051
19039W        W35113   5.698  12.002   3.924 -0.0507 -0.0187  0.2436
19040W        W35114  13.334  12.437   4.179  0.0108  0.1990 -0.2368
19041W        W35115  12.398  15.795   0.569 -0.0117 -0.1744 -0.0757
19042W        W35116  15.914  17.535   4.287  0.1055  0.1124 -0.3321
19043W        W35117  13.695  15.220  12.810 -0.0218  0.2042  0.0798
19044W        W35118  16.883  12.680  17.001  0.0495 -0.0216  0.0899
19045W        W35119   8.486   6.187   2.699 -0.1486  0.1816  0.1682
19046W        W35120   3.656  14.155   6.303  0.2323 -0.1519 -0.2280
19047W        W35121   6.463   7.661  13.331  0.2446 -0.2627 -0.1044
19048W        W35122   8.649   0.652  11.809 -0.2395  0.1735 -0.0321
19049W        W35123  16.540   7.628  14.275 -0.2273 -0.2488 -0.1136
19050W        W35124  15.414   9.717  13.833 -0.1157 -0.1881 -0.0232
19051W        W35125   0.364   4.151   3.677  0.0752  0.0571 -0.1772
19052W        W35126   3.065   5.838  12.385 -0.4585  0.1659 -0.1722
19053W        W35127  15.897   8.701   4.787 -0.3723 -0.1302  0.0923
19054W        W35128   9.822  10.224  16.563 -0.0646 -0.2014  0.1067
19055W        W35129   2.927  13.781  12.087  0.0648 -0.0582  0.0266
19056W        W35130  16.538   7.817   1.863 -0.1156 -0.0572  0.1230
19057W        W35131   3.589   4.633  14.704  0.2324  0.0418  0.0355
19058W        W35132  10.206   6.655  12.625  0.2769 -0.0926 -0.0292
19059W        W35133   9.895  15.236  16.100 -0.2390  0.1881  0.0043
19060W        W35134   6.064   9.557   4.054 -0.1247 -0.1672 -0.0128
19061W        W35135   6.273  11.701   5.570  0.1421 -0.0303 -0.5059
19062W        W35136   8.435  11.526  16.360  0.0187 -0.1796  0.0014
19063W        W35137   3.348  17.079  10.939 -0.0908 -0.0665  0.0781
19064W        W35138  13.022  14.272   5.239 -0.1223  0.1440 -0.1988
19065W        W35139   4.404   0.234  17.099 -0.1357  0.1682  0.2214
19066W        W35140  15.191   4.240   5.070 -0.1689 -0.2288 -0.1748
19067W        W35141   5.724  16.079  14.646  0.3172 -0.1849 -0.2960
19068W        W35142  12.277   2.318   5.928 -0.0920  0.2159  0.3606
19069W        W35143  17.071   4.665   5.487  0.0269 -0.0194 -0.0982
19070W        W35144   5.553   7.852  16.888 -0.0411  0.3178 -0.1176
19071W        W35145  11.867  13.018   5.642 -0.1434 -0.2273 -0.1500
19072W        W35146  13.063   2.618  12.331  0.1136 -0.0563  0.1212
19073W        W35147  15.555  17.183   4.998  0.2082 -0.0167 -0.2291
19074W        W35148   9.572   0.066   4.053  0.0896 -0.0108  0.1393
19075W        W35149   1.191  11.089  15.239 -0.0432 -0.2546 -0.0312
19076W        W35150   3.246  10.009  12.893 -0.3570 -0.0878 -0.0017
19077W        W35151   5.698  16.380   2.778  0.0442  0.0581  0.4515
19078W        W35152   3.503   0.796  13.933 -0.1281  0.2753  0.3180
19079W        W35153   6.424  17.638  14.520 -0.1978 -0.0631  0.2931
19080W        W35154   9.766   9.319   1.012  0.0696  0.1724  0.0469
19081W        W35155  14.823   9.737  16.783  0.0464  0.0649 -0.1615
19082W        W35156  15.847   5.405   5.661 -0.0410  0.0025 -0.0587
19083W        W35157   3.152   1.860   2.175  0.3787 -0.1649 -0.1180
19084W        W35158  13.468   8.956  16.202 -0.3199 -0.0895 -0.0841
19085W        W35159  17.622  16.634   4.149  0.2735 -0.0233  0.1080
19086W        W35160   5.635  10.823  15.205  0.1455 -0.2189  0.1433
19087W        W35161  11.034   9.269   2.268 -0.1379  0.0227  0.0008
19088W        W35162  10.403  15.889  15.578  0.2849  0.3341 -0.2009
19089W        W35163  10.918   5.149  15.476  0.0638  0.0222 -0.2392
19090W        W35164  16.143  11.086   5.516  0.1964 -0.0043  0.1809
19091W        W35165   1.711  15.360  16.715 -0.0554 -0.2229  0.0931
19092W        W35166  16.679   5.869  16.784  0.0732 -0.0263  0.2579
19093W        W35167   0.932  15.314  16.880  0.2277  0.3948 -0.0115
19094W        W35168   6.685   4.542  13.219  0.0817 -0.0363 -0.0598
19095W        W35169   8.793  12.423   1.475 -0.2006 -0.1037 -0.1320
19096W        W35170   8.919   0.067  16.257  0.1876 -0.0534  0.1874
19097W        W35171   0.108   4.638   5.808  0.1702  0.2698  0.0065
19098W        W35172   2.159   9.993  16.142 -0.1030  0.1135  0.2452
19099W        W35173   5.396   8.095   1.173 -0.2104 -0.2176 -0.4890
19100W        W35174  11.601  10.201  16.892 -0.1201  0.1238  0.3142
19101W        W35175   6.569   5.452   4.196  0.0054 -0.1536 -0.0163
19102W        W35176   8.614   8.272  13.004  0.1006  0.1878  0.1919
19103W        W35177   3.464   1.322   6.206  0.4264 -0.1442  0.2671
19104W        W35178  11.551  12.223   0.736 -0.1396 -0.0913 -0.1637
19105W        W35179  15.491  12.992  11.691  0.0257 -0.2279 -0.0431
19106W        W35180  11.806   6.569  16.148  0.0834  0.0376  0.1622
19107W        W35181   8.595   6.392   5.721  0.0783  0.2715 -0.0815
19108W        W35182   4.597  11.681  13.168 -0.1955 -0.1043 -0.1094
19109W        W35183  16.842  15.772   0.113  0.3409 -0.0664 -0.1349
19110W        W35184   8.903  14.146  14.996  0.0174  0.0657 -0.0202
19111W        W35185  14.299  12.240  12.589 -0.0137 -0.0204 -0.0816
19112W        W35186  14.281   9.134   4.052 -0.1610 -0.0608 -0.5885
19113W        W35187  12.034   7.305   2.248  0.1690  0.2508  0.1983
19114W        W35188   6.114   6.462  13.825 -0.0477 -0.2873 -0.1442
19115W        W35189  15.661  11.034   5.542 -0.1233  0.1053  0.0509
19116W        W35190  14.916  13.455  11.577 -0.0087  0.0273  0.2135
19117W        W35191   9.453   1.050   4.500  0.1791 -0.0533  0.2464
19118W        W35192   7.537  11.218  16.965 -0.1332 -0.1486 -0.2614
19119W        W35193   3.293   5.853   4.699 -0.0972 -0.3127  0.2544
19120W        W35194   2.108   2.041   4.066 -0.1119  0.1691  0.2405
19121W        W35195  16.864   2.214  16.739  0.0734  0.3125 -0.2172
19122W        W35196  13.966   5.528   1.425 -0.2356 -0.1451 -0.0367
19123W        W35197   7.642   6.204   4.487 -0.0580  0.1246  0.3609
19124W        W35198   7.535   8.048  15.606 -0.3085 -0.4219 -0.0759
19125W        W35199  17.264   0.507  17.109  0.2176 -0.1666  0.2146
19126W        W35200  14.825  14.780   0.293  0.1433 -0.0591  0.1604
19127W        W35201  11.858   3.866   4.315  0.2365  0.1119  0.0598
19128W        W35202  13.288  16.901  17.066  0.2159 -0.2390 -0.0202
19129W        W35203   4.469  15.695   5.805  0.1129 -0.1152 -0.3052
19130W        W35204   4.690   1.183   1.088 -0.1981  0.0046 -0.2282
19131W        W35205  13.312  14.568   1.975 -0.0016 -0.0813  0.0490
19132W        W35206  12.113   0.456   0.738  0.2022 -0.4012 -0.1093
19133W        W35207   1.113   2.986   5.787  0.0789  0.0060  0.2188
19134W        W35208   3.546   4.738  13.260  0.0521  0.1420  0.0274
19135W        W35209   3.465   9.593  12.589 -0.0696  0.0159  0.0206
19136W        W35210  10.044   4.034  15.252 -0.2014 -0.0570 -0.2052
19137W        W35211   3.839   8.492  14.399 -0.1306  0.1431  0.1590
19138W        W35212   6.149   1.532   2.014 -0.0905  0.0454  0.1936
19139W        W35213   5.714   7.304   2.123 -0.4644 -0.1725  0.1149
19140W        W35214   6.807   3.830   3.541 -0.1454  0.1982  0.0479
19141W        W35215   0.235  11.229  16.623 -0.3203 -0.1543 -0.1215
19142W        W35216   6.198   9.633   2.639 -0.3620  0.0243 -0.1048
19143W        W35217   0.529  10.550   4.899 -0.1292  0.0684  0.0935
19144W        W35218   4.474   8.380   5.407 -0.1114 -0.0776  0.0986
19145W        W35219  14.786   8.881   2.811 -0.0788 -0.5398  0.4278
19146W        W35220  12.683  11.143   4.993 -0.0550 -0.0043  0.0063
19147W        W35221   2.603   9.456  14.256  0.1010 -0.2252  0.1039
19148W        W35222  14.698  14.581   1.179  0.1194 -0.1432  0.0602
19149W        W35223  14.503   2.329   1.374  0.1308 -0.0515 -0.2118
19150W        W35224   3.132  12.811  14.805  0.2925  0.0008 -0.0707
19151W        W35225   7.945   9.724   5.136 -0.0551 -0.2538 -0.2012
19152W        W35226   1.296   1.742  12.057 -0.1621  0.2372  0.1358
19153W        W35227   0.467   4.988   0.975  0.2113  0.3481  0.2093
19154W        W35228   2.046  12.712   1.972 -0.0304  0.2251  0.0951
19155W        W35229  10.951  17.025   1.819 -0.0743  0.0193  0.1306
19156W        W35230   6.146   6.705  13.300 -0.3726  0.2870  0.4375
19157W        W35231   7.759  14.644  13.871  0.3118  0.0251 -0.3871
19158W        W35232   6.794   2.206  16.139  0.0983 -0.1756 -0.1352
19159W        W35233   3.305  10.393   2.954  0.0761 -0.2548 -0.3465
19160W        W35234   0.084  17.095   4.025 -0.0383  0.1168  0.2896
19161W        W35235  13.074   1.986   2.427 -0.0618  0.0559 -0.0006
19162W        W35236  15.356   6.650  13.723 -0.0576  0.2360  0.1880
19163W        W35237  13.665   9.274  16.577 -0.1954  0.2109  0.3135
19164W        W35238  12.212  17.539   2.713 -0.0694 -0.0235 -0.1740
19165W        W35239   3.739   5.503   5.549  0.1532 -0.1308 -0.1292
19166W        W35240  15.982   9.266  15.721 -0.0807 -0.1714 -0.3296
19167W        W35241   1.368   7.974   1.050  0.5879  0.1928 -0.1423
19168W        W35242   3.730  16.776  16.774  0.3817  0.1408  0.0161
19169W        W35243   0.306  16.552  16.979 -0.0893  0.2161  0.0557
19170W        W35244   8.230   0.784   1.239  0.1675 -0.2855  0.1062
19171W        W35245   6.025   4.194   3.385  0.0214  0.1161  0.2456
19172W        W35246  12.466   0.771  16.053  0.2246  0.3617 -0.1388
19173W        W35247   1.589   5.698  16.507  0.0797 -0.1705 -0.0138
19174W        W35248  16.591   3.058   5.550  0.1822  0.0816  0.1377
19175W        W35249  11.066  12.589   0.198 -0.1922 -0.0515  0.2626
19176W        W35250   7.072  17.568  15.795 -0.2226 -0.2000  0.3417
19177W        W35251  13.760  17.660   6.424 -0.2130  0.0525 -0.2829
19178W        W35252  13.153  16.813   0.872  0.1404 -0.0162 -0.0103
19179W        W35253   1.946   0.827   5.401 -0.1430  0.0846  0.0783
19180W        W35254   1.811  12.680  12.962 -0.2264  0.1858  0.2155
19181W        W35255   0.720  13.322  13.751  0.2190  0.0552 -0.0547
19182W        W35256   1.116  17.538   4.061 -0.0153 -0.1481 -0.1561
19183W        W35257   7.271   8.302  12.858  0.5002  0.3010  0.1857
19184W        W35258  10.169   2.515  13.837 -0.0071  0.0140 -0.0766
19185W        W35259   7.388   3.307   3.016 -0.0144  0.1610 -0.0331
19186W        W35260  12.617  14.360   0.595  0.0811  0.1970  0.1684
19187W        W35261  14.812  10.472   2.091 -0.1760 -0.2265  0.2135
19188W        W35262  13.761  16.767   4.473 -0.0497  0.1678 -0.0037
19189W        W35263   2.247   3.572  15.618 -0.1312  0.1922  0.0470
19190W        W35264  15.161   4.564  14.687  0.3492 -0.2119  0.0099
19191W        W35265  12.721  11.545  17.113 -0.1537 -0.1321 -0.1813
19192W        W35266   7.177  10.603   5.829  0.1121 -0.1856 -0.2700
19193W        W35267   4.553   5.338   1.875  0.0166  0.2400  0.4060
19194W        W35268  15.601   0.332  16.678 -0.0789 -0.3541  0.0516
19195W        W35269  12.560   7.429  15.583 -0.1632 -0.1960  0.0898
19196W        W35270  11.732  12.767  13.865  0.0210  0.1691  0.1500
19197W        W35271  10.416   1.608  14.167  0.0267  0.0271  0.0263
19198W        W35272   6.546   3.026  14.237 -0.0917  0.3427 -0.0852
19199W        W35273  16.383  15.536   0.965  0.0012 -0.0878 -0.1536
19200W        W35274   3.102  10.766  11.845 -0.0858  0.0560  0.2762
19201W        W35275   3.234   9.279  11.993 -0.1066 -0.3354  0.2271
19202W        W35276  15.000  10.237   0.700  0.1709  0.3088  0.3503
19203W        W35277   7.638  17.448   3.258  0.0593 -0.0848  0.0223
19204W        W35278   3.962   4.446   5.018 -0.0877 -0.4041  0.2486
19205W        W35279  15.881   3.958  16.112  0.1253 -0.2815  0.0788
19206W        W35280   7.397  12.022   4.751  0.0002 -0.1490 -0.2522
19207W        W35281   3.500   5.343  15.285 -0.1250 -0.0511  0.0370
19208W        W35282  12.328  11.311  12.161  0.3991 -0.2090 -0.0401
19209W        W35283  10.789  12.610   1.619 -0.0320  0.1171  0.2232
19210W        W35284   4.872   7.907   3.898 -0.1047 -0.3501 -0.3354
19211W        W35285   4.662  14.716  15.665 -0.0541 -0.3115 -0.1715
19212W        W35286   5.444  14.783   2.041 -0.0335  0.0012 -0.1238
19213W        W35287   4.440   9.123   4.498  0.1980 -0.0472  0.1790
19214W        W35288  10.343  14.485   0.239  0.3194 -0.1229 -0.1784
19215W        W35289   2.245  11.028  16.480  0.2160  0.1260 -0.2124
19216W        W35290   4.865   2.029   6.029  0.1199  0.0130  0.0211
19217W        W35291  12.904  11.706   1.804 -0.0629 -0.2113  0.3491
19218W        W35292  16.195   0.393  15.402  0.0126 -0.1087  0.0970
19219W        W35293   4.915   8.987  12.478 -0.0495 -0.1112  0.0841
19220W        W35294   4.219  13.132   1.209 -0.1967  0.0978 -0.0517
19221W        W35295  16.827  14.384  16.574  0.1636  0.1483  0.3833
19222W        W35296  10.641  13.843   5.355 -0.0814 -0.0984 -0.0592
19223W        W35297  10.945  16.699   3.440 -0.1874 -0.2734 -0.0050
19224W        W35298   3.537   6.087  14.253 -0.0451  0.2211  0.1973
19225W        W35299   6.467  14.361   6.357 -0.0951 -0.0592  0.2082
19226W        W35300  10.676  14.354  13.643  0.0210  0.1218  0.0838
19227W        W35301   9.192  16.767   2.197  0.2245  0.0485  0.0691
19228W        W35302  13.838   1.483   2.255  0.2083 -0.1515 -0.2914
19229W        W35303   2.037   3.629  16.930  0.2196 -0.0681 -0.1159
19230W        W35304   7.697  14.359   0.597 -0.1615  0.0248  0.0947
19231W        W35305   3.931  16.692  15.240 -0.1497 -0.0707 -0.1372
19232W        W35306  12.701   1.107   5.866  0.1651  0.1970  0.4039
19233W        W35307  13.960  13.052  14.515  0.0392 -0.1045 -0.0964
19234W        W35308  14.437   2.790  16.863 -0.1302  0.2027  0.1768
19235W        W35309  12.467  17.091  14.607 -0.0067 -0.2878 -0.0306
19236W        W35310  13.246   7.675  17.047  0.0730 -0.0424 -0.1566
19237W        W35311  16.912  15.064  12.556 -0.1945  0.0108 -0.0280
19238W        W35312  16.043   2.835  15.199 -0.1088 -0.0086 -0.1614
19239W        W35313  17.063  11.679  16.631 -0.2315 -0.0909 -0.1423
19240W        W35314   5.167   5.138  16.571  0.1148  0.1914  0.1740
19241W        W35315   7.588   3.158   3.823 -0.0152  0.2619  0.1054
19242W        W35316  12.379   4.302   4.828  0.1033 -0.0384 -0.2187
19243W        W35317  10.717   5.591  16.421  0.1514  0.1233  0.3403
19244W        W35318  15.595   2.248  14.948  0.0860 -0.0608 -0.2537
19245W        W35319   5.447  11.812   3.032  0.0013 -0.0905 -0.0069
19246W        W35320  13.545   5.038  12.842 -0.2492 -0.0732 -0.2962
19247W        W35321  12.912   2.509   0.537  0.1749 -0.0419  0.2715
19248W        W35322  16.304   2.078  12.167 -0.0628  0.0376 -0.1243
19249W        W35323   8.751  13.953  12.742 -0.0733  0.0147 -0.1033
19250W        W35324   9.863   9.785  16.825 -0.1754 -0.3952  0.1411
19251W        W35325  13.872  17.021   3.120  0.0447  0.2618  0.0361
19252W        W35326   1.216   9.216  13.417  0.0094 -0.3632 -0.0597
19253W        W35327   1.044   2.760  13.250 -0.1028  0.4429 -0.0750
19254W        W35328  12.745  14.092   5.647 -0.0816  0.2600  0.1139
19255W        W35329  16.138   6.819   1.972 -0.0094  0.0077  0.5298
19256W        W35330   9.571   0.491  15.688  0.0598 -0.0494 -0.0148
19257W        W35331   5.765   7.275   4.280 -0.3511 -0.0676  0.1126
19258W        W35332   3.283  16.128   0.856 -0.1019  0.2800 -0.1797
19259W        W35333  15.144  13.474   0.720  0.1031  0.0590  0.1464
19260W        W35334   1.392  13.438  12.954 -0.1312 -0.1850  0.0731
19261W        W35335   2.051  16.359  16.989  0.2637  0.1513 -0.1387
19262W        W35336   3.000  17.306  11.660 -0.0638  0.0128 -0.0702
19263W        W35337  15.690  14.931  14.279  0.1287 -0.0822 -0.0526
19264W        W35338  12.977  10.210   5.146  0.1634 -0.1717 -0.1304
19265W        W35339   4.634  10.751   3.333  0.0499  0.1795 -0.0024
19266W        W35340   4.678   0.933  15.991  0.2896  0.3647 -0.0512
19267W        W35341   2.401   4.111   4.965 -0.0122 -0.1930  0.0403
19268W        W35342   0.636  10.689  12.707  0.0835 -0.0880 -0.1489
19269W        W35343   1.313   9.685   0.383  0.1814 -0.0283 -0.2453
19270W        W35344  10.100   0.398   4.351  0.0628  0.2695 -0.1711
19271W        W35345   4.488   1.052  15.026  0.0766  0.2540  0.0439
19272W        W35346   6.296   3.827  15.334 -0.0145  0.1898 -0.1239
19273W        W35347  13.817  14.711  13.141 -0.0084  0.0779 -0.3384
19274W        W35348  15.747  15.154   0.522 -0.1075 -0.0508 -0.1589
19275W        W35349  17.083   7.986   4.503 -0.3606  0.2673  0.0460
19276W        W35350   1.472   8.742   1.209  0.0152 -0.1928 -0.2911
19277W        W35351   9.427  11.186   1.500 -0.1566  0.2169 -0.1374
19278W        W35352   1.674   7.395   3.717 -0.2109 -0.0084  0.0350
19279W        W35353  15.979  13.958  14.938  0.1306  0.2373 -0.0990
19280W        W35354  14.980  10.688  15.232 -0.0505  0.0506  0.0739
19281W        W35355   6.226   8.025   4.334  0.0054 -0.0624  0.0230
19282W        W35356   3.134   5.624  15.423 -0.2075 -0.0341 -0.3974
19283W        W35357  14.824   8.331   4.239  0.1163 -0.1030  0.2311
19284W        W35358   8.586   0.615  15.529  0.1590 -0.0702 -0.1677
19285W        W35359   2.424   0.897  13.299  0.1137 -0.0568 -0.0997
19286W        W35360   2.244   5.677   2.350 -0.2138 -0.0604  0.1983
19287W        W35361  10.955  13.972  11.727 -0.2518 -0.0835  0.1120
19288W        W35362   4.337   9.754   4.649  0.1433 -0.0907 -0.3206
19289W        W35363   4.310   1.732  13.427  0.2677 -0.0927 -0.3974
19290W        W35364  10.532  15.995   2.676  0.0926  0.0161  0.2702
19291W        W35365  10.607  16.374   3.046 -0.2078  0.0331 -0.0032
19292W        W35366   9.876   3.744   5.571 -0.1423  0.0022  0.0675
19293W        W35367  16.655  17.238  13.520 -0.0909 -0.0116 -0.2322
19294W        W35368   1.320   6.382  16.281  0.1809 -0.1137 -0.0259
19295W        W35369   4.124   9.054  15.119 -0.0165 -0.1119  0.2255
19296W        W35370  17.053   9.045  15.243 -0.4112 -0.0946  0.1230
19297W        W35371  10.436   1.275   0.153  0.0442  0.2560 -0.0566
19298W        W35372   6.107  12.920   3.157  0.1277 -0.3106  0.0024
19299W        W35373   7.075  16.894   3.748 -0.1676 -0.0891 -0.1062
19300W        W35374   3.958  11.888   2.990 -0.1673  0.3250 -0.3702
19301W        W35375  16.019   7.360  15.084 -0.0465 -0.0462  0.0929
19302W        W35376   6.760   7.967  16.513 -0.0699  0.0239 -0.1850
19303W        W35377   1.699  15.894   5.088  0.0100  0.3285 -0.0683
19304W        W35378   7.871   0.204  14.865  0.2102  0.1695 -0.0434
19305W        W35379   6.152  11.586  15.400 -0.1176  0.3316 -0.1047
19306W        W35380   2.363  14.455   3.311 -0.0655 -0.1855  0.1043
19307W        W35381  12.283  12.280  15.579 -0.2588 -0.1539  0.0611
19308W        W35382   0.261   8.150  15.148 -0.4408 -0.0103  0.2546
19309W        W35383   4.915   4.293   3.373 -0.0125  0.4139  0.0211
19310W        W35384   7.176  16.534   2.921 -0.0853  0.1324  0.1031
19311W        W35385   1.398   9.123  13.942  0.2593  0.0280  0.2671
19312W        W35386  11.145  15.368   1.543  0.0912 -0.0346  0.1326
19313W        W35387   7.769  13.882   0.800  0.2595 -0.0567 -0.0197
19314W        W35388   5.701  11.003   5.487  0.2599  0.3430 -0.1143
19315W        W35389  11.164   6.314   0.381 -0.1299  0.2796 -0.1129
19316W        W35390   6.544  11.524   2.946  0.1972  0.1354 -0.0401
19317W        W35391  16.082   4.997  16.566 -0.0160  0.0604  0.1087
19318W        W35392  14.703  11.041  15.440  0.1114  0.0684  0.3589
19319W        W35393  17.021  11.825   4.976 -0.0692  0.1466 -0.0871
19320W        W35394   1.344   5.722  15.662  0.4587  0.0219  0.0633
19321W        W35395  17.517   3.014   1.982  0.0473 -0.0741  0.3413
19322W        W35396  15.339  10.455  11.605 -0.3611 -0.0072  0.1588
19323W        W35397   8.104  13.633   5.700 -0.1099  0.0268 -0.2046
19324W        W35398   4.557  13.500   3.079 -0.0159 -0.3671 -0.2954
19325W        W35399   9.939   8.214  11.730  0.0358 -0.0732  0.1971
19326W        W35400   1.888   0.589  14.941 -0.0666 -0.2513  0.2027
19327W        W35401  17.261   1.906   5.362 -0.3729 -0.1531 -0.0784
19328W        W35402  11.932   7.623   4.636 -0.5468  0.0108  0.1829
19329W        W35403   2.680   1.755  13.775  0.1752 -0.0402  0.1451
19330W        W35404  16.558  13.519   4.007 -0.1191  0.3819  0.1575
19331W        W35405   2.976   3.585   5.315 -0.3083 -0.1664  0.2386
19332W        W35406  13.814   8.791  17.065  0.0591 -0.0203  0.0131
19333W        W35407  10.740   5.087  16.282  0.0724  0.0626  0.0933
19334W        W35408   1.657  17.373  14.089 -0.0206 -0.0844 -0.1756
19335W        W35409  13.609  10.050  12.545 -0.1524  0.2547 -0.5027
19336W        W35410   0.300   1.559  16.676  0.1467  0.3209 -0.0566
19337W        W35411  11.079  16.289  13.121 -0.1562 -0.0171 -0.2974
19338W        W35412   8.153   2.438   0.053 -0.2117 -0.1505  0.0721
19339W        W35413  12.057   4.054   0.104  0.0316  0.2427 -0.1309
19340W        W35414  10.838   9.702  12.799  0.3336  0.0232  0.1269
19341W        W35415  17.242  10.142   3.038  0.2739 -0.0580  0.0816
19342W        W35416  13.684  13.650  13.805 -0.1092 -0.0596  0.1133
19343W        W35417  11.392   6.362   1.759  0.4490  0.0244 -0.3159
19344W        W35418   2.774  15.896   3.742 -0.0935 -0.1350  0.0292
19345W        W35419  16.611   9.961  12.405 -0.2087  0.1687 -0.1403
19346W        W35420  17.413   5.204   3.329  0.3906 -0.3806 -0.2405
19347W        W35421   3.782  17.589  15.351  0.0239  0.1161 -0.0988
19348W        W35422  14.157   8.987   4.541  0.3304 -0.0190  0.2062
19349W        W35423  12.268   7.809   0.257  0.0093  0.0377 -0.0016
19350W        W35424  11.552  11.275   3.023 -0.3646  0.0857  0.3266
19351W        W35425   3.870   3.462  16.976  0.0330  0.1134  0.1717
19352W        W35426   9.939   6.236  12.651 -0.0543  0.1021 -0.0203
19353W        W35427   8.698  10.384  12.433  0.0771  0.0933  0.1162
19354W        W35428   9.389  12.284  11.706  0.1497  0.2358 -0.0704
19355W        W35429   6.275   1.382   1.090  0.1241  0.2573  0.1239
19356W        W35430   9.124   3.143   0.023  0.2247  0.0171  0.0608
19357W        W35431   8.901   0.278  15.246  0.0074  0.0511  0.0557
19358W        W35432   3.769  17.123   0.225 -0.0215 -0.0800  0.0875
19359W        W35433   0.592  13.604  15.069 -0.0953  0.1713  0.0480
19360W        W35434  13.171  11.143  16.873 -0.2956 -0.2943  0.1361
19361W        W35435   6.855  15.656   1.393  0.0450 -0.1718 -0.1335
19362W        W35436  11.387   2.806   2.799  0.1851  0.0707  0.1366
19363W        W35437   4.768   1.481   4.112  0.0214 -0.0359  0.0146
19364W        W35438  17.304   7.630  11.868 -0.4218  0.2283 -0.1861
19365W        W35439  17.489   3.244  11.671  0.4735  0.1917 -0.0265
19366W        W35440  12.849  17.542  13.987 -0.2483 -0.0966 -0.4011
19367W        W35441  11.057  12.761   1.193 -0.0190 -0.1752 -0.1105
19368W        W35442  17.346  13.991   4.362  0.2051 -0.1638 -0.0519
19369W        W35443  17.122   9.431   1.245 -0.0761 -0.0954  0.1621
19370W        W35444   4.606   0.005  15.776 -0.1434  0.3044  0.2219
19371W        W35445  11.303   1.578   2.575  0.0199 -0.0012 -0.2900
19372W        W35446   7.295  17.091  15.886 -0.0941  0.1120  0.0735
19373W        W35447   5.142   4.505   2.976 -0.3351  0.0933  0.1437
19374W        W35448   5.573   7.056  12.422 -0.0868  0.0850 -0.1337
19375W        W35449   6.174   9.679  12.548 -0.1346  0.1181 -0.2574
19376W        W35450  17.467  11.367   3.561 -0.1494  0.0229  0.0266
19377W        W35451   7.978   4.200  13.160  0.0972  0.0469 -0.2265
19378W        W35452  14.453   0.471  14.691  0.1193 -0.1565  0.0632
19379W        W35453  14.651  15.380  15.947  0.3949  0.1642  0.2301
19380W        W35454  12.368   9.731   0.754  0.2139  0.0048 -0.0262
19381W        W35455   1.670  13.645  12.006  0.0675 -0.3359 -0.5760
19382W        W35456   8.059  14.910  15.923  0.2217 -0.3369 -0.1504
19383W        W35457  13.126  11.067   5.389  0.1787  0.0667  0.2543
19384W        W35458   0.877  16.234  10.675  0.2077  0.0722 -0.3423
19385W        W35459   4.337  17.214   3.561  0.0692 -0.5168  0.2677
19386W        W35460  11.845   2.384   4.134  0.1748  0.0759 -0.1614
19387W        W35461   1.279   4.583  16.643 -0.1980  0.0516  0.3338
19388W        W35462   1.326   1.265   3.445 -0.2356 -0.0522 -0.0265
19389W        W35463   5.648  17.432  15.629 -0.1824 -0.2001  0.1049
19390W        W35464   2.812   3.235   3.775  0.0492  0.2339 -0.0466
19391W        W35465  14.356   4.852  16.265 -0.0021 -0.1745 -0.0879
19392W        W35466   1.506   8.251  15.909  0.1057  0.0463  0.2363
19393W        W35467   3.414  11.710   2.916 -0.0157 -0.1264 -0.4071
19394W        W35468   9.206   7.702  15.182 -0.2505  0.0095  0.2655
19395W        W35469  15.178  12.517  11.662  0.0704  0.0105 -0.2234
19396W        W35470   6.756   7.550   6.131  0.2762 -0.0388 -0.1868
19397W        W35471   3.066   7.813  15.616  0.1083 -0.0914 -0.1055
19398W        W35472   7.366  12.069  14.366  0.2128 -0.0393 -0.0465
19399W        W35473   4.598  14.336   2.453  0.1063  0.0982 -0.1721
19400W        W35474   8.025  13.031   0.039 -0.1362  0.1426 -0.0336
19401W        W35475   3.267  13.066   0.071  0.1255 -0.1828  0.3045
19402W        W35476   3.318   8.289   0.319 -0.3219 -0.0134  0.1419
19403W        W35477   8.209   4.959  16.784  0.3434 -0.2893 -0.0985
19404W        W35478   7.007   9.155  15.921 -0.3402 -0.3438  0.0920
19405W        W35479  14.849  15.266   4.196  0.0711 -0.1771 -0.1262
19406W        W35480  14.853   2.448   4.486  0.1845  0.0973  0.2192
19407W        W35481   4.377   6.686  13.511 -0.4748 -0.1319  0.0812
19408W        W35482   5.365   2.092  15.280  0.3125 -0.0673 -0.0971
19409W        W35483  10.251  15.283  12.149 -0.0615  0.1851 -0.0180
19410W        W35484  15.373  11.934  13.150  0.0029 -0.0327 -0.0032
19411W        W35485  16.855   0.203   2.954  0.0871  0.0004  0.0471
19412W        W35486   9.819   3.617  15.177  0.1387 -0.0769  0.1578
19413W        W35487   4.420  12.241   4.004  0.2388 -0.1152  0.2697
19414W        W35488  13.100  15.839   4.910  0.2772 -0.1267 -0.1708
19415W        W35489  17.037   3.466   3.928  0.1254 -0.1376  0.0188
19416W        W35490  14.024   5.384   2.412 -0.3199  0.0279 -0.0140
19417W        W35491   6.798  12.020  12.533 -0.1551  0.1058 -0.2783
19418W        W35492  16.322  14.578  15.846 -0.0619 -0.1207  0.1883
19419W        W35493   8.957  14.877  14.304  0.0669  0.1228 -0.3435
19420W        W35494  15.873   9.746   5.146  0.2703 -0.0315 -0.1024
19421W        W35495   9.342  13.845   0.635 -0.2119  0.3996 -0.0990
19422W        W35496  17.179   9.976   1.135  0.4356  0.2674  0.1227
19423W        W35497  11.481  14.931   5.202  0.2143 -0.0443  0.0089
19424W        W35498  16.222   0.767   5.392 -0.0463 -0.1371  0.0748
19425W        W35499  13.400   7.819  14.186  0.0047  0.0778  0.0855
19426W        W35500   0.126   6.084   3.126 -0.2870  0.0628  0.2072
19427W        W35501  10.844  17.700   3.646 -0.5234 -0.0509 -0.0282
19428W        W35502  16.691   0.339   1.679 -0.3303  0.0395 -0.0384
19429W        W35503  16.753  16.065   5.687 -0.0226  0.1142 -0.0394
19430W        W35504  11.770  12.800  16.662 -0.1601 -0.1807 -0.2307
19431W        W35505   6.463  14.053  13.493 -0.1182  0.2777 -0.1102
19432W        W35506   2.095  15.475   5.724  0.3087 -0.2057 -0.0114
19433W        W35507   2.206  15.450  14.188 -0.0716  0.0129 -0.2283
19434W        W35508   6.171   1.115  13.949  0.0696  0.0165 -0.0354
19435W        W35509   8.747   5.627   3.562 -0.0162 -0.1450 -0.0117
19436W        W35510   9.294   8.177   5.719  0.0691 -0.2265 -0.2443
19437W        W35511  14.029   0.602   0.607 -0.1327  0.2368 -0.0971
19438W        W35512   0.982   8.931   3.006 -0.1284 -0.1709 -0.1985
19439W        W35513  17.289  11.452   5.743 -0.2099 -0.1406  0.1035
19440W        W35514   5.904  14.585  16.168 -0.0963 -0.0174  0.2263
19441W        W35515  16.554   4.126   6.631  0.1818 -0.1451 -0.1042
19442W        W35516   2.663   4.497   1.493 -0.2491  0.1237  0.2702
19443W        W35517  13.230  14.069   3.177 -0.0396 -0.0623 -0.0131
19444W        W35518  14.049  15.080   4.397 -0.0194  0.0640  0.0928
19445W        W35519  15.730   6.528   4.500 -0.0291 -0.0705 -0.1783
19446W        W35520   8.388  17.340   1.123  0.1061  0.2402  0.2238
19447W        W35521  17.740   0.971   2.357 -0.1995 -0.3151 -0.1506
19448W        W35522   4.014  16.989  11.863 -0.1401 -0.2334  0.1946
19449W        W35523  10.345  17.574  13.629 -0.1929  0.0915  0.2549
19450W        W35524  16.950   5.992  15.833 -0.0496  0.0992 -0.0271
19451W        W35525  12.144  12.459   4.072  0.0838  0.2485 -0.2282
19452W        W35526  13.944   7.068  14.415 -0.2693  0.1224  0.0188
19453W        W35527   3.766  11.271   5.930  0.1366 -0.0502  0.0261
19454W        W35528   1.832   5.203  16.340  0.0320  0.0602 -0.3160
19455W        W35529   2.799   1.442   4.760  0.0335  0.4621 -0.2555
19456W        W35530   8.493   5.522  15.182 -0.0841  0.0609  0.0537
19457W        W35531   9.484   2.777   0.650 -0.0354 -0.0215 -0.2756
19458W        W35532  12.288  15.839   5.023  0.3648  0.0575 -0.1080
19459W        W35533   9.706  15.013  14.236  0.1340 -0.0039  0.0483
19460W        W35534   2.601   4.202  14.867 -0.0935 -0.2237 -0.0134
19461W        W35535   7.338   3.405  13.468 -0.0400  0.0744  0.1034
19462W        W35536  16.533  12.320  17.012  0.0272 -0.2072 -0.1104
19463W        W35537   9.930   4.977   5.464  0.2890 -0.0162  0.0826
19464W        W35538   5.790   3.966   0.371  0.1190  0.2041 -0.1331
19465W        W35539   1.323  14.732   5.089  0.0687 -0.0236  0.1717
19466W        W35540  15.498  10.919   4.030 -0.0285  0.0886  0.0032
19467W        W35541  16.690   4.003   6.119  0.1403 -0.0228 -0.2809
19468W        W35542  11.747   9.692  13.650  0.0726  0.0955 -0.1128
19469W        W35543  16.299   3.238   6.433 -0.0843 -0.0024 -0.1750
19470W        W35544   9.875  14.940   2.197  0.0486  0.0153 -0.0086
19471W        W35545  14.045   8.095   4.863 -0.4156  0.0392  0.0099
19472W        W35546   4.921  13.892  12.212  0.0145 -0.1410  0.0229
19473W        W35547  15.104  16.236  16.054  0.1798  0.1236  0.2555
19474W        W35548   1.855  13.701  13.009 -0.2982 -0.2197  0.3865
19475W        W35549  15.449  14.842   5.310  0.0438  0.0164 -0.1008
19476W        W35550   3.629   9.815  15.545 -0.1389  0.0607  0.0912
19477W        W35551  17.630   6.560   2.595 -0.2782 -0.1092 -0.1373
19478W        W35552   5.253   3.076   1.471 -0.1753 -0.0616 -0.0343
19479W        W35553  13.692  11.471  14.944  0.1438  0.0512  0.0125
19480W        W35554  10.023   3.583   5.090 -0.2587  0.0121  0.0562
19481W        W35555   1.496   8.825  12.384 -0.2966 -0.2359  0.0123
19482W        W35556   3.856  15.083  12.191 -0.2033  0.1731  0.0226
19483W        W35557   5.780  12.485   4.117  0.3453 -0.1218 -0.0080
19484W        W35558  14.583   6.378   3.740 -0.2386 -0.0729 -0.0429
19485W        W35559  14.153  14.998   1.514 -0.0634  0.0218 -0.1090
19486W        W35560  14.250   6.871  16.416 -0.0202 -0.0810  0.1987
19487W        W35561  14.631  13.128   0.667  0.1051 -0.2420  0.1831
19488W        W35562   4.268   8.152  12.336  0.2048 -0.1313  0.0817
19489W        W35563  12.926   0.555  13.471 -0.1750  0.2478 -0.2420
19490W        W35564   6.605  16.807  12.530  0.0977 -0.0473  0.3318
19491W        W35565   5.261   8.289  13.626  0.0920 -0.2644 -0.0960
19492W        W35566   8.409   2.891   2.689 -0.3814  0.1400  0.0261
19493W        W35567  11.673   5.436   2.524  0.4024  0.0755 -0.0647
19494W        W35568  14.275   1.368  12.048  0.0078  0.1678  0.1337
19495W        W35569   7.511  11.248   4.462  0.0730 -0.3875 -0.1471
19496W        W35570   0.496   3.191   1.337 -0.0787 -0.0820 -0.0698
19497W        W35571   9.509  13.824   4.376 -0.2596 -0.1765  0.2340
19498W        W35572   2.528   2.061  14.438 -0.2817 -0.0658  0.2434
19499W        W35573   1.795  12.772  13.923 -0.1955  0.0710  0.1106
19500W        W35574   3.623   3.435   3.161 -0.0389  0.0955  0.1203
19501W        W35575  12.156  17.682  15.343 -0.0830 -0.2813  0.2222
19502W        W35576  16.488  15.269   1.400  0.2130  0.0233  0.1365
19503W        W35577   8.929   7.749   3.798  0.0420 -0.0922  0.1519
19504W        W35578  14.117   5.128   3.709 -0.1572  0.2298  0.2095
19505W        W35579   2.360   9.653   0.778  0.1218  0.1892 -0.0704
19506W        W35580  11.096  16.713  14.572 -0.2430 -0.1103  0.3157
19507W        W35581   4.384   7.868  14.994  0.2702  0.0787  0.1380
19508W        W35582   7.485  14.416   3.019 -0.0498  0.1955 -0.0826
19509W        W35583  17.521  17.505  14.569 -0.2156  0.3146 -0.1797
19510W        W35584   2.890   3.884  13.858 -0.2318 -0.2675  0.0760
19511W        W35585  12.766   5.682   1.696  0.4091  0.0793  0.2277
19512W        W35586  12.087   3.700  12.997  0.0616 -0.0012 -0.1011
19513W        W35587  13.325   8.449   5.991 -0.2503 -0.2514  0.1974
19514W        W35588  16.534  11.348   5.487 -0.0934 -0.2141  0.2382
19515W        W35589   8.605   4.224   3.517  0.1533  0.1095 -0.0277
19516W        W35590   6.002  14.147   5.266 -0.0970  0.1718 -0.1128
19517W        W35591   4.544   3.485   4.585 -0.1667  0.0250  0.1654
19518W        W35592  16.676  10.960  14.889 -0.0179  0.1150 -0.0993
19519W        W35593   2.378   0.802   2.484  0.1382  0.1241  0.0141
19520W        W35594  14.935  15.557   2.833 -0.0038  0.2197 -0.1332
19521W        W35595   1.765   2.353   6.738  0.0332  0.0126 -0.2235
19522W        W35596   4.691   9.066  13.945 -0.3058  0.0136  0.0279
19523W        W35597   6.358   4.330  16.110 -0.0191  0.0079 -0.5039
19524W        W35598   4.552  13.389   2.589  0.0837 -0.2868 -0.1548
19525W        W35599   1.343   2.547   0.974  0.5055  0.0485 -0.0939
19526W        W35600   4.716  15.079   2.902 -0.1811  0.1449 -0.1032
19527W        W35601  12.544   4.283  13.392  0.0650 -0.0249  0.0142
19528W        W35602  17.673  12.201   2.408 -0.0835  0.1153 -0.2807
19529W        W35603  12.952  12.279   2.755 -0.1999  0.1156  0.1524
19530W        W35604  14.294  15.946   4.568 -0.2702  0.0726 -0.0023
19531W        W35605  15.220  14.449  14.971  0.0835  0.0414  0.0152
19532W        W35606   9.325   1.054  16.044  0.4330 -0.0380 -0.4033
19533W        W35607   8.825  16.027   3.255 -0.1760 -0.1588  0.4084
19534W        W35608   7.707   4.580   6.666  0.0458  0.1230  0.1137
19535W        W35609   1.662  13.660   5.884  0.0238  0.0264 -0.1077
19536W        W35610   4.899  10.079  16.872 -0.0849  0.1605 -0.1700
19537W        W35611   4.422   1.651  16.566  0.1722 -0.0424 -0.2307
19538W        W35612   8.135  17.446  15.729 -0.1691 -0.0770 -0.0674
19539W        W35613  16.423   8.554   5.489 -0.1458  0.1245  0.3368
19540W        W35614   5.090   5.660  13.206  0.3065  0.0919  0.1915
19541W        W35615   3.094   2.212   0.412 -0.4328  0.0446 -0.0852
19542W        W35616  11.617  10.741  13.589  0.3795  0.1536  0.0154
19543W        W35617   4.363   4.871  16.901  0.0815 -0.2305 -0.0345
19544W        W35618  10.573   4.368  13.927 -0.1245 -0.3009  0.1655
19545W        W35619  15.340   1.963   3.770 -0.0857 -0.0057  0.1746
19546W        W35620   2.162  15.965   4.693  0.0101  0.1031 -0.1972
19547W        W35621  15.095  15.158   5.838  0.0614 -0.0490 -0.1042
19548W        W35622   9.941  11.964   2.620 -0.1331  0.1673  0.2405
19549W        W35623   1.429  14.432   0.005  0.1065  0.0580  0.2057
19550W        W35624   2.832  11.057   2.509 -0.1409 -0.0952 -0.1898
19551W        W35625   6.370  10.193   2.672  0.0736 -0.1259  0.2391
19552W        W35626  12.897  17.051  16.296  0.1178  0.1542  0.0013
19553W        W35627   7.669   2.121   3.984  0.2140 -0.2445  0.2541
19554W        W35628  14.189   9.664  12.859 -0.0304 -0.2761  0.0616
19555W        W35629   8.007   5.192   3.219 -0.0974  0.0217 -0.1525
19556W        W35630  14.961   5.210   6.193 -0.0953  0.0834 -0.1555
19557W        W35631  11.883   2.775   1.911 -0.0385 -0.1280  0.0196
19558W        W35632  10.481   3.067   5.957 -0.2622 -0.0028 -0.0035
19559W        W35633   5.464   2.654  14.419  0.0032 -0.0215 -0.3626
19560W        W35634   0.431   4.934  15.873  0.1025 -0.0691  0.1464
19561W        W35635  12.452  12.121  11.739  0.0979 -0.1042  0.2238
19562W        W35636   0.179   5.349   2.593 -0.1267  0.0473  0.0465
19563W        W35637   1.736  14.769   3.787 -0.0855  0.0246  0.0460
19564W        W35638  17.074  14.770  13.753  0.0425 -0.1001  0.1413
19565W        W35639   3.230  16.053   2.882  0.1157  0.0593 -0.4836
19566W        W35640   4.813   8.037  13.239 -0.1791  0.4049 -0.1110
19567W        W35641   4.823   0.401   5.446 -0.0578  0.1600  0.1050
19568W        W35642  14.824   4.294  15.571  0.0296  0.2165  0.0506
19569W        W35643  15.937  15.302  12.600 -0.0121  0.1141  0.3424
19570W        W35644   9.987   1.129  16.428  0.1129 -0.4001  0.0846
19571W        W35645  14.172   7.048   1.947 -0.0607 -0.1816 -0.0119
19572W        W35646  14.253  14.311  11.604 -0.1278 -0.3268 -0.0982
19573W        W35647   6.047  11.816  15.853 -0.1163 -0.2044 -0.2648
19574W        W35648  13.925  12.065  13.427 -0.2004  0.0074  0.3794
19575W        W35649   7.728  12.473   2.392  0.1430 -0.0820 -0.0659
19576W        W35650   3.300   4.511  13.964  0.0690 -0.0221 -0.0394
19577W        W35651  13.429   4.222  15.433 -0.1932 -0.1437  0.2037
19578W        W35652   8.426   5.574  14.707  0.3294 -0.2141  0.3554
19579W        W35653   1.414  16.347   2.819 -0.0086  0.1810 -0.0249
19580W        W35654   9.632  15.291   1.054 -0.1103 -0.2173 -0.0528
19581W        W35655   9.939   8.310   4.621  0.0637 -0.1884  0.3111
19582W        W35656   1.104   0.475   4.774  0.0436 -0.0809  0.0992
19583W        W35657   2.252  10.158   5.681 -0.1174  0.0913 -0.1746
19584W        W35658   6.903  12.978   4.586 -0.0826 -0.0331 -0.2079
19585W        W35659  12.802   9.141   0.222 -0.4224 -0.0333 -0.1295
19586W        W35660  12.137   5.643  14.733 -0.0881  0.2039  0.0696
19587W        W35661   6.603  15.231   5.316 -0.1172  0.0783 -0.1507
19588W        W35662  13.390  10.460   5.078  0.1816 -0.0555 -0.1912
19589W        W35663   5.511  12.883   2.049 -0.2451 -0.1839  0.1186
19590W        W35664   8.328   4.725   3.385 -0.4428 -0.0889  0.1955
19591W        W35665  16.020   5.222   0.473  0.1584  0.2413  0.1298
19592W        W35666   6.750  12.661   0.576 -0.0777 -0.3945  0.1775
19593W        W35667  16.478   4.024   0.143 -0.1708 -0.0797 -0.1010
19594W        W35668   8.068   5.166  15.818  0.3386 -0.1391  0.0025
19595W        W35669  12.879   5.305  14.710  0.4589 -0.1734  0.2228
19596W        W35670  17.340  10.652   2.876 -0.0357 -0.0413 -0.1509
19597W        W35671  12.217  12.864  16.962 -0.2073  0.1930  0.1626
19598W        W35672  13.399   3.271   0.600 -0.2265 -0.1982 -0.3382
19599W        W35673   5.763  15.558  13.756 -0.1397  0.1931  0.1889
19600W        W35674  14.301   0.860  13.853  0.0237  0.0163 -0.2148
19601W        W35675   4.650   9.412   3.499 -0.2224  0.0274 -0.1370
19602W        W35676   4.843   5.903   1.426  0.2180  0.1636  0.4479
19603W        W35677   8.990  13.309   2.447 -0.0924  0.2904  0.0399
19604W        W35678   3.560   3.898  15.453 -0.2959 -0.0547  0.1098
19605W        W35679  10.164  17.618   0.747  0.1073  0.0695  0.1156
19606W        W35680   0.877   7.470   0.529 -0.0498  0.2187 -0.1107
19607W        W35681   8.313  14.290   1.885  0.2272  0.0332  0.2614
19608W        W35682   6.768   7.999  13.123 -0.3111  0.0209  0.3173
19609W        W35683   2.436   4.185  16.893 -0.3044 -0.1789  0.0854
19610W        W35684   6.526   7.721   2.414 -0.1713 -0.0642 -0.1232
19611W        W35685  14.240  13.414   0.435 -0.1230  0.3029 -0.0681
19612W        W35686  17.373  13.137   2.980  0.2624 -0.0944  0.1755
19613W        W35687  14.487   1.176   6.655  0.0646  0.0497 -0.3508
19614W        W35688   4.305  12.277  15.451 -0.2878 -0.0756 -0.2016
19615W        W35689   6.990   3.142   4.680  0.0107  0.6190 -0.1238
19616W        W35690   1.276  13.624  15.694  0.2097  0.1215  0.0203
19617W        W35691   6.288   9.336   3.104  0.0836 -0.1336  0.1156
19618W        W35692   6.542  15.267  13.444  0.3498 -0.1088 -0.1123
19619W        W35693  13.968  13.066   2.339 -0.1415 -0.3670  0.0698
19620W        W35694   2.647   1.788  15.986  0.0413 -0.3905 -0.2364
19621W        W35695  14.467  12.311  15.985 -0.2179  0.1393  0.0290
19622W        W35696  15.470   2.768  16.425 -0.3493 -0.0512 -0.0645
19623W        W35697   7.380   0.190   5.113 -0.2031  0.0209  0.3260
19624W        W35698  10.771   9.209   2.893 -0.3045 -0.1814 -0.4059
19625W        W35699  10.976  14.002  13.825 -0.1027 -0.0616 -0.0972
19626W        W35700  16.461   8.988   2.028  0.1077 -0.3505 -0.1434
19627W        W35701  12.679  16.682   1.537 -0.3738  0.0427 -0.0911
19628W        W35702   6.369  16.203  16.757  0.1028  0.1771  0.0856
19629W        W35703   6.883   7.828  14.027 -0.2375 -0.0103 -0.4362
19630W        W35704   3.757   0.705   2.505 -0.2828 -0.2874  0.1297
19631W        W35705   0.357   1.027   1.453 -0.4077 -0.0232 -0.1678
19632W        W35706  15.673  12.369   5.443 -0.0045  0.1911 -0.0723
19633W        W35707   4.205   7.444  12.709  0.1096  0.0286 -0.1926
19634W        W35708   6.393  13.718  16.455 -0.1939  0.1135  0.1551
19635W        W35709   5.818   0.332  16.471 -0.0451  0.0652 -0.2539
19636W        W35710  15.416   1.386  16.734 -0.0128 -0.2801  0.0042
19637W        W35711   6.008   0.207   4.020 -0.1044  0.1324  0.0759
19638W        W35712   5.683   1.850  14.842 -0.1014  0.0030 -0.2184
19639W        W35713   9.226   0.868   5.675  0.0809  0.2957 -0.1269
19640W        W35714   8.617   5.527  13.832  0.1645 -0.0719 -0.1056
19641W        W35715  17.044   6.221   5.846  0.1227 -0.0807 -0.0334
19642W        W35716  17.239   1.029  16.580 -0.5084  0.0704  0.1791
19643W        W35717   5.670   0.706   2.433 -0.2616  0.1667 -0.1504
19644W        W35718   7.929  15.407   1.466  0.0328  0.0761 -0.1119
19645W        W35719   3.048   1.066  13.656 -0.4700 -0.3788 -0.3033
19646W        W35720   4.038   2.665   0.519  0.2755 -0.0129  0.0212
19647W        W35721   5.982   5.294   2.242  0.2008 -0.1674 -0.0944
19648W        W35722  15.123   6.029  14.347  0.0377 -0.1909  0.1027
19649W        W35723   1.803   7.723   1.479  0.0218 -0.1507 -0.2170
19650W        W35724   8.175   3.653   4.929 -0.0634  0.1623 -0.2668
19651W        W35725   7.583   5.754   5.273 -0.0121  0.1309 -0.3372
19652W        W35726  15.272  11.109  15.351 -0.1257  0.1360 -0.0976
19653W        W35727  11.187  10.138   4.897  0.0690  0.3275 -0.0596
19654W        W35728   5.919   5.323  12.985  0.0667 -0.0978 -0.2919
19655W        W35729   5.364  15.373   4.866  0.3061  0.0119 -0.2344
19656W        W35730  11.576   6.103   5.007 -0.1602 -0.0870  0.2017
19657W        W35731   3.069   7.003  13.431  0.2606 -0.0065  0.0955
19658W        W35732   5.661   4.905   0.100  0.0568  0.2663 -0.3386
19659W        W35733  15.185   9.317   1.029  0.0290  0.0373  0.0299
19660W        W35734   3.900   5.349   3.666  0.3346 -0.1113 -0.2341
19661W        W35735  10.484   2.805   1.751  0.2189  0.2656  0.2902
19662W        W35736   4.819   1.794  13.636  0.0510  0.2223  0.0160
19663W        W35737  14.297   7.913  12.466  0.0539 -0.0523  0.2639
19664W        W35738   4.259   1.070   1.455 -0.3300 -0.0920  0.0934
19665W        W35739   7.958   7.603   1.959  0.0573  0.1435  0.3089
19666W        W35740   7.298  10.662   3.724  0.1436 -0.0737  0.1678
19667W        W35741  10.354   4.465   6.412  0.0139 -0.0994  0.2005
19668W        W35742   4.213  13.509  15.262  0.0639 -0.1970  0.1761
19669W        W35743   9.622   5.220  14.113 -0.0910  0.0932 -0.1721
19670W        W35744  16.739  17.518   0.429 -0.0039  0.0977 -0.1696
19671W        W35745   2.868  14.450   1.802 -0.0296 -0.2760  0.1133
19672W        W35746  10.019  17.098   3.092  0.0753 -0.1415  0.1674
19673W        W35747  11.595  16.849   4.276  0.0989 -0.0019  0.0984
19674W        W35748  13.744  15.877   6.045 -0.2037 -0.0149 -0.2303
19675W        W35749  13.143   2.134   0.103 -0.3263 -0.1179  0.2303
19676W        W35750   3.435   5.031   0.336 -0.0333 -0.1493  0.0701
19677W        W35751   2.861   4.792  13.954  0.0973  0.2203 -0.1307
19678W        W35752   4.499  11.623  14.862 -0.1803 -0.0480 -0.4967
19679W        W35753   0.316   6.616   6.390 -0.0322  0.1177  0.1894
19680W        W35754  15.743  17.166  16.386 -0.1005 -0.2125 -0.1449
19681W        W35755  13.261   0.642   1.488  0.1164 -0.0393  0.0220
19682W        W35756  11.912   9.177  13.553 -0.1057 -0.4216 -0.2212
19683W        W35757  16.285   5.029   1.839 -0.0302  0.0780 -0.1681
19684W        W35758  15.874   7.244   0.012  0.1861 -0.1354 -0.2317
19685W        W35759   9.513   5.695  12.845  0.1535  0.0931 -0.0578
19686W        W35760   9.065   9.799  15.800  0.1114 -0.1479  0.1221
19687W        W35761   6.246  12.520  11.782  0.2626 -0.1780 -0.1344
19688W        W35762   3.269   7.182   5.248  0.0679  0.1274 -0.0603
19689W        W35763   3.073  15.049  14.016  0.3860  0.0203 -0.1564
19690W        W35764  11.613   5.847  12.249  0.2018  0.0874 -0.2913
19691W        W35765   4.733  14.216  15.857  0.1479  0.1883  0.1475
19692W        W35766  11.724   9.903   3.150  0.1869  0.3384 -0.0022
19693W        W35767  11.061   8.146  14.418 -0.2666 -0.0885  0.1831
19694W        W35768   2.725  16.048   0.987  0.0515  0.0715 -0.2247
19695W        W35769  17.533  11.086   5.433  0.3529  0.1938  0.1730
19696W        W35770  15.982  17.647   2.852 -0.3789  0.1471  0.2296
19697W        W35771  17.474  16.210  12.295  0.1071  0.1619 -0.3411
19698W        W35772  13.138   2.157  14.415 -0.1406  0.0679  0.2336
19699W        W35773  15.993   9.909   3.020 -0.2551  0.3151  0.1731
19700W        W35774   8.911   9.822  14.279  0.1459 -0.1662 -0.0898
19701W        W35775  11.507   9.242   2.442 -0.0128  0.2175 -0.0944
19702W        W35776   4.507  12.108   0.091  0.1546 -0.1810 -0.2067
19703W        W35777  12.488   2.643  14.978 -0.1950  0.2384 -0.0592
19704W        W35778   7.016   8.363  15.711 -0.1606  0.1992  0.1111
19705W        W35779  15.633   7.374  11.585  0.2147 -0.2345 -0.0229
19706W        W35780   0.471  13.253  14.776  0.0873 -0.1774  0.1613
19707W        W35781  10.292   5.283  16.562 -0.0055 -0.1498  0.2041
19708W        W35782   1.183   0.346   1.454 -0.1465  0.0910  0.3073
19709W        W35783   2.172  11.627  15.815 -0.0949  0.1007 -0.0556
19710W        W35784  10.652   4.812   0.926  0.0027 -0.0149  0.0215
19711W        W35785  15.496  11.457   5.150  0.0472 -0.1423 -0.1168
19712W        W35786  10.713  17.373  11.563 -0.0596  0.1339 -0.1681
19713W        W35787   6.465  15.126   5.868  0.1065 -0.0099  0.1035
19714W        W35788  13.972   0.424   5.591  0.0385  0.1030 -0.0125
19715W        W35789   9.183  13.458  13.907  0.1725 -0.0068  0.3681
19716W        W35790   9.583   6.320   4.622 -0.0621  0.1041  0.0558
19717W        W35791  14.840  10.542   0.152  0.1149  0.0495  0.0196
19718W        W35792   4.976   8.935   3.007 -0.0779  0.0741 -0.0074
19719W        W35793  15.812   2.098   4.945  0.0157 -0.1070  0.1065
19720W        W35794   7.332  11.343   2.745  0.0743  0.0769  0.0639
19721W        W35795   3.482  15.005   5.960  0.1712  0.2070 -0.1052
19722W        W35796  15.579  17.354   1.963 -0.0540 -0.2460  0.3125
19723W        W35797   5.073   2.771   6.086  0.0193  0.2371  0.2673
19724W        W35798  16.622   8.951  14.908  0.1610  0.1524  0.1331
19725W        W35799  10.819  12.256   2.992 -0.0476 -0.2274 -0.1765
19726W        W35800   8.309   4.109   1.050 -0.4599  0.0929 -0.0082
19727W        W35801   6.118  16.646  12.555 -0.2799  0.1738 -0.0031
19728W        W35802  12.899   0.747   4.670  0.0443  0.0296 -0.0605
19729W        W35803   0.692   4.562   0.739  0.0995  0.0868 -0.2497
19730W        W35804   0.011   8.639  15.384  0.0840 -0.1875 -0.0970
19731W        W35805   4.032  17.466  11.946 -0.0837 -0.0212  0.1967
19732W        W35806   2.640   0.330  14.047  0.1506  0.0815 -0.0435
19733W        W35807   9.066   3.238  14.101  0.1889 -0.0731 -0.1993
19734W        W35808  14.827   1.459   4.363  0.0380  0.1657 -0.2139
19735W        W35809   3.382  13.499  12.001  0.2659 -0.1076  0.2751
19736W        W35810   5.761  13.258   3.318 -0.1923  0.0311  0.2194
19737W        W35811   1.486   5.161  14.925  0.3099  0.0716  0.1213
19738W        W35812   6.069   1.481   3.134 -0.0484  0.1627  0.0909
19739W        W35813   7.159   2.100   1.753 -0.3374 -0.2577 -0.1350
19740W        W35814   3.065   9.835   4.911 -0.0791 -0.2416 -0.0607
19741W        W35815   7.490   9.604   2.147  0.2760  0.1798  0.2967
19742W        W35816   3.877   8.377  13.019  0.2958  0.0551  0.1982
19743W        W35817   2.975  14.254  13.911 -0.1324  0.1166  0.1704
19744W        W35818  17.157  16.185  17.150 -0.1848  0.1008  0.2846
19745W        W35819  16.916   7.986   0.750  0.1802 -0.1555  0.2253
19746W        W35820   9.144  12.821   0.886 -0.2495 -0.4066  0.0965
19747W        W35821  14.256   6.973   5.293 -0.0435  0.0495  0.0222
19748W        W35822  11.906  17.087  15.835 -0.1139  0.0258  0.3311
19749W        W35823  13.490   7.612  16.213 -0.3361 -0.0169  0.2368
19750W        W35824   7.095   9.497  15.611 -0.3681  0.0515 -0.0104
19751W        W35825   2.146   8.158  14.142  0.3015 -0.2670 -0.1765
19752W        W35826  10.736   3.035   3.828 -0.0652  0.1582 -0.0611
19753W        W35827  11.997  13.294  16.728  0.3063 -0.0553 -0.0723
19754W        W35828  13.601  11.734  13.689  0.1680 -0.2538  0.2137
19755W        W35829   2.258   5.794   3.249 -0.2019 -0.1119 -0.2386
19756W        W35830  14.289   6.352  15.525  0.0198  0.3236  0.1758
19757W        W35831  14.741   1.353   1.737  0.0214 -0.2899  0.1146
19758W        W35832  11.997   4.268  14.244 -0.3468  0.0592  0.0712
19759W        W35833   0.612   1.173   5.325 -0.0014 -0.2188 -0.0007
19760W        W35834  10.015   2.651   1.733 -0.1141  0.0541 -0.4030
19761W        W35835   4.273  11.539   1.720  0.0124 -0.2060 -0.1296
19762W        W35836  16.105  16.614   1.475 -0.3076 -0.0722  0.0233
19763W        W35837   7.543  15.347   0.226  0.1061  0.1858  0.0513
19764W        W35838  14.088  11.622   3.873  0.0623 -0.2419 -0.0400
19765W        W35839   5.490   7.856   0.225 -0.0520 -0.1465 -0.0352
19766W        W35840   3.800   9.435   0.878 -0.1971  0.0367 -0.1684
19767W        W35841   7.430  13.094  13.845 -0.2065  0.2236  0.1093
19768W        W35842  10.784  14.165   2.925 -0.1069 -0.2030 -0.0110
19769W        W35843  12.777  16.024   1.511  0.1665 -0.1457  0.0042
19770W        W35844   0.386   2.043   1.482  0.0168 -0.0198  0.1982
19771W        W35845   7.673   7.528  12.909  0.1640  0.1686 -0.1715
19772W        W35846  16.694   6.398  17.051 -0.0420 -0.0146  0.3133
19773W        W35847   9.952   1.493   0.522 -0.1332 -0.1931  0.0594
19774W        W35848   8.261   1.554  13.882  0.1016 -0.0513  0.1411
19775W        W35849   9.367  15.205  16.138  0.2616 -0.2357 -0.0180
19776W        W35850  14.802  11.108   5.587  0.3516  0.2606 -0.1933
19777W        W35851   0.858   5.140  16.075  0.1230 -0.1910 -0.0618
19778W        W35852   4.739   4.411  16.273  0.1379  0.0868 -0.0829
19779W        W35853  14.303  15.640  16.169 -0.0255 -0.0873  0.0714
19780W        W35854   0.144   1.582   3.453 -0.2361  0.0183 -0.1826
19781W        W35855   1.322   3.906  16.407 -0.0736  0.2844 -0.3650
19782W        W35856  17.214   1.351   6.279 -0.1013 -0.0093 -0.1534
19783W        W35857  10.424  16.553  12.388 -0.4797 -0.1344 -0.0720
19784W        W35858   2.969  17.004   3.095  0.0892 -0.0357  0.0921
19785W        W35859  15.844   9.938  14.885 -0.0765  0.0828 -0.1112
19786W        W35860   2.566  15.112   4.411  0.1569  0.3228  0.2352
19787W        W35861   6.960  11.238  14.723  0.3041  0.0254  0.2266
19788W        W35862   7.084  10.112  15.770 -0.0400 -0.0747  0.3526
19789W        W35863  16.294  15.182   2.912 -0.4270 -0.2579  0.0603
19790W        W35864  17.491  10.085   4.921  0.2467  0.0191  0.0720
19791W        W35865  15.167   1.262   4.680 -0.0189 -0.2052  0.0898
19792W        W35866   9.889   2.670   2.627  0.1415 -0.0755 -0.2639
19793W        W35867  14.209   6.034   4.554 -0.0873 -0.0632 -0.4906
19794W        W35868   2.456   2.292   4.441  0.3948  0.0235 -0.2100
19795W        W35869  14.808  13.587  13.019 -0.1212  0.0543  0.0986
19796W        W35870   2.392  14.560   1.118 -0.1719 -0.0499  0.1127
19797W        W35871  12.114   5.205   0.066  0.1162  0.1176  0.0406
19798W        W35872  12.106   2.784   2.450 -0.2242 -0.0002  0.0866
19799W        W35873   3.536   5.069  15.770 -0.0296  0.0222  0.0278
19800W        W35874   6.435  11.798   4.772  0.0096  0.1324 -0.1340
19801W        W35875  14.439   9.611  11.448  0.4687  0.0331 -0.2998
19802W        W35876  16.541  17.282   3.980 -0.0692  0.2546  0.2764
19803W        W35877   7.325  12.080   1.448 -0.1815 -0.2135 -0.3269
19804W        W35878   9.380   2.658  12.886  0.3404 -0.1915  0.2331
19805W        W35879  13.750   7.424   0.659  0.4240  0.0486 -0.1152
19806W        W35880  14.803   9.711   3.172 -0.2202 -0.2029 -0.0335
19807W        W35881  12.403  16.677   2.974 -0.2436 -0.0373  0.0826
19808W        W35882   9.568  17.256  17.046 -0.1038 -0.0483 -0.1422
19809W        W35883   8.141  11.020   2.010  0.0320  0.1082  0.1790
19810W        W35884   8.690   4.816  12.450 -0.0910 -0.2707 -0.0609
19811W        W35885  11.953   0.580   2.206 -0.5360  0.0732 -0.2997
19812W        W35886   1.114  12.429  13.284  0.4260 -0.0753 -0.2331
19813W        W35887  16.831  12.261  15.350  0.1125 -0.0137 -0.2824
19814W        W35888  17.554  10.763  14.402  0.2195  0.2828 -0.2009
19815W        W35889  12.636   6.303   2.993  0.0165  0.2643  0.0903
19816W        W35890  12.072   4.212  13.733  0.0894 -0.0847  0.0432
19817W        W35891   0.137  16.392  13.057 -0.0627 -0.1673 -0.0841
19818W        W35892  11.704   6.697   3.822  0.1375 -0.1128 -0.0837
19819W        W35893   3.199  15.134   1.080  0.1105 -0.0209  0.1704
19820W        W35894   5.611   5.622  16.948  0.0627 -0.0051  0.1257
19821W        W35895  12.485  16.348   3.289  0.1293  0.3095  0.2603
19822W        W35896  10.158   9.539  16.502  0.0257 -0.1743  0.2681
19823W        W35897   2.003   1.212  12.266  0.1311  0.2086  0.1925
19824W        W35898   5.246   2.085   5.559 -0.0870 -0.4281  0.1995
19825W        W35899   0.951  11.282  13.549  0.2115  0.3449 -0.4135
19826W        W35900   0.397  12.905   0.282 -0.1604 -0.1926  0.0103
19827W        W35901   9.861  13.909  16.845 -0.4064  0.0521  0.0360
19828W        W35902  14.988   4.039  14.636 -0.3241 -0.2825  0.2188
19829W        W35903   1.821   9.342   3.496 -0.0540  0.0735 -0.0820
19830W        W35904   3.702  12.642  12.499  0.0603 -0.0286  0.0119
19831W        W35905   1.428   3.351   2.462 -0.0467 -0.1798  0.1476
19832W        W35906   7.505   3.666   6.322 -0.1637  0.2922  0.1119
19833W        W35907  17.311  17.082   4.044  0.2516 -0.1592 -0.0028
19834W        W35908  10.177   9.695   0.661 -0.4010 -0.4397 -0.2649
19835W        W35909  14.682   9.500  14.591  0.1458 -0.2816  0.1230
19836W        W35910   3.872  11.156  14.788 -0.0539 -0.2373  0.0131
19837W        W35911  17.612   6.299  16.345 -0.1593 -0.0399 -0.2067
19838W        W35912   9.905  11.275  15.326  0.0942 -0.2482 -0.2207
19839W        W35913  13.478   3.463   3.237  0.2001  0.0955 -0.2465
19840W        W35914  12.238   3.275  13.228  0.0853 -0.4149 -0.0649
19841W        W35915   5.537   9.116   0.247 -0.0658 -0.0422  0.2475
19842W        W35916  10.821   5.837   4.771 -0.1139  0.0035 -0.1924
19843W        W35917   8.423   3.717   1.395  0.3617 -0.1330  0.1513
19844W        W35918  13.127  17.649   1.662  0.2872 -0.2703  0.3755
19845W        W35919  10.800   7.989   4.180  0.0584  0.2322 -0.1271
19846W        W35920   2.138  10.390   2.846  0.0296 -0.3865 -0.2193
19847W        W35921  16.308   5.856  15.599  0.0870  0.3620  0.0680
19848W        W35922   2.039   5.453   4.142  0.0868 -0.4681 -0.2238
19849W        W35923  17.211  15.039   0.038  0.2224  0.0686  0.2148
19850W        W35924   0.375   1.696  15.167  0.0377 -0.2483 -0.2348
19851W        W35925   8.526  15.859  13.884 -0.1426  0.2044 -0.0705
19852W        W35926  17.115   3.425  13.502 -0.2840  0.0718 -0.1251
19853W        W35927  13.380  15.601  12.684  0.0021  0.1068  0.1579
19854W        W35928   8.125  14.956   3.916  0.5394 -0.0170  0.0870
19855W        W35929  10.090   7.022   5.765  0.0289 -0.3780  0.0954
19856W        W35930   2.387   2.904   4.185 -0.0480  0.2104 -0.0700
19857W        W35931   8.315   1.346  14.439 -0.0627 -0.4840  0.1972
19858W        W35932   2.889   1.030   5.591  0.1717 -0.1184 -0.0095
19859W        W35933   1.150   1.801  16.033  0.0383  0.1635 -0.1788
19860W        W35934  13.307  12.414  16.355 -0.0961  0.0226 -0.0014
19861W        W35935   2.217  17.443  11.743  0.1113  0.1268  0.0846
19862W        W35936   6.472   5.289  15.754 -0.0107  0.0767  0.1120
19863W        W35937  16.027  16.114  15.083  0.0491 -0.0213 -0.1050
19864W        W35938   8.551   6.757   4.798 -0.2895 -0.1063 -0.1036
19865W        W35939  11.578   6.547   5.588 -0.0905 -0.0295 -0.1047
19866W        W35940  10.786   7.614  14.055  0.0696  0.3706  0.1572
19867W        W35941   1.896   4.925  13.456 -0.1434 -0.2522 -0.1273
19868W        W35942   0.279  15.106   0.422  0.0960  0.0441  0.2392
19869W        W35943   5.789  15.937  12.520 -0.0513 -0.1854 -0.0357
19870W        W35944   3.972   4.537   5.714 -0.1398  0.1237 -0.0331
19871W        W35945  12.187  16.450  13.861 -0.0719  0.0400 -0.0698
19872W        W35946  16.698  16.647   5.075 -0.1161  0.0903 -0.0091
19873W        W35947  15.739   1.897   1.166  0.2335 -0.1812  0.0079
19874W        W35948  12.515   7.244   0.946 -0.0553 -0.0207  0.1319
19875W        W35949   9.976  16.380  13.924  0.1228  0.1182  0.2640
19876W        W35950   3.063   4.062  12.709  0.1231  0.4630  0.1940
19877W        W35951  11.711   5.335  16.085  0.0260 -0.0220  0.0458
19878W        W35952  16.007  15.643   0.588 -0.0712 -0.2974 -0.2248
19879W        W35953  15.299   3.918   3.463 -0.0755 -0.0599 -0.0575
19880W        W35954  10.543  17.146   4.983  0.0477  0.1011  0.2592
19881W        W35955  16.406   2.633  11.995  0.1117 -0.1846  0.0234
19882W        W35956   1.632   7.653   5.749  0.0753  0.1166  0.1767
19883W        W35957  15.910   3.571   1.624  0.0457  0.0014  0.1422
19884W        W35958   0.003  12.160   2.953 -0.2682 -0.0058 -0.2354
19885W        W35959  10.585   2.463  13.628  0.1501  0.1850 -0.2919
19886W        W35960   8.949   8.726   2.745  0.0201 -0.0723  0.3021
19887W        W35961   0.736   3.145   1.787  0.1555 -0.0742  0.2218
19888W        W35962   3.062   4.566   4.463  0.0814 -0.0298 -0.1666
19889W        W35963   2.707   1.798   0.485  0.0866  0.1466  0.1270
19890W        W35964  15.296   6.787   4.321  0.0882  0.2774 -0.0665
19891W        W35965   2.976   9.355   2.544 -0.0746 -0.4076  0.0664
19892W        W35966   3.450  15.180   0.045 -0.2067  0.2151 -0.0982
19893W        W35967   6.258   6.923  11.881  0.2684 -0.1562 -0.0200
19894W        W35968  16.019  17.422   0.193 -0.3243 -0.0315  0.1483
19895W        W35969  13.844   2.739   0.988  0.0119 -0.3801 -0.1390
19896W        W35970   1.848  17.588   3.307  0.1399 -0.0610  0.0608
19897W        W35971  17.100  14.108  16.916  0.0155 -0.0050  0.1298
19898W        W35972  15.486   1.084  16.321 -0.0065 -0.0649 -0.2583
19899W        W35973   9.350   1.828  17.065  0.0166  0.3484 -0.1301
19900W        W35974  13.457  17.366   1.418 -0.2095  0.3268 -0.1107
19901W        W35975  12.643   8.443   5.395 -0.0676  0.2718 -0.1268
19902W        W35976  13.407  11.806  12.256  0.1365  0.2709 -0.0771
19903W        W35977   7.334   0.839  16.768 -0.1680  0.0161 -0.2554
19904W        W35978   0.056  12.378   1.463  0.0442 -0.0230  0.0905
19905W        W35979  15.773   3.587   5.110 -0.2248 -0.0126  0.1338
19906W        W35980   0.394   5.512   6.289  0.1325  0.0560  0.0156
19907W        W35981   4.747  12.561   0.234 -0.0474  0.0081 -0.0993
19908W        W35982   9.340   2.812  16.265  0.1544  0.0632  0.0180
19909W        W35983   7.791  16.799  14.196  0.0337  0.1331 -0.1543
19910W        W35984   8.412   5.584   6.164  0.0419 -0.0074 -0.2498
19911W        W35985  11.513  10.591   4.212 -0.0996  0.0074 -0.1215
19912W        W35986   3.008  15.985  13.475  0.0427  0.1404 -0.3366
19913W        W35987  11.243   1.861   1.159  0.0344  0.0054  0.2290
19914W        W35988   7.363   6.143  15.698  0.3742 -0.2959  0.1714
19915W        W35989   1.217   5.952  12.885  0.1401  0.1340 -0.0189
19916W        W35990   6.866   6.953   3.469  0.2067  0.0733 -0.1544
19917W        W35991  13.738  17.559   4.318 -0.1167 -0.4379 -0.0811
19918W        W35992   3.043   3.441   0.661 -0.2195  0.2451  0.1792
19919W        W35993  14.550   1.822   5.159 -0.0732  0.1936  0.1421
19920W        W35994   2.501   7.478   2.275  0.1139 -0.0309  0.5169
19921W        W35995  13.582  11.454   2.752  0.4656  0.2316  0.0644
19922W        W35996  16.338  14.750   0.223 -0.2012 -0.0006 -0.0204
19923W        W35997   9.525  16.206  14.068  0.1377  0.0750 -0.1008
19924W        W35998  17.291  15.207  15.551 -0.2130  0.2408  0.4195
19925W        W35999   6.985   4.394   3.672 -0.3722  0.0833  0.0201
19926W        W36000  14.697   5.303  14.501  0.1441  0.0721  0.0153
19927W        W36001   4.378  10.827   4.251 -0.0746 -0.1334  0.5106
19928W        W36002  10.307   2.744   3.727 -0.1232  0.0564 -0.1852
19929W        W36003   4.231  14.350  15.658  0.0506  0.0000 -0.4168
19930W        W36004   1.196   6.455   6.219 -0.3407 -0.2572  0.0795
19931W        W36005  11.242   3.563  13.543  0.0376  0.1835  0.1479
19932W        W36006  10.399   5.177   5.792  0.1842 -0.0610  0.1353
19933W        W36007   8.250   1.708  15.342 -0.1221 -0.1152  0.3455
19934W        W36008  11.351  14.323  14.344 -0.3092  0.0857  0.0131
19935W        W36009  16.020   0.868  12.997  0.0308  0.1108 -0.2102
19936W        W36010   9.486   4.535   4.742 -0.1634  0.1273  0.0514
19937W        W36011   6.707  14.030   2.009 -0.1763  0.0915 -0.2635
19938W        W36012  12.771   7.575   3.386 -0.0880 -0.1187  0.0007
19939W        W36013   9.327   7.090   3.407  0.3365  0.0541  0.0275
19940W        W36014  16.384  11.924  14.892  0.1623  0.3227  0.1007
19941W        W36015  10.016   0.808  15.666  0.0889 -0.0747 -0.2084
19942W        W36016   4.707  10.171   1.467 -0.2311  0.3832 -0.2784
19943W        W36017  17.360   4.146  14.887  0.1235  0.0269  0.0338
19944W        W36018  11.305   0.663  14.368  0.0777  0.3236 -0.0422
19945W        W36019   6.319  13.708   2.180  0.0355  0.0405 -0.0175
19946W        W36020  10.243   1.835   2.755  0.2803 -0.0224  0.1134
19947W        W36021   7.811  17.556   5.531 -0.4076  0.2461 -0.1094
19948W        W36022   9.266   8.524   3.294  0.0353  0.0308  0.0977
19949W        W36023   9.303   0.911  12.498  0.0498 -0.0479 -0.3930
19950W        W36024  10.225   5.462  13.268 -0.0172  0.0470  0.2760
19951W        W36025  17.161  16.990  16.919  0.2246 -0.1726  0.0502
19952W        W36026   6.879  15.734  15.536 -0.0017 -0.2228  0.0629
19953W        W36027   9.519  14.230  16.017  0.2349 -0.2142  0.1537
19954W        W36028   0.986   6.096   4.415 -0.0819 -0.1831 -0.3940
19955W        W36029   6.285  13.404   3.145  0.0966 -0.1573 -0.1973
19956W        W36030   7.462   2.792  14.259  0.0404  0.2090 -0.3233
19957W        W36031  17.347  13.888   0.429  0.0879  0.0813  0.4191
19958W        W36032   6.981  14.291  14.541 -0.0711 -0.3031 -0.0243
19959W        W36033   1.744  11.882  15.823  0.0138 -0.2005  0.0751
19960W        W36034  11.501   3.276  15.772 -0.2084  0.3451  0.1217
19961W        W36035   3.346  11.412   3.326  0.0157  0.2470 -0.3027
19962W        W36036   6.261  10.242   4.337  0.2579 -0.3244  0.0551
19963W        W36037   7.885   6.092  15.780 -0.0682  0.2678  0.1537
19964W        W36038   2.396   6.286  12.212  0.0449  0.2657  0.0193
19965W        W36039  15.015   2.964  16.714 -0.0897  0.3637  0.1586
19966W        W36040   2.779   4.885   0.322 -0.1611  0.1932  0.5569
19967W        W36041   5.502   1.017  11.901 -0.1769  0.0506 -0.2034
19968W        W36042   6.313  11.357  13.525  0.1153 -0.1706 -0.1352
19969W        W36043   4.569   8.612  12.319  0.1045 -0.1103 -0.1717
19970W        W36044   1.338  16.656  13.652  0.1605 -0.1964  0.2658
19971W        W36045  17.202  10.748   0.651 -0.1292 -0.1391 -0.2025
19972W        W36046  11.509   7.623   2.048 -0.1205  0.0954 -0.2189
19973W        W36047   8.787  11.473  15.159 -0.1046 -0.3014  0.0693
19974W        W36048   4.626   3.332   0.798  0.0553  0.3511 -0.1192
19975W        W36049  13.180   8.336   3.946  0.0029  0.1713  0.0882
19976W        W36050  14.441  14.841   3.014 -0.0520 -0.2144  0.2356
19977W        W36051   4.747   8.748   2.528  0.1788 -0.0281 -0.0274
19978W        W36052   3.556  12.696   0.014 -0.0022  0.0702 -0.0528
19979W        W36053   4.613   8.520   1.185 -0.1910  0.1835  0.4266
19980W        W36054   8.624   8.943  16.670  0.1200  0.2031 -0.0340
19981W        W36055  10.845  10.271  13.884 -0.1016  0.1580 -0.0925
19982W        W36056   4.384  15.180  14.064  0.0451  0.2059  0.0457
19983W        W36057  11.279   7.619  14.234 -0.0341 -0.1021 -0.1438
19984W        W36058  15.989  10.639   0.627  0.0992 -0.0567 -0.1668
19985W        W36059   9.310   0.296  13.967  0.0774 -0.1067 -0.0225
19986W        W36060   5.764  13.386  12.253  0.2176 -0.2466  0.0731
19987W        W36061  13.899  15.357   1.872  0.1821  0.0522  0.1602
19988W        W36062   1.611  11.306   4.022 -0.0195 -0.0532 -0.2025
19989W        W36063  17.185  11.623   2.253 -0.0682 -0.2527  0.2216
19990W        W36064  11.090  13.543  13.579 -0.1096 -0.0264 -0.0937
19991W        W36065  14.974   8.795   4.516  0.2097  0.0507 -0.3653
19992W        W36066   1.575  12.914   2.651  0.0120 -0.2698  0.0989
19993W        W36067  12.395   6.021   5.250  0.0022 -0.3982  0.1104
19994W        W36068   1.981   7.379   6.047  0.2722 -0.1800  0.2667
19995W        W36069   9.019  13.992   5.503  0.4080 -0.2746  0.2530
19996W        W36070   7.797   7.983  11.964 -0.1075 -0.0285 -0.1576
19997W        W36071  16.478  10.130  13.008 -0.1779  0.1492  0.0854
19998W        W36072   5.076   4.447  11.413 -0.0133 -0.1504 -0.0630
19999W        W36073   7.910   3.551  12.192  0.1507 -0.0094  0.0815
20000W        W36074   1.141   2.559  17.091 -0.3153 -0.0252  0.2494
20001W        W36075   2.466   9.081   4.719  0.2972  0.3443  0.0338
20002W        W36076   2.885  16.955  15.294  0.0460 -0.1523  0.1007
20003W        W36077  13.375  16.795   2.332 -0.0629  0.0947 -0.1183
20004W        W36078  15.634   2.382   3.977 -0.0418  0.1511  0.3265
20005W        W36079  16.017  10.894   3.450  0.2628  0.3061 -0.4584
20006W        W36080   5.757   1.241   5.512  0.4345  0.1112 -0.1431
20007W        W36081   1.349   8.342  13.789 -0.3154  0.1560  0.0316
20008W        W36082  15.667  14.487  15.295  0.1352  0.0205 -0.2540
20009W        W36083  13.574   4.146  12.405  0.1225 -0.0795 -0.1443
20010W        W36084  16.565   1.109   3.325 -0.0391 -0.2307  0.1500
20011W        W36085   3.116   5.767  15.930 -0.1756 -0.4797  0.1857
20012W        W36086   9.959   1.032  14.664 -0.2175  0.1138  0.0595
20013W        W36087   5.626   4.193  12.375  0.0382 -0.2922 -0.0512
20014W        W36088   6.716   9.541   3.293  0.4458  0.2113 -0.0364
20015W        W36089   4.498  14.053  13.611 -0.0591 -0.0235 -0.2718
20016W        W36090   4.027  12.822   4.670 -0.3272 -0.0740  0.1243
20017W        W36091  17.446   6.683  14.674 -0.0864  0.1192 -0.0236
20018W        W36092   4.690   7.419   0.428 -0.2775 -0.0988  0.1093
20019W        W36093   1.733  10.866  13.402  0.1414 -0.0633  0.1686
20020W        W36094  12.727  16.392  16.863 -0.2399  0.1284  0.1407
20021W        W36095   1.808  14.205  11.919  0.0837 -0.3428  0.3231
20022W        W36096  11.286   3.921  16.573  0.0157 -0.1409 -0.2584
20023W        W36097   8.458  14.019   4.706 -0.0835 -0.0074 -0.0801
20024W        W36098   0.178  14.794   1.753  0.3577  0.2636  0.1919
20025W        W36099   8.884   5.076   3.418  0.0740 -0.3366  0.0086
20026W        W36100  16.069   3.293  16.861 -0.0066 -0.2091 -0.1901
20027W        W36101   1.846   2.788  16.127  0.0364  0.0609  0.1740
20028W        W36102   6.885  11.906  16.152 -0.4066  0.1998  0.0264
20029W        W36103   4.326   2.583  13.382 -0.0398  0.2017 -0.0180
20030W        W36104  16.560   8.037  15.512  0.1025 -0.1099 -0.0985
20031W        W36105  16.555  14.821   5.234  0.1186 -0.2191 -0.0640
20032W        W36106  10.392  10.771   3.196 -0.4461  0.1530  0.0869
20033W        W36107  16.419   7.375   4.989 -0.1149 -0.1546 -0.2097
20034W        W36108   5.463  17.495   0.039 -0.0242 -0.1979 -0.0961
20035W        W36109  15.478  12.971   3.034 -0.1398  0.1818  0.1276
20036W        W36110  12.344   3.950   2.190  0.1346  0.0032 -0.0504
20037W        W36111   4.051  12.950  12.320  0.1336 -0.5041  0.0705
20038W        W36112   1.330  11.405   3.272  0.0719 -0.2247  0.0483
20039W        W36113   4.772   3.877  14.726 -0.0281 -0.0566 -0.1526
20040W        W36114   7.854  10.952  14.167 -0.0010  0.2384 -0.1713
20041W        W36115   8.028   5.834   4.611  0.3043 -0.2846 -0.1667
20042W        W36116   1.474  13.486  16.464  0.1314 -0.1759  0.2218
20043W        W36117   2.225   6.773   4.251  0.0305  0.1091  0.1162
20044W        W36118  14.320   8.962  15.738 -0.2459  0.0757 -0.0117
20045W        W36119  15.431  10.088  15.117  0.0680 -0.1342  0.1783
20046W        W36120   3.280  10.982   5.884 -0.2620 -0.0983  0.2147
20047W        W36121   7.868   5.525  14.126 -0.1651  0.1111  0.0720
20048W        W36122   3.641   8.122  16.792  0.1637 -0.1714 -0.1556
20049W        W36123  11.245   3.741  14.026  0.1571 -0.3215 -0.2375
20050W        W36124   8.363   9.677  13.008  0.0066 -0.0572 -0.2601
20051W        W36125   6.899  14.240   1.441 -0.0154  0.0943 -0.1750
20052W        W36126   5.633   0.185   0.354 -0.1551  0.0552 -0.1433
20053W        W36127  16.946   2.198  15.419  0.2497  0.1154  0.1965
20054W        W36128  14.229   2.747  13.654  0.2708 -0.1921  0.1165
20055W        W36129  11.943  10.082   6.019 -0.1252 -0.0032 -0.0162
20056W        W36130   6.566   7.261  17.149  0.1203 -0.1194  0.0055
20057W        W36131   2.171  13.390   1.476  0.3294 -0.0437 -0.0587
20058W        W36132   9.582  10.689  14.420  0.1284 -0.2044 -0.0713
20059W        W36133   7.570  16.214  16.910  0.0322 -0.0409 -0.1225
20060W        W36134   8.901  10.888  12.488 -0.0291  0.1653 -0.1878
20061W        W36135  16.431   1.526   5.545  0.2355 -0.1809  0.1238
20062W        W36136   9.179  14.478  14.686  0.3705  0.4145  0.0972
20063W        W36137   1.336   7.376  16.947  0.3948  0.0869  0.2816
20064W        W36138  15.675   2.148  13.981 -0.0143 -0.6146 -0.0806
20065W        W36139  12.833  12.505   1.930 -0.1025  0.1593  0.0272
20066W        W36140  10.663   3.373  15.989 -0.0556  0.0792  0.1379
20067W        W36141   4.372   9.824   2.169 -0.0283  0.0216 -0.0366
20068W        W36142   9.195  12.627   4.103 -0.0166 -0.1986 -0.0913
20069W        W36143  13.597   2.741   1.962  0.3200  0.2263 -0.0390
20070W        W36144  17.393  12.291   3.918 -0.1217 -0.1353 -0.0867
20071W        W36145  12.359   2.691  14.037 -0.2780 -0.0070  0.1020
20072W        W36146   9.731   7.043   2.337 -0.1709  0.1960  0.1161
20073W        W36147   1.933   1.018  16.001 -0.1260 -0.1872 -0.2822
20074W        W36148  11.357  12.785  12.023  0.0891 -0.3381 -0.1608
20075W        W36149   7.002  12.804   5.090  0.0204 -0.1927  0.0081
20076W        W36150   5.276  16.966   0.800  0.0245 -0.3636 -0.2305
20077W        W36151  12.469  11.315   4.527 -0.2055  0.0543  0.1586
20078W        W36152   0.097   9.983   1.588 -0.1047 -0.3207 -0.0422
20079W        W36153  10.290   1.900   3.300 -0.1686  0.2685 -0.1452
20080W        W36154  16.949   5.860   4.886 -0.1094  0.0227  0.0529
20081W        W36155   9.974  15.823  11.923  0.1170  0.3858  0.1712
20082W        W36156  16.262   0.756   2.446  0.2443 -0.0087 -0.3757
20083W        W36157  16.127   5.036  14.259  0.1037  0.1915 -0.0636
20084W        W36158  13.243   8.686  14.704 -0.0991 -0.4138 -0.3588
20085W        W36159   7.267   5.161   2.722  0.0082  0.4158  0.2787
20086W        W36160   4.970  15.381   5.269 -0.0155 -0.1739  0.1287
20087W        W36161   3.722   4.839  14.212 -0.0852  0.0431 -0.0582
20088W        W36162  16.318  11.402   6.139  0.1502  0.1524 -0.0040
20089W        W36163   0.843  16.222   0.441  0.0354  0.0580  0.0079
20090W        W36164   9.724   8.961   0.555 -0.0970  0.2157  0.0428
20091W        W36165   3.922   8.762   3.177 -0.1611 -0.0666  0.1301
20092W        W36166   6.652   1.211   0.008  0.0585  0.0645  0.1293
20093W        W36167   2.249   9.851  11.816 -0.2924  0.1409 -0.1122
20094W        W36168  17.330   8.439  14.465  0.1273  0.0257  0.2934
20095W        W36169  14.465  10.108   4.762  0.0230 -0.0033 -0.4168
20096W        W36170   7.314  15.646   4.338 -0.3961  0.0282  0.1690
20097W        W36171   1.093   3.221  14.622  0.1519  0.0182  0.1630
20098W        W36172  13.263   7.009   2.727  0.0271  0.0311  0.0334
20099W        W36173   5.894   6.445  15.516 -0.0451 -0.0087  0.0233
20100W        W36174  15.274   9.762   3.109 -0.0908  0.3618 -0.1583
20101W        W36175   4.756   1.584   0.893 -0.1255 -0.3544  0.2936
20102W        W36176   7.640  10.236   0.019  0.3975  0.2016 -0.0601
20103W        W36177   4.050  15.686   4.991  0.0898  0.1723  0.2022
20104W        W36178  11.281  12.333   1.179 -0.1905  0.0213 -0.0938
20105W        W36179   8.280  15.957   2.364  0.1644  0.0130 -0.0571
20106W        W36180   5.948   9.303  17.089  0.0388  0.1080  0.2675
20107W        W36181  12.319   2.188  13.787 -0.4326 -0.1960 -0.0601
20108W        W36182   9.339  14.289  12.036 -0.0192 -0.0459 -0.0444
20109W        W36183   3.101   5.386   1.123  0.1856  0.1993  0.1862
20110W        W36184  16.458  16.123  15.382  0.0935  0.0087 -0.0727
20111W        W36185   1.024  17.408   1.744  0.1521  0.0207  0.1317
20112W        W36186   5.736  11.846  15.436 -0.0808  0.3750 -0.1775
20113W        W36187  11.361  14.707  11.738  0.0600 -0.2156 -0.2015
20114W        W36188  10.384   7.816   0.512  0.0508  0.1737 -0.1956
20115W        W36189   9.244  15.191   0.716  0.0877 -0.2647 -0.1973
20116W        W36190   9.817  16.792  16.901  0.2222  0.3471 -0.0408
20117W        W36191   4.502   2.557  15.693 -0.1122  0.0085  0.1570
20118W        W36192   2.085   6.110  14.838  0.1441  0.0425  0.2040
20119W        W36193   3.796   8.871  15.936 -0.0181  0.0306 -0.1991
20120W        W36194  11.746   0.041  16.897  0.1921 -0.1789  0.0667
20121W        W36195   1.807   9.159   6.238  0.0866 -0.0342 -0.0844
20122W        W36196  12.486  13.351   4.263  0.3343 -0.0756 -0.0576
20123W        W36197  17.046   3.564   6.076  0.2140  0.1639 -0.0515
20124W        W36198   9.967  17.577  14.540  0.0903  0.0683 -0.0497
20125W        W36199  10.999   0.805  13.245  0.1719 -0.1701  0.0144
20126W        W36200  17.615  10.821   1.536  0.0185  0.0844 -0.0458
20127W        W36201  17.605   3.410   3.830  0.0866  0.0494 -0.3240
20128W        W36202  10.416   1.597  15.699  0.0891 -0.0142  0.1255
20129W        W36203  14.219   5.633   3.382  0.0985  0.0865  0.3779
20130W        W36204  14.551   6.010  15.927  0.2072  0.0063  0.0432
20131W        W36205   9.641  15.587   0.548  0.2398 -0.0271 -0.0811
20132W        W36206   4.315  14.945   3.189  0.2203 -0.0303 -0.1001
20133W        W36207   8.359  11.058   4.745  0.1776 -0.0951  0.1999
20134W        W36208   8.920   1.634   4.227 -0.0624  0.1440 -0.3550
20135W        W36209  10.866   8.911   0.638  0.2923 -0.3566 -0.2825
20136W        W36210  14.374   8.434   1.556 -0.1079  0.0607  0.0371
20137W        W36211  13.486   8.525   2.753  0.2743 -0.2355 -0.0114
20138W        W36212  12.141   3.136   5.869 -0.1449  0.0075  0.0377
20139W        W36213  16.923   6.595   2.430 -0.5588 -0.1152  0.1025
20140W        W36214   5.091   8.746  13.851  0.0077 -0.2882 -0.1828
20141W        W36215  11.994   6.338   4.769 -0.1428  0.0145 -0.1439
20142W        W36216   2.863   4.942   2.642 -0.1445 -0.0493  0.0221
20143W        W36217  10.685  11.728   2.829  0.2072  0.4417  0.1034
20144W        W36218  16.862   3.159  16.584  0.4096  0.1775 -0.0132
20145W        W36219   7.537   7.311   3.039 -0.0803 -0.0345 -0.3154
20146W        W36220   4.591   3.067  14.146  0.0055  0.2043 -0.0899
20147W        W36221   6.223   7.495   4.318  0.1328 -0.1640 -0.1324
20148W        W36222  14.928  12.058   4.898 -0.1638 -0.1673  0.1308
20149W        W36223   4.858  13.415  12.495  0.1734 -0.1938 -0.2085
20150W        W36224  17.196   1.213  14.983  0.1716 -0.2441 -0.1920
20151W        W36225  12.798   9.641  12.191  0.0621 -0.2167  0.0152
20152W        W36226  14.655  10.315   5.158 -0.2516  0.0923  0.1705
20153W        W36227  16.910  13.695   0.170 -0.1953  0.2125 -0.1791
20154W        W36228   0.808  13.178   3.077  0.1546 -0.1894  0.1108
20155W        W36229  14.451  11.603   0.080 -0.1111  0.3433  0.3426
20156W        W36230   9.113   6.708   0.031  0.2442  0.2255 -0.1100
20157W        W36231   2.124   5.774   4.868  0.4932  0.1309 -0.3302
20158W        W36232   5.713  17.528   4.027  0.0695  0.2288 -0.0532
20159W        W36233  10.653   0.459  14.939  0.2856 -0.3874 -0.1412
20160W        W36234   6.089   3.449   3.644  0.1030 -0.1530  0.1781
20161W        W36235   3.376  11.256  16.175  0.1641  0.3445  0.1535
20162W        W36236  14.379  13.933   0.481  0.0506 -0.1762  0.1544
20163W        W36237  16.484  15.854   2.029 -0.3090  0.2321 -0.1457
20164W        W36238  16.545   4.819   0.565 -0.0596 -0.2099  0.1792
20165W        W36239   8.677   8.282  14.645  0.0236 -0.2323  0.2651
20166W        W36240   5.782   6.697   4.381  0.3056  0.2436 -0.1804
20167W        W36241  14.668   4.530   5.497 -0.2802 -0.0094 -0.0171
20168W        W36242  14.871  17.406  14.682 -0.1326  0.1603  0.0476
20169W        W36243   6.935  12.471   1.620  0.1925  0.2373 -0.3030
20170W        W36244   5.765  12.118  13.639 -0.2068 -0.2879 -0.2763
20171W        W36245   3.972   7.531  17.031  0.3157 -0.0107 -0.1221
20172W        W36246   4.562   4.053  17.129 -0.0320 -0.1705  0.1208
20173W        W36247   2.493  13.841  14.272  0.3711 -0.1700  0.0841
20174W        W36248   1.965   3.257   1.014  0.0214 -0.2777  0.3540
20175W        W36249  12.668   8.178  13.986  0.0258 -0.1197  0.2804
20176W        W36250  10.370   9.494   1.403  0.2466 -0.1303  0.2153
20177W        W36251   3.755   4.613  12.776 -0.1733  0.1174  0.1235
20178W        W36252  10.293   7.376  15.944  0.0659  0.0710  0.1218
20179W        W36253  14.416  16.878   2.172  0.0181  0.0682  0.0504
20180W        W36254  12.031  15.113   2.138 -0.1256 -0.1236 -0.1366
20181W        W36255   5.503  14.004   5.004  0.1205  0.3797  0.1612
20182W        W36256  15.889  12.263  12.869 -0.0111 -0.0484  0.0613
20183W        W36257   3.499  13.237  13.214  0.1005  0.2709 -0.0728
20184W        W36258  17.292   8.404   5.314  0.1205  0.0629  0.1123
20185W        W36259  15.946   7.358  14.173  0.0259 -0.0367  0.2136
20186W        W36260   7.035   9.137   4.544  0.0464  0.2695  0.1675
20187W        W36261  15.150   8.513  15.859 -0.0557  0.2456  0.2362
20188W        W36262   5.873  13.913  12.549  0.1450 -0.2437  0.0768
20189W        W36263   0.018   4.716  15.043  0.0580  0.2021  0.4350
20190W        W36264   1.160   2.311  12.532  0.0770 -0.0809 -0.0559
20191W        W36265  16.892  12.671   1.233 -0.1166 -0.2913 -0.0819
20192W        W36266   2.103   0.485  16.659 -0.0410  0.1518 -0.1677
20193W        W36267  16.971   8.422  16.382  0.0392  0.0576  0.1175
20194W        W36268   6.092   9.044  14.608 -0.1984  0.0281 -0.0105
20195W        W36269   9.780   8.471   0.621  0.1074 -0.1441  0.1245
20196W        W36270  10.481  15.917  16.696  0.0307 -0.0475 -0.1052
20197W        W36271  10.880   8.444  11.459  0.1283 -0.2198 -0.0743
20198W        W36272   3.698  14.597   4.875  0.0233  0.2739 -0.0135
20199W        W36273  17.208  15.546  17.076  0.0237  0.2892  0.0884
20200W        W36274  16.377  11.124  12.862  0.2637  0.0950 -0.2137
20201W        W36275  15.085   3.842  12.465  0.2056 -0.0482 -0.1426
20202W        W36276   5.329   0.608  16.647 -0.1113  0.1513 -0.0555
20203W        W36277   9.274   5.944  11.850  0.0350  0.2618  0.1271
20204W        W36278   5.626  15.935   1.281 -0.2156 -0.2400  0.0500
20205W        W36279  12.370   4.845  16.068  0.1076 -0.1655 -0.3128
20206W        W36280  10.311  14.645   5.678 -0.0398  0.0343 -0.1234
20207W        W36281   3.701  13.847   0.110 -0.1583 -0.0223  0.0577
20208W        W36282  15.875   2.578   4.947 -0.1822 -0.1903  0.0624
20209W        W36283  17.130   7.913   5.063 -0.1874  0.2547  0.0958
20210W        W36284   2.411   3.146  16.814  0.1959  0.0358 -0.3253
20211W        W36285   4.129  11.555  16.995 -0.2469  0.1211  0.0176
20212W        W36286   8.194   6.648  16.566  0.0834  0.2167  0.1879
20213W        W36287  10.474  16.726  15.293 -0.0624  0.3037  0.2155
20214W        W36288   0.360  14.260   2.024 -0.0194  0.0100  0.3351
20215W        W36289   4.974  17.320   6.438  0.2399  0.0637  0.3254
20216W        W36290  12.560   5.155  13.030  0.2570  0.1138  0.1447
20217W        W36291  15.433  10.208   2.812 -0.1572 -0.1846  0.1312
20218W        W36292   4.785   2.546   1.085  0.2903  0.0554 -0.4778
20219W        W36293  12.052  16.238   2.975 -0.1708 -0.1452  0.1018
20220W        W36294   0.590   1.531   0.569 -0.0642  0.0794  0.0799
20221W        W36295   2.239   8.739  15.744 -0.1594 -0.1948 -0.0077
20222W        W36296  15.635   8.513   0.688  0.1501 -0.0517 -0.0462
20223W        W36297  14.403   6.980   4.804  0.1106 -0.1904  0.2725
20224W        W36298   5.062  13.601   2.902 -0.0296 -0.0559 -0.2025
20225W        W36299   9.500   0.091  13.191 -0.0979 -0.1397 -0.2415
20226W        W36300   9.756   5.224   0.542  0.0896  0.0576 -0.2883
20227W        W36301  14.568  17.520   6.000  0.3321  0.3262  0.2615
20228W        W36302   1.201   7.302  13.729 -0.0855 -0.0035  0.1136
20229W        W36303   7.497  16.126  14.789  0.1699  0.1693 -0.0295
20230W        W36304   4.640   7.003   1.289 -0.0363  0.2109  0.1507
20231W        W36305  14.687   5.185  13.033  0.0672 -0.1842 -0.2013
20232W        W36306  14.788  16.644   6.065 -0.1050  0.1718 -0.1976
20233W        W36307  11.412   6.171  15.059  0.0075 -0.3010 -0.1984
20234W        W36308   1.178   1.293   5.617  0.3098 -0.2588 -0.3279
20235W        W36309  11.238   2.020  12.787 -0.0808  0.1991 -0.1086
20236W        W36310  14.422  16.439   3.391 -0.1356 -0.0695 -0.0006
20237W        W36311   7.435  13.421   1.907  0.3491 -0.1308 -0.0446
20238W        W36312   4.251   7.152  13.242 -0.3020  0.1979 -0.1584
20239W        W36313  10.897  13.910   5.880  0.2445 -0.0186  0.0635
20240W        W36314   3.734   6.600   0.063  0.2757  0.1032  0.1600
20241W        W36315   0.164   7.823   0.154  0.1089  0.1111 -0.1287
20242W        W36316  15.220   6.989  14.089 -0.1912 -0.0578  0.3234
20243W        W36317   6.932  15.464   0.939  0.1033  0.2241 -0.2448
20244W        W36318   5.408   0.687   3.937  0.0029 -0.2485  0.0696
20245W        W36319   2.870   6.278   1.879 -0.2844 -0.0120 -0.1144
20246W        W36320   6.982   6.228   3.047 -0.0182 -0.0160  0.1973
20247W        W36321   5.877   9.315   3.518  0.3140 -0.2455  0.2139
20248W        W36322   7.316  13.861   3.669 -0.1045 -0.0388 -0.2442
20249W        W36323   6.462   3.355  15.475  0.2164 -0.1439  0.0442
20250W        W36324  10.071  14.337  11.702 -0.4606 -0.3262  0.0380
20251W        W36325   4.032   7.164  16.613  0.2259  0.1342  0.1751
20252W        W36326   4.381   0.033   3.056 -0.0261  0.0651 -0.3800
20253W        W36327   2.529  12.191   1.403 -0.0394  0.2513 -0.0543
20254W        W36328  10.550   0.925   5.916  0.1434  0.1248  0.0552
20255W        W36329   7.236   4.597   4.517 -0.0774  0.1760 -0.2467
20256W        W36330   0.746  10.098   4.113 -0.2341  0.2205  0.3083
20257W        W36331   2.221  10.227   4.910  0.2906 -0.1028 -0.0263
20258W        W36332  10.106  16.262  16.469 -0.0692  0.1033 -0.0599
20259W        W36333  10.877  12.333  15.738  0.0137  0.0846  0.1452
20260W        W36334  12.819  13.981  16.071 -0.0469  0.3878 -0.3872
20261W        W36335   9.467  10.925   5.781 -0.1461  0.4749  0.0037
20262W        W36336  17.592   7.457  15.641 -0.0584 -0.0584  0.0496
20263W        W36337   2.186   1.831   2.608 -0.0154  0.1614  0.2205
20264W        W36338   5.788   1.255   2.204 -0.2183  0.0715  0.0266
20265W        W36339   1.508   8.086  16.887  0.2863 -0.1072  0.0191
20266W        W36340   6.552   3.210  12.660  0.0803 -0.0958  0.2960
20267W        W36341   5.203  11.334  16.447 -0.0424  0.0448  0.1799
20268W        W36342   8.523   6.995   1.698 -0.1362  0.1199 -0.0722
20269W        W36343   4.790  12.518   0.770  0.2764 -0.1834 -0.1343
20270W        W36344   0.713   2.263  15.499  0.2803 -0.0327 -0.0424
20271W        W36345  15.499  10.499   0.733 -0.2031 -0.1661  0.0996
20272W        W36346  15.268   2.173   5.632 -0.0651  0.1843  0.1274
20273W        W36347  14.147  13.797  15.395 -0.2869 -0.1076 -0.1100
20274W        W36348  12.382   2.435   0.709 -0.2859  0.0180  0.0517
20275W        W36349  16.277   1.005   5.798  0.1719  0.0194  0.2703
20276W        W36350   3.470   4.797  15.261 -0.2156 -0.3026 -0.1145
20277W        W36351  16.481  14.148  12.197 -0.1318 -0.4280  0.0371
20278W        W36352   8.268  14.078  14.375  0.3572  0.0711  0.1521
20279W        W36353   4.949  11.418   5.999  0.1373 -0.1623  0.0479
20280W        W36354  10.491   1.426   1.267 -0.1953 -0.4243 -0.2828
20281W        W36355   4.636  15.279   0.808  0.2657  0.1905  0.0118
20282W        W36356  10.897   8.900   3.747  0.1021  0.2036 -0.2755
20283W        W36357  11.079   0.888  16.639  0.0417  0.0231 -0.1316
20284W        W36358   2.953   0.343  12.051  0.2076  0.2265  0.3057
20285W        W36359  14.169   9.014  15.248  0.0511  0.0264  0.0585
20286W        W36360   0.979  17.079  16.348 -0.0368  0.2648 -0.1029
20287W        W36361  13.789   6.704  14.057  0.1881  0.0622 -0.0878
20288W        W36362  12.841  14.520   1.559 -0.1525  0.2327 -0.0694
20289W        W36363  11.078   9.463  15.886 -0.1877 -0.0731 -0.1021
20290W        W36364   9.059  11.755   6.347 -0.0477 -0.2496  0.1129
20291W        W36365  11.387  10.521   1.768 -0.2605 -0.1324 -0.1730
20292W        W36366   5.806   1.194   3.972 -0.1688  0.0396  0.1894
20293W        W36367  14.825   0.135  14.887 -0.0069  0.0503  0.0387
20294W        W36368   7.649   2.140   1.032 -0.0592 -0.1072  0.2577
20295W        W36369   8.181   4.248  14.275 -0.0240 -0.1122 -0.0953
20296W        W36370   5.852   1.930  14.015  0.1272  0.0171 -0.3085
20297W        W36371   3.679  11.099   3.668 -0.1776  0.0103  0.0979
20298W        W36372  15.466  16.656   0.535 -0.3257 -0.0367 -0.1122
20299W        W36373  10.297  12.789   1.593 -0.2606 -0.0548  0.0043
20300W        W36374   4.529   1.714  14.409  0.0183  0.1371  0.0083
20301W        W36375  16.319   7.902   6.328  0.2295 -0.0958  0.0044
20302W        W36376   9.653  14.120   0.284 -0.0772 -0.0221  0.0799
20303W        W36377  17.065  10.866   4.187  0.0423 -0.2411 -0.0754
20304W        W36378  15.564   9.769  12.063 -0.0973  0.0128  0.0750
20305W        W36379  14.756  11.649   3.437  0.0298  0.2860  0.2919
20306W        W36380   2.212  15.564  12.152  0.0285 -0.3548 -0.1802
20307W        W36381   5.906  14.241   3.653 -0.3718  0.2168  0.1044
20308W        W36382  13.789  14.575   1.517 -0.2927  0.2775  0.0750
20309W        W36383   9.964   7.377   2.598  0.2471 -0.1114  0.0608
20310W        W36384   7.037   7.071   4.044  0.2628  0.2934 -0.0849
20311W        W36385   2.927  17.318   0.503 -0.0556  0.0776  0.0254
20312W        W36386   0.744   2.044   0.668 -0.0048  0.2673  0.3377
20313W        W36387  13.723   2.670  14.845 -0.1376  0.2113  0.1785
20314W        W36388  17.545  11.351  14.792  0.0698  0.1818 -0.0278
20315W        W36389  13.903   8.452   1.371 -0.4744 -0.3732 -0.0387
20316W        W36390  15.641   7.591   5.608 -0.0199  0.0283 -0.0046
20317W        W36391  12.405   3.851   4.401 -0.1479 -0.1560 -0.0661
20318W        W36392  12.866  17.736   3.780 -0.2424 -0.0410 -0.1828
20319W        W36393   3.220   0.656   4.088  0.0466 -0.4612 -0.2575
20320W        W36394  13.552  13.300   0.147  0.1752 -0.1286  0.0994
20321W        W36395   3.496  10.908   0.756  0.0567  0.1648 -0.0066
20322W        W36396  10.901  17.128   2.377 -0.2357 -0.2631 -0.1719
20323W        W36397  13.327   9.280   3.048 -0.1228 -0.0238  0.2263
20324W        W36398   8.030   9.857  14.698  0.1296  0.1719  0.1369
20325W        W36399  13.568   7.849  13.697  0.3338  0.3896  0.1110
20326W        W36400   7.053   5.862   0.851  0.2711  0.2849 -0.0066
20327W        W36401   6.566  14.272  14.833 -0.0934  0.2292 -0.2985
20328W        W36402   0.866  17.651  11.991 -0.1599 -0.0727  0.0959
20329W        W36403   4.196  15.446   6.151  0.0795 -0.0291  0.3661
20330W        W36404  12.197   9.035  15.610 -0.0975  0.0435 -0.2064
20331W        W36405   8.785  12.328  13.038  0.1012  0.2177  0.0034
20332W        W36406  10.289   3.825  16.658  0.2240 -0.0225 -0.0337
20333W        W36407   3.885   6.520   4.353 -0.2806 -0.0540  0.2057
20334W        W36408  11.908  12.990   1.428  0.1671  0.3685 -0.1939
20335W        W36409   1.073   6.886  11.830  0.0152 -0.4598 -0.1043
20336W        W36410   2.912   1.076   2.642  0.1388  0.0749 -0.2726
20337W        W36411  11.129  15.707   1.186  0.0258  0.1212 -0.0752
20338W        W36412  10.128  11.630   4.027 -0.1058  0.0446 -0.1543
20339W        W36413  15.292   3.817   2.264 -0.1516 -0.0837 -0.1018
20340W        W36414  13.114  14.692  13.807  0.0482 -0.1264  0.0599
20341W        W36415   6.064   1.888  16.789  0.0123 -0.1666 -0.1638
20342W        W36416   2.636  16.722   4.679 -0.2914 -0.1954 -0.1499
20343W        W36417   0.851   9.804  15.792  0.2653 -0.2622  0.1511
20344W        W36418   2.168  14.025  15.559  0.1432  0.0465 -0.0096
20345W        W36419   1.146  14.197   1.343 -0.0499 -0.1578 -0.1480
20346W        W36420   8.077   7.996  16.963 -0.1490  0.2445 -0.1049
20347W        W36421   3.350   4.027  14.071  0.1466 -0.1077 -0.2269
20348W        W36422   9.987   1.851  13.402 -0.3583  0.1096 -0.1566
20349W        W36423   5.519  16.951   3.486 -0.1110 -0.3576 -0.1083
20350W        W36424   8.168   6.177   3.671 -0.0729  0.2037 -0.1072
20351W        W36425   1.562  16.395  15.653 -0.1718 -0.1146  0.3295
20352W        W36426   3.325  13.839   4.916 -0.0760 -0.0496 -0.2022
20353W        W36427   5.458  13.904  14.548  0.1922 -0.0428  0.2781
20354W        W36428  15.003  13.344  14.062  0.0617  0.2024  0.0877
20355W        W36429   0.972  17.547  15.611  0.0824  0.1423 -0.0234
20356W        W36430   9.633   7.995  12.699 -0.0511  0.0662  0.2739
20357W        W36431   1.058   8.695   5.124 -0.0269  0.0666  0.0586
20358W        W36432   8.486   1.435   2.914  0.2165 -0.0407  0.0408
20359W        W36433   8.340   3.885   5.908  0.1080  0.2994  0.0870
20360W        W36434  16.757   7.005   2.759  0.0476 -0.3316  0.2873
20361W        W36435   5.705  10.787  13.361  0.0170 -0.1024  0.3794
20362W        W36436   8.202   3.721  14.951  0.1234 -0.0411 -0.2251
20363W        W36437   9.649  16.930  15.444  0.1933  0.1686  0.0124
20364W        W36438   1.569   9.120   4.486 -0.1570 -0.1412 -0.1640
20365W        W36439  12.703   5.934   2.088 -0.0260  0.0045 -0.0368
20366W        W36440   7.348  11.021   1.619 -0.1364  0.2266  0.1717
20367W        W36441  10.598  14.625   3.429  0.0493  0.1077 -0.0760
20368W        W36442   9.396  11.949   1.201  0.1118  0.1371  0.1909
20369W        W36443   4.799   0.685   2.188  0.0637 -0.1423  0.1890
20370W        W36444  11.083   6.922  12.679 -0.2758 -0.0832  0.1191
20371W        W36445   8.074  11.458   4.607  0.0634  0.1574 -0.2477
20372W        W36446  11.281   8.372   1.296  0.4950 -0.0257 -0.2301
20373W        W36447  10.240   6.346   4.133 -0.0431 -0.1736  0.0297
20374W        W36448  15.238  12.288   2.268  0.0212  0.0054  0.1718
20375W        W36449   9.350  14.410  17.121 -0.3423  0.0389 -0.1444
20376W        W36450  10.975   7.085   5.138  0.0510 -0.0266  0.2835
20377W        W36451   8.419  16.399  15.703  0.1422  0.0176 -0.1924
20378W        W36452  16.789   9.314  13.232  0.0192  0.1429 -0.1633
20379W        W36453   0.547   6.981   2.360  0.1915 -0.0217  0.1483
20380W        W36454  11.990   9.480   3.085 -0.1689  0.1094  0.0847
20381W        W36455  11.903   7.941   5.774 -0.3228  0.0133  0.1947
20382W        W36456   5.656   6.862   3.899  0.0314 -0.1083  0.1278
20383W        W36457  12.562   2.278   1.721  0.2439  0.1535 -0.0753
20384W        W36458  14.982  16.677   5.376  0.0199 -0.0606 -0.0307
20385W        W36459   1.506  13.007  12.704  0.0209  0.1275 -0.0974
20386W        W36460   8.733   6.123   0.621 -0.0790 -0.2067 -0.0094
20387W        W36461  15.762  14.659  11.803  0.0606  0.3155 -0.0277
20388W        W36462   6.369  16.533   4.722 -0.0707  0.1220 -0.0858
20389W        W36463  17.026  12.457   5.917 -0.0654 -0.0647 -0.2352
20390W        W36464   8.530   2.815  14.597 -0.1020  0.0887  0.1321
20391W        W36465   7.457  16.828   1.345 -0.2030  0.0314  0.1968
20392W        W36466  13.416  16.206   4.873 -0.0084  0.0591  0.0632
20393W        W36467  14.380   3.376   3.935  0.0032  0.0020  0.1248
20394W        W36468  16.423  16.042  14.792  0.3144  0.0310 -0.0849
20395W        W36469  16.655   0.394   4.935  0.0950  0.0530 -0.3183
20396W        W36470  16.316   2.875  14.528 -0.1677  0.4056 -0.0036
20397W        W36471   4.074  12.333   2.809 -0.0085  0.0383 -0.1025
20398W        W36472  10.893  14.020  13.298 -0.1052  0.0702  0.1137
20399W        W36473  10.839  11.289  15.417 -0.4238 -0.0436  0.0530
20400W        W36474   8.845   6.418  10.824  0.0705  0.1852  0.4765
20401W        W36475   5.331   0.448   2.213 -0.1513 -0.1174 -0.2882
20402W        W36476  13.464   9.223   2.113 -0.3261  0.1703 -0.3103
20403W        W36477   3.286   0.782   5.955 -0.2718 -0.2666  0.0908
20404W        W36478  17.294   1.272  12.751 -0.2588  0.0886  0.0607
20405W        W36479   5.496  10.432   4.797 -0.1557 -0.1251  0.3228
20406W        W36480   9.583   3.357   1.476 -0.0490  0.0528 -0.3596
20407W        W36481   2.395  17.462   5.082 -0.0680  0.0771  0.1749
20408W        W36482   1.893  15.451  13.771 -0.2938 -0.0670  0.0296
20409W        W36483  12.500   5.742  12.427 -0.0068 -0.1680  0.0389
20410W        W36484   6.601  10.678   2.357 -0.1062  0.0425  0.1623
20411W        W36485  10.670  15.031  14.141  0.1123 -0.0952  0.1145
20412W        W36486   8.636   5.059   1.024 -0.0662  0.1303  0.1590
20413W        W36487   4.001  11.683  14.775  0.2372  0.0360 -0.0811
20414W        W36488  10.974  17.480   1.593  0.0974 -0.0128 -0.0962
20415W        W36489   5.723   5.738   5.462 -0.1369  0.0562 -0.1578
20416W        W36490   0.714  16.230   5.929  0.2324 -0.1419  0.1755
20417W        W36491   0.524  15.055   3.799 -0.0899 -0.4587 -0.1504
20418W        W36492   3.097   1.772   0.785 -0.2922  0.0885 -0.0884
20419W        W36493   5.997  10.250  13.397 -0.0510 -0.2351  0.1340
20420W        W36494  14.170   6.057   5.442 -0.0733  0.3746 -0.2033
20421W        W36495  14.938  12.333  15.704 -0.0089 -0.1771 -0.2143
20422W        W36496  14.563   7.259   3.478 -0.2765  0.0565 -0.0174
20423W        W36497  16.098  11.613  15.239  0.4215 -0.0869  0.2198
20424W        W36498  13.301  16.850   1.374 -0.1889 -0.2165  0.1609
20425W        W36499   6.420   5.463  14.848  0.0304 -0.1904 -0.0676
20426W        W36500  10.794  16.279   0.110  0.0608  0.0836  0.3482
20427W        W36501   7.793  10.228  11.882  0.1233 -0.0676  0.2511
20428W        W36502   8.813  15.209   0.294 -0.0392 -0.1165  0.1605
20429W        W36503  16.804  15.538  14.527 -0.2241  0.2016  0.1749
20430W        W36504   2.786  15.827  12.344  0.1482  0.2489  0.1311
20431W        W36505  14.846  17.299   0.017 -0.0724 -0.2349 -0.5546
20432W        W36506   2.782  12.249   2.636 -0.2393 -0.0350 -0.1299
20433W        W36507   6.202   6.673  15.131  0.1289 -0.0804  0.5937
20434W        W36508  13.216  16.722  12.908  0.2659 -0.0266 -0.1039
20435W        W36509  10.669   5.478  12.447  0.0821  0.0178  0.1853
20436W        W36510  14.969   2.331   3.877  0.3074  0.0084 -0.0745
20437W        W36511  15.928  17.396   1.507  0.2115  0.0361  0.2166
20438W        W36512  13.482  17.308   6.179  0.1047 -0.2356  0.1600
20439W        W36513   8.448  14.029   1.399  0.1962 -0.2059 -0.1214
20440W        W36514  15.450   4.458  11.757 -0.0829 -0.2497  0.0949
20441W        W36515   0.941  11.811   5.385  0.1812  0.0901 -0.1298
20442W        W36516  16.407   1.838   4.190 -0.2208 -0.0262 -0.0745
20443W        W36517  10.497   5.242   4.355 -0.0633 -0.1008 -0.1242
20444W        W36518   4.239   1.955   1.526 -0.0704  0.0408 -0.1406
20445W        W36519   5.812  17.455  12.199 -0.4584 -0.0416 -0.0329
20446W        W36520   6.149  17.351   1.399 -0.2051 -0.1157  0.1213
20447W        W36521  16.900  11.899   0.044  0.3534 -0.1771  0.0299
20448W        W36522  16.281  16.878   4.835 -0.1196  0.2722 -0.4038
20449W        W36523  13.034   0.213   4.637 -0.0884 -0.2756 -0.0780
20450W        W36524   0.055   2.470  12.941  0.0778  0.2433 -0.0281
20451W        W36525  16.252  11.134   4.455 -0.3125  0.1628 -0.1567
20452W        W36526   1.920   7.843   4.756 -0.1511  0.1682 -0.0303
20453W        W36527   9.684   2.663  13.817  0.2793 -0.2341  0.3514
20454W        W36528   9.340   3.852  12.843 -0.2920 -0.1204 -0.1632
20455W        W36529  17.649  10.402   3.271 -0.0162 -0.1329 -0.1493
20456W        W36530  15.599   4.579  12.535  0.0341 -0.0189 -0.0243
20457W        W36531  11.375   7.538   4.796  0.1599 -0.0328  0.2783
20458W        W36532  15.048  16.230  12.822 -0.2666 -0.0171  0.0034
20459W        W36533  10.242   4.136  13.604  0.0746  0.2421 -0.2831
20460W        W36534  11.553  15.432   3.167  0.1601 -0.0300 -0.1490
20461W        W36535   4.907   4.293  13.128 -0.0914 -0.0048 -0.1026
20462W        W36536  16.990   6.478   6.310 -0.0801 -0.0036 -0.0907
20463W        W36537  14.809   1.116   5.389  0.0820  0.0770 -0.1700
20464W        W36538  10.781  14.110  14.310  0.2866 -0.0568  0.0776
20465W        W36539   2.897   4.268  14.189  0.0500 -0.3392  0.0647
20466W        W36540   2.847   0.477  15.517  0.1186 -0.0036  0.1220
20467W        W36541  17.458  14.421  13.874  0.1676 -0.3043 -0.1168
20468W        W36542  16.131  12.700  15.516 -0.1996  0.2618 -0.3034
20469W        W36543   0.220   3.978   2.764 -0.0032 -0.0720  0.0616
20470W        W36544   6.233  16.330   1.625 -0.1625  0.3910 -0.2560
20471W        W36545   5.132   1.395  12.034 -0.2365  0.1089 -0.0205
20472W        W36546   3.574  13.673   4.445  0.0667  0.0720 -0.1599
20473W        W36547  10.909  16.775  13.509  0.1651 -0.0779 -0.0354
20474W        W36548   3.184  15.725   5.030 -0.2415 -0.1662  0.0435
20475W        W36549   3.972  11.602  13.982 -0.2348 -0.2000  0.0043
20476W        W36550   7.724   6.702  14.185  0.0116  0.1245 -0.1288
20477W        W36551  10.921   6.650   1.785 -0.0067 -0.2456  0.2365
20478W        W36552  12.539   4.167  16.914  0.0358  0.0812 -0.1356
20479W        W36553   6.572   7.972  15.500 -0.0084  0.1347 -0.1094
20480W        W36554  16.357   8.701   4.542  0.1366 -0.1674 -0.0562
20481W        W36555   9.492   1.437  13.489  0.1779 -0.7368 -0.1395
20482W        W36556   3.182   2.028  13.732  0.3300 -0.0413  0.0599
20483W        W36557   5.537  14.617   6.440 -0.0209  0.1660 -0.0500
20484W        W36558   7.686  16.902  16.745 -0.2314 -0.1159 -0.2538
20485W        W36559   9.796   3.693  12.141  0.0555 -0.0817  0.0830
20486W        W36560  10.975  14.824   3.696 -0.1087 -0.1654  0.2110
20487W        W36561   2.117   0.135  15.253 -0.0451  0.0656  0.2535
20488W        W36562   5.958   1.123  13.097  0.1088 -0.1897  0.0287
20489W        W36563  11.138   2.548  15.069 -0.4031 -0.3581  0.2064
20490W        W36564  10.150   3.061  15.951  0.1751  0.1128  0.0876
20491W        W36565   9.958  13.345  15.201 -0.0164 -0.1004  0.0745
20492W        W36566   3.921   2.884  14.665 -0.2851  0.1216  0.2156
20493W        W36567  10.840  15.502   3.409 -0.0516 -0.1625 -0.0281
20494W        W36568   5.106   4.691  14.334  0.1182  0.1946  0.1042
20495W        W36569  14.593  15.256   0.010  0.2294  0.2891  0.3242
20496W        W36570  14.021   2.225   0.739 -0.2205 -0.0018 -0.0262
20497W        W36571   5.997  10.176   4.734  0.3197  0.0435 -0.1082
20498W        W36572  10.286   6.045  15.497 -0.1121 -0.0402  0.0616
20499W        W36573   1.178  11.736  16.517  0.0284 -0.1275 -0.1918
20500W        W36574   2.323   6.122   1.778  0.3030 -0.2155  0.3298
20501W        W36575  16.429   2.645   2.722 -0.1573  0.0769 -0.3084
20502W        W36576  16.404  11.803  16.477  0.0952  0.1308 -0.3142
20503W        W36577   9.762   8.478   2.255 -0.0006  0.0133  0.1190
20504W        W36578   6.309  17.632  11.405  0.0427 -0.0742 -0.1181
20505W        W36579   5.607  15.364   5.301  0.2340 -0.1474  0.1607
20506W        W36580  16.565   6.448   2.862 -0.1168 -0.1697  0.0819
20507W        W36581   2.229   7.595   5.113  0.0209 -0.1532  0.0414
20508W        W36582   7.371   8.850   5.899  0.0619 -0.1500  0.3644
20509W        W36583  13.838   5.223  15.091 -0.0304  0.1547  0.1808
20510W        W36584   2.302   4.904  16.371  0.2516  0.0238  0.3018
20511W        W36585  12.188  16.086  16.572  0.1694  0.0675 -0.3120
20512W        W36586   6.201   2.135   5.981 -0.1804  0.0487 -0.3669
20513W        W36587   8.335   7.412   4.237  0.0697 -0.0113  0.0193
20514W        W36588   1.463  17.596   0.400 -0.0913  0.3629 -0.0058
20515W        W36589  10.473   2.388   3.143  0.0140  0.1127  0.0030
20516W        W36590  14.917   6.845   1.694  0.1816 -0.1031 -0.1967
20517W        W36591   6.085  13.747   3.631  0.1304  0.2901  0.0810
20518W        W36592   8.002   2.893  14.486  0.0574 -0.1376  0.1510
20519W        W36593  14.450   8.899   2.386  0.2122  0.1376  0.3086
20520W        W36594  15.355  10.982  11.491 -0.0029 -0.1017  0.0363
20521W        W36595   6.205   4.581   5.592  0.0244 -0.2439 -0.1180
20522W        W36596   9.458  14.369   5.427 -0.0376 -0.1181 -0.2246
20523W        W36597  11.477   4.584  11.890  0.3013  0.0266 -0.3895
20524W        W36598  14.984   9.143   0.608 -0.0501 -0.2686  0.0025
20525W        W36599   6.053  12.919   4.202  0.1723 -0.2435  0.0771
20526W        W36600  14.410  12.933   3.538 -0.2151  0.0723 -0.0546
20527W        W36601  16.371   4.007   0.937 -0.0052 -0.2355 -0.1994
20528W        W36602  14.119   9.914   2.370 -0.0172 -0.1285 -0.3697
20529W        W36603  11.973  16.710  15.299  0.1365 -0.2558 -0.2222
20530W        W36604   6.398   5.438   1.273  0.2465  0.0480 -0.1427
20531W        W36605  17.013  13.667  14.458  0.3082  0.1084 -0.3017
20532W        W36606  10.413  11.914   1.222  0.2241 -0.2508 -0.1476
20533W        W36607   1.845   7.734  14.163  0.1204 -0.2770 -0.2777
20534W        W36608   8.086   0.271   0.553 -0.0016  0.1133  0.1571
20535W        W36609   1.227   3.805  14.299  0.2772 -0.3195 -0.0771
20536W        W36610   0.371  14.316  16.122  0.0815  0.2390  0.2450
20537W        W36611  11.803  13.530   0.823  0.1095 -0.1805 -0.0321
20538W        W36612  10.055  12.236  15.888  0.0631  0.2630 -0.1497
20539W        W36613  13.050   6.536   3.219 -0.2128 -0.1218  0.0650
20540W        W36614   5.793  11.293   2.149 -0.1964 -0.1958  0.2681
20541W        W36615  10.898   4.693  13.623 -0.0529 -0.1223 -0.1536
20542W        W36616   6.188   2.000   3.938 -0.1230 -0.1349  0.0892
20543W        W36617   1.349   1.434  13.954 -0.0022  0.0349  0.2035
20544W        W36618  17.581   0.089   3.361 -0.2559 -0.2213  0.1072
20545W        W36619   0.157   6.466   3.980 -0.0144  0.4430  0.0750
20546W        W36620   2.321   5.135   1.929 -0.0310 -0.1847  0.1817
20547W        W36621  17.056  10.824  15.735  0.0101 -0.2577  0.0926
20548W        W36622   8.125   3.374   2.795  0.0369  0.1997  0.2582
20549W        W36623  15.082  16.508  16.535 -0.0474 -0.2974 -0.0473
20550W        W36624   9.819   1.290   5.248  0.0050  0.0551 -0.2423
20551W        W36625   8.498   3.976   0.134 -0.2903  0.0235  0.3713
20552W        W36626  12.028  11.990   4.178  0.1264 -0.0610 -0.1948
20553W        W36627  16.276  12.464   4.730 -0.0379 -0.0534 -0.2124
20554W        W36628   5.147   0.030  14.069  0.2131  0.0169  0.3874
20555W        W36629  16.235   1.606  15.855 -0.0773  0.0038 -0.1982
20556W        W36630   9.157   5.395  15.526  0.2100  0.1898 -0.1478
20557W        W36631  16.406   8.998   5.989  0.1687  0.4129 -0.0342
20558W        W36632   8.444  12.755   0.018 -0.1151  0.1892  0.2335
20559W        W36633   0.461   6.541   4.930  0.1773  0.1390 -0.2022
20560W        W36634   5.672   4.216  14.246  0.0606  0.0048 -0.1615
20561W        W36635   3.597  14.401  15.606 -0.2003  0.1818  0.2878
20562W        W36636   2.273  12.383   2.349  0.2303  0.2382  0.1391
20563W        W36637   7.291   2.359   1.338 -0.1584 -0.0802 -0.3996
20564W        W36638   1.747   6.415   5.706  0.1131  0.0745  0.3023
20565W        W36639  15.872  10.383   1.102  0.2089 -0.1650 -0.1349
20566W        W36640  17.116  10.119   2.556 -0.3369  0.1492  0.3221
20567W        W36641   7.323   7.878  14.442  0.2125 -0.0671  0.3408
20568W        W36642  15.382  17.378  13.241  0.1399 -0.0841 -0.0554
20569W        W36643  17.372   5.122  13.134  0.1254 -0.2726  0.3516
20570W        W36644  11.192  13.626  15.995 -0.2378  0.3060 -0.1034
20571W        W36645  10.794   6.178   3.893  0.2346 -0.1609  0.3056
20572W        W36646   4.915   1.284  15.278  0.3019  0.2355 -0.1038
20573W        W36647  10.630   4.661  14.793 -0.2424  0.2513  0.2142
20574W        W36648  10.972   1.875  14.323 -0.0909 -0.0130 -0.1649
20575W        W36649   0.856   1.597   5.384 -0.1362  0.2892 -0.0220
20576W        W36650  16.408  11.392  11.783 -0.0930 -0.1208  0.1400
20577W        W36651   4.516  17.706   5.506  0.0113 -0.2749  0.0774
20578W        W36652   8.033   4.934   0.886  0.0201 -0.1815 -0.1034
20579W        W36653   8.354   9.590  14.317  0.1917  0.1700 -0.0663
20580W        W36654   9.534   3.935  13.843 -0.3541 -0.0636 -0.0216
20581W        W36655   5.790   2.576  14.845 -0.2776 -0.2765 -0.0153
20582W        W36656   8.057   2.411  16.132  0.1525  0.1050  0.1618
20583W        W36657   2.778   9.932   3.688  0.1629 -0.0011 -0.0063
20584W        W36658  14.432  15.477   5.443  0.1603  0.1443 -0.0234
20585W        W36659   0.192   6.515  13.076  0.3606  0.3667  0.0001
20586W        W36660  12.590   2.235  16.017 -0.1995  0.2300  0.0959
20587W        W36661  15.041   5.770  15.177 -0.0193  0.1571  0.1918
20588W        W36662  17.408  15.757  13.741  0.0997 -0.0034  0.2403
20589W        W36663  13.346   2.059  13.508 -0.0491  0.2669  0.1513
20590W        W36664   9.615  14.970   3.692  0.1128 -0.1577  0.0335
20591W        W36665  10.356  15.849  13.384  0.2350 -0.1833  0.0911
20592W        W36666  12.946  14.029   0.808  0.1084 -0.1940 -0.1778
20593W        W36667  16.843   3.038  13.878  0.0684  0.0421  0.0004
20594W        W36668   5.449  14.860  16.011  0.0573 -0.3167 -0.0558
20595W        W36669  13.487   1.509   1.218  0.0868 -0.0312  0.0057
20596W        W36670   3.197  17.366   2.826 -0.0555  0.0101 -0.0905
20597W        W36671  15.995  17.015   1.171 -0.1175  0.1093  0.1446
20598W        W36672  16.590   6.924  13.067  0.0816  0.0813  0.1699
20599W        W36673   2.520   9.668   5.591 -0.0300  0.0234  0.0442
20600W        W36674  14.600  10.206   2.452 -0.0947  0.1280 -0.0468
20601W        W36675  14.547   7.116  15.737 -0.0358  0.0777  0.2282
20602W        W36676   9.309  14.626  13.396  0.0912 -0.1223  0.4892
20603W        W36677   6.093  17.198  14.770 -0.0927  0.2052  0.2902
20604W        W36678   1.295  10.445  16.389 -0.0133  0.1096 -0.0269
20605W        W36679   1.242   0.759   2.464 -0.2925 -0.0239 -0.2333
20606W        W36680  10.218   2.686  12.455 -0.2565  0.1689 -0.0617
20607W        W36681  12.496  13.110   2.118 -0.2744 -0.0787  0.1345
20608W        W36682   6.018   7.024   1.686 -0.1332  0.1595 -0.1144
20609W        W36683   9.395  17.533   3.642  0.1223  0.1347 -0.0414
20610W        W36684  12.434  15.529  11.742  0.2206 -0.1816 -0.1845
20611W        W36685   4.142   6.116  15.320 -0.0215  0.2632 -0.1965
20612W        W36686  14.685   1.110  13.674  0.2747 -0.1405 -0.1932
20613W        W36687  15.823   9.557   1.487 -0.2951  0.1375  0.0264
20614W        W36688   1.476   2.333   6.305  0.0568 -0.0209 -0.0623
20615W        W36689   5.770   3.995   2.697 -0.2301  0.1080  0.2009
20616W        W36690   1.517   3.382   0.615 -0.1944  0.1909 -0.0632
20617W        W36691  15.746   2.931  13.818 -0.0152 -0.0525  0.0213
20618W        W36692  14.035  10.095   0.082 -0.1605  0.0377  0.0243
20619W        W36693   1.079  10.550   2.015  0.0454  0.3408 -0.2830
20620W        W36694   5.725  16.045  14.069 -0.2450  0.2216  0.1295
20621W        W36695   7.343  13.903   5.245  0.1437 -0.0819 -0.1043
20622W        W36696   0.854  13.823   0.755  0.1598 -0.0508  0.2857
20623W        W36697  12.289  10.360  11.765  0.0378 -0.0393  0.0968
20624W        W36698   2.402   3.585   5.669  0.0333 -0.1132 -0.2516
20625W        W36699  10.885  17.139   5.551  0.0161  0.0834 -0.2598
20626W        W36700   3.634  15.794  14.284  0.1975 -0.3432  0.1516
20627W        W36701   1.894   4.845   3.580  0.2191  0.1602  0.2145
20628W        W36702   6.925   8.624   1.367  0.2610 -0.1632  0.1717
20629W        W36703   0.428   2.410   4.968 -0.3472  0.0617  0.0253
20630W        W36704  14.096  15.062  11.526  0.2638  0.0921 -0.1071
20631W        W36705   5.588   5.529  11.935  0.3297 -0.1078  0.1559
20632W        W36706   6.526  11.132  16.035 -0.1705  0.0027  0.3423
20633W        W36707  15.228  12.396   5.167  0.0475  0.0654 -0.0169
20634W        W36708  16.368  12.196  13.861  0.1105 -0.1190 -0.0290
20635W        W36709   6.732   1.239  12.551  0.1761  0.1087  0.2390
20636W        W36710   4.009   7.747  11.471  0.0163  0.2267 -0.0003
20637W        W36711   2.621  14.883  15.711 -0.1182 -0.3158 -0.1642
20638W        W36712  14.743  12.317   3.021  0.0434  0.1020  0.2424
20639W        W36713  16.955   7.913  16.567  0.1656 -0.0591 -0.2054
20640W        W36714   5.965   8.060   3.370 -0.1348  0.3213  0.0118
20641W        W36715   1.299  10.862  11.631 -0.0137 -0.0370  0.0200
20642W        W36716  11.333   1.057   5.007  0.0673 -0.0364  0.0887
20643W        W36717   3.689  14.362  16.457  0.0885 -0.1192  0.0319
20644W        W36718  17.089  11.066   0.327  0.0560 -0.1780 -0.2730
20645W        W36719   9.257  11.051  14.492 -0.3343  0.2197  0.0723
20646W        W36720  11.367  12.969   1.563 -0.1907 -0.0711  0.1497
20647W        W36721   5.075  13.742  16.956 -0.0447 -0.1499 -0.2248
20648W        W36722   0.901   1.977  14.516  0.1351  0.0885  0.2248
20649W        W36723   2.079   5.046   4.414 -0.0161  0.1479  0.4496
20650W        W36724  12.905   5.657  14.335 -0.1020  0.2037 -0.0193
20651W        W36725  16.380  17.159   0.632  0.2636  0.1811 -0.2278
20652W        W36726  10.328   6.577   4.622  0.3160 -0.1609 -0.3653
20653W        W36727   1.169  16.547   0.168  0.1514  0.1541 -0.1961
20654W        W36728   0.294  11.231  15.712  0.2177 -0.1255 -0.0674
20655W        W36729   9.204   5.986   1.278 -0.0779  0.0875 -0.1098
20656W        W36730   3.094   2.526   2.723  0.0542  0.3776 -0.1935
20657W        W36731   4.652   7.978  14.105 -0.1941 -0.1891 -0.2775
20658W        W36732   5.472  16.574  16.704 -0.1152  0.1762  0.0079
20659W        W36733  11.785   7.618  14.254 -0.0370 -0.2208  0.0147
20660W        W36734   8.854   7.740   1.377  0.2879  0.1719  0.0096
20661W        W36735   7.807   2.371   0.592 -0.1652 -0.1744  0.1325
20662W        W36736  10.811  15.014  14.638 -0.1733  0.0247  0.0203
20663W        W36737   9.197  14.300   1.121  0.2997 -0.0047 -0.0311
20664W        W36738   7.495   6.278  13.453  0.1049  0.1063  0.3156
20665W        W36739   1.915   0.952  16.577  0.0515  0.2966  0.0889
20666W        W36740   6.043   4.515  12.421  0.2859  0.0524 -0.1080
20667W        W36741   0.857   6.183   1.160 -0.2096  0.1275  0.1171
20668W        W36742  10.085  13.979   2.917 -0.3317 -0.1296 -0.2658
20669W        W36743   6.523   9.314  16.177  0.0285 -0.0050  0.1632
20670W        W36744   5.116  12.300   1.685 -0.0190  0.2170  0.0780
20671W        W36745   2.758  13.167  17.076 -0.0466  0.0825  0.1207
20672W        W36746   6.851  14.387  11.975 -0.1974  0.2288  0.1273
20673W        W36747  15.194   4.906  11.629  0.1406 -0.2055  0.1545
20674W        W36748   8.793  16.184   5.197  0.0984 -0.1394 -0.2097
20675W        W36749   8.514   7.893   4.100  0.2013  0.0689  0.3040
20676W        W36750   7.683   4.172  13.546  0.1049 -0.2643  0.3048
20677W        W36751   0.137  13.377  15.946  0.1131  0.1897  0.0234
20678W        W36752  11.504   0.133  13.025  0.2251 -0.0041  0.1079
20679W        W36753   9.734   7.730  14.304 -0.1986 -0.0081 -0.3185
20680W        W36754  10.745  11.585  16.372  0.0782  0.0771 -0.2039
20681W        W36755   3.504   6.371   4.722  0.0557 -0.0409  0.0420
20682W        W36756  13.329  10.144   1.763 -0.2596 -0.1559 -0.2715
20683W        W36757   0.354   6.238  14.049 -0.0605  0.1027  0.2008
20684W        W36758   5.418   9.276  13.643  0.3350 -0.4030 -0.3843
20685W        W36759   4.791   8.462  16.335  0.1242 -0.4324  0.1239
20686W        W36760  17.513  14.422   4.242 -0.1113  0.1206  0.3647
20687W        W36761   4.090   9.611  16.330  0.0365  0.4777 -0.3909
20688W        W36762   7.645  11.227   1.180  0.1464  0.0998 -0.0402
20689W        W36763   4.445   3.031  16.004 -0.0940 -0.0021 -0.1521
20690W        W36764   1.748   7.105   4.525  0.0295 -0.2235  0.0520
20691W        W36765  15.345  13.267   2.036  0.1301  0.0019  0.0133
20692W        W36766   3.604  14.291   0.871 -0.0708 -0.3931 -0.2685
20693W        W36767  13.989   7.626   6.147  0.0122 -0.2659 -0.1599
20694W        W36768   7.279  13.101   2.887 -0.1006  0.0642  0.0890
20695W        W36769  13.228   4.988  16.489  0.0178  0.2759  0.0657
20696W        W36770   8.425  15.793  15.058  0.1042  0.1414  0.1171
20697W        W36771   4.727  16.578   1.970 -0.2325  0.0115  0.3551
20698W        W36772   0.214   1.502  14.762 -0.4322 -0.0699  0.0377
20699W        W36773   3.687  11.603   0.161  0.0147  0.1504  0.4188
20700W        W36774   8.638   7.104  15.798 -0.1368 -0.1550  0.0144
20701W        W36775   4.336   5.036  14.970  0.3281  0.0950  0.3244
20702W        W36776   0.270   5.258   1.817  0.2592  0.1392 -0.3999
20703W        W36777   9.966   8.026  13.386  0.1506 -0.0415  0.1717
20704W        W36778   4.335  10.463  16.358  0.4442 -0.2740  0.2284
20705W        W36779   6.175   0.681  12.912  0.0821 -0.1240 -0.5074
20706W        W36780   7.187  17.258   3.334  0.1129 -0.1864  0.1662
20707W        W36781  12.065   2.687   3.509 -0.1251 -0.0607  0.0247
20708W        W36782  14.735  14.463  11.922  0.1935  0.1562  0.0276
20709W        W36783   6.843   2.068  14.341 -0.2642  0.1866 -0.1522
20710W        W36784  16.909   6.723   3.776  0.2246 -0.0986 -0.0515
20711W        W36785   1.763  13.560  14.760  0.2149 -0.1210 -0.3886
20712W        W36786   5.990  15.909  15.145 -0.0152 -0.0029  0.1473
20713W        W36787   4.357   1.740   0.599  0.0580  0.2771  0.0575
20714W        W36788   3.261   0.703  15.729  0.1516 -0.0367 -0.0237
20715W        W36789  14.693   4.455   4.993 -0.0782 -0.0405  0.0943
20716W        W36790  16.908  10.285   3.450 -0.4344  0.2051 -0.1847
20717W        W36791   7.551  17.705  16.587  0.1532 -0.2856 -0.2587
20718W        W36792  13.183   8.399  16.535 -0.0129 -0.1226  0.3359
20719W        W36793  12.117  10.651   4.373 -0.0305 -0.1153 -0.1858
20720W        W36794  14.075  17.738  13.279 -0.3626  0.0172  0.1801
20721W        W36795   1.734  12.658  16.914  0.1678  0.1356  0.0392
20722W        W36796   6.523  13.034   2.244  0.0811  0.1141  0.1242
20723W        W36797   6.845  13.531   2.220 -0.2361 -0.3932 -0.1431
20724W        W36798   6.538  15.165   1.069 -0.2282 -0.1060  0.1050
20725W        W36799   2.274   1.762   3.629 -0.2401 -0.1434  0.0204
20726W        W36800  10.680  15.336   1.140  0.1317  0.0670 -0.3109
20727W        W36801  11.743   5.365  12.623 -0.0361 -0.3702 -0.2485
20728W        W36802   8.756   6.451  12.399  0.1879  0.1724 -0.1592
20729W        W36803   0.965  15.636   2.546  0.3646  0.1333  0.0292
20730W        W36804  10.860   2.095  13.826  0.2731 -0.2759  0.1139
20731W        W36805   4.256   8.278  14.046 -0.0433 -0.2538  0.3495
20732W        W36806  10.411   4.122  11.170 -0.1398  0.1800 -0.2885
20733W        W36807   1.036   7.041  12.738  0.0735  0.0030 -0.2246
20734W        W36808   8.535   6.743  15.474 -0.0233  0.3480  0.2259
20735W        W36809   4.761  13.236   5.005 -0.2645 -0.1660  0.1954
20736W        W36810   3.138  10.245   0.587  0.3098 -0.0235  0.0680
20737W        W36811   0.679   2.580  16.013  0.1716 -0.0208 -0.0450
20738W        W36812   9.237  12.535  14.915  0.2619 -0.0820  0.3002
20739W        W36813  14.109   7.018  15.979 -0.0091  0.0869  0.0045
20740W        W36814   0.297  14.379  12.050 -0.2091  0.0316  0.1820
20741W        W36815   1.878   1.486   3.371 -0.1459 -0.1952 -0.0145
20742W        W36816   7.626   0.121   0.752  0.1232  0.5121  0.1607
20743W        W36817  11.724   1.501   1.758 -0.1695  0.0967  0.0832
20744W        W36818   8.885  11.960  16.979 -0.2277 -0.2014  0.2365
20745W        W36819   2.395   2.340  16.638  0.0450 -0.0445  0.0026
20746W        W36820   6.697  13.475  12.523  0.1402  0.2247  0.1259
20747W        W36821  11.411   4.779   2.395  0.1814  0.1982 -0.2158
20748W        W36822  14.907   4.041  12.885  0.0748 -0.0120  0.0753
20749W        W36823  15.185  13.635   1.687  0.1830  0.1702  0.2031
20750W        W36824   5.012  12.913  12.060  0.1765  0.3750  0.0135
20751W        W36825  12.125  10.052   3.384  0.0924  0.2516 -0.0437
20752W        W36826  14.829   4.177   0.026 -0.1225  0.3042  0.1598
20753W        W36827  10.742   2.434   1.531 -0.0416 -0.2430 -0.0113
20754W        W36828  11.151   6.037   1.315 -0.0652  0.0175  0.1640
20755W        W36829  10.953   3.556   3.163 -0.0544 -0.1884  0.1284
20756W        W36830   7.858   4.193   3.382  0.0387 -0.1969  0.0034
20757W        W36831  16.696  10.900  15.366 -0.0514 -0.0982  0.1005
20758W        W36832   5.639   4.053  16.674  0.1240 -0.1692 -0.1088
20759W        W36833   9.386   5.542  17.054  0.1003 -0.2928 -0.2515
20760W        W36834  14.075   1.631  14.771  0.2085  0.0233  0.0811
20761W        W36835   8.034   2.852   1.879 -0.2096 -0.1501 -0.0968
20762W        W36836  12.276   6.300   5.709 -0.0129 -0.5587  0.0551
20763W        W36837   3.313   6.399  15.136 -0.3430 -0.1101  0.0013
20764W        W36838   1.438   0.306  14.982 -0.1456 -0.1613  0.1437
20765W        W36839  13.413   3.105   3.650 -0.2205 -0.0992  0.2882
20766W        W36840   2.641   9.090  12.321  0.1738  0.1409  0.0737
20767W        W36841   1.228  10.503   5.600  0.0368 -0.0695 -0.2398
20768W        W36842   6.339  14.176   3.343 -0.1035  0.1330 -0.0223
20769W        W36843  10.438   0.932  13.189 -0.2754  0.0199  0.1131
20770W        W36844  14.510  14.482  15.986 -0.0959  0.0967  0.0602
20771W        W36845   0.183  15.208  13.240 -0.2575  0.3748 -0.1435
20772W        W36846   4.132  14.696   0.183 -0.3408  0.3760 -0.2012
20773W        W36847   6.719   9.680  15.299 -0.1862  0.0979 -0.0212
20774W        W36848  16.180   9.997  12.191 -0.2332 -0.3710 -0.1069
20775W        W36849  15.768  15.242   5.127  0.0969 -0.0822 -0.0101
20776W        W36850  11.100   5.190   1.691 -0.0524  0.0864 -0.1102
20777W        W36851   1.122  15.628  16.009 -0.2753  0.0081 -0.0270
20778W        W36852   9.709   2.702   4.369 -0.0406 -0.1787 -0.1139
20779W        W36853   5.375   0.630   0.556  0.3745  0.1309  0.0765
20780W        W36854  17.432   2.854  11.330  0.0357  0.2493 -0.0490
20781W        W36855   3.089  17.269  12.906 -0.0788 -0.2117 -0.1805
20782W        W36856   8.813   9.451  14.566  0.2711  0.1380  0.3234
20783W        W36857  14.538   7.267  12.847  0.0276 -0.2183  0.0648
20784W        W36858   5.463  14.026   2.398 -0.3060  0.1398  0.0145
20785W        W36859  13.631   2.339  13.873 -0.0979 -0.1482  0.2109
20786W        W36860   7.958  14.790  13.014  0.4743 -0.2113 -0.0548
20787W        W36861  14.561  10.989   4.250 -0.0724 -0.1821 -0.2158
20788W        W36862  13.095   9.706  12.675 -0.0270  0.1622 -0.0429
20789W        W36863   2.324  15.192   3.927  0.0687 -0.1156 -0.2122
20790W        W36864   9.148   8.414  15.462  0.1768  0.0759 -0.2604
20791W        W36865   2.333   1.234  14.512 -0.0038 -0.1632  0.0106
20792W        W36866   4.937  11.634   0.329  0.3011  0.0657  0.0052
20793W        W36867   9.032   1.348   4.577 -0.4003 -0.1512 -0.6756
20794W        W36868   8.199   1.231   4.831  0.1045 -0.6097  0.1945
20795W        W36869   4.982  12.270   2.564 -0.1964  0.1286  0.3131
20796W        W36870  14.665  12.157   3.532 -0.1936  0.2054 -0.2217
20797W        W36871  14.329   2.122   2.003  0.0446  0.0884  0.0299
20798W        W36872   6.273  15.036   4.971 -0.3154 -0.3041 -0.1846
20799W        W36873  17.698  11.415   4.037 -0.0137 -0.4198 -0.0527
20800W        W36874  14.802   1.232  12.174  0.1690  0.0425  0.2791
20801W        W36875   6.288   2.887  16.028 -0.0339  0.0392 -0.0510
20802W        W36876  13.099   9.722   5.237 -0.2188  0.0987  0.0989
20803W        W36877   8.292  17.247  13.079  0.0902 -0.0548  0.4921
20804W        W36878  17.002   9.332   5.027 -0.1726  0.1685  0.0648
20805W        W36879   3.056  15.465   0.141  0.1431 -0.0862  0.5002
20806W        W36880  12.632   2.172   2.704 -0.0295  0.1632  0.0340
20807W        W36881  13.892  11.646  15.358 -0.0425  0.2551 -0.2126
20808W        W36882  15.126  15.847  16.610  0.0615 -0.0618 -0.0777
20809W        W36883  17.291  12.190  15.100 -0.2592  0.3399  0.1712
20810W        W36884  17.101  11.302   0.769  0.2011 -0.0801 -0.2404
20811W        W36885  14.575   0.380   4.639  0.0005 -0.5027  0.0055
20812W        W36886   1.469  11.682   3.667  0.2854  0.1506  0.2741
20813W        W36887  14.307  17.035   6.673  0.0541 -0.1476  0.0688
20814W        W36888   4.298  12.382   0.535  0.1267 -0.0045 -0.0863
20815W        W36889   6.457  10.943  13.792  0.0237  0.0487 -0.1325
20816W        W36890  17.733   6.328   0.715 -0.0332  0.3242  0.4666
20817W        W36891   7.402  17.694  13.007  0.0350  0.0796  0.2340
20818W        W36892   8.869   2.598  14.220 -0.1281 -0.0582  0.3211
20819W        W36893  15.698  16.582  13.599 -0.0485 -0.1162  0.2186
20820W        W36894  12.910  17.363  14.510 -0.0117 -0.0825  0.0431
20821W        W36895   6.277  17.180   0.346 -0.0206 -0.1656 -0.4320
20822W        W36896  10.960   7.073   0.914 -0.3969 -0.0349 -0.1499
20823W        W36897  15.623  12.562   2.835 -0.2430 -0.0460  0.4190
20824W        W36898  11.719  11.407   3.641  0.1893  0.1741  0.1204
20825W        W36899  17.329   3.652   3.442  0.0268  0.2769 -0.0037
20826W        W36900  11.229   1.313  13.676 -0.2208 -0.2861  0.1593
20827W        W36901   1.609  10.455   0.064  0.3378  0.0767  0.2000
20828W        W36902   7.021   0.738   3.339 -0.6814  0.2556  0.2189
20829W        W36903   4.204  17.691  14.999 -0.0084 -0.3241 -0.0504
20830W        W36904   6.374  12.279  13.442 -0.0735  0.1557 -0.1719
20831W        W36905  15.707  16.223   5.086  0.1050  0.5021  0.1923
20832W        W36906   1.003  16.104   2.735  0.1110 -0.1651  0.0900
20833W        W36907  16.530  10.683  13.084 -0.4006  0.1527 -0.1679
20834W        W36908   0.152  12.469  13.244 -0.0406 -0.0865  0.0379
20835W        W36909   2.970  12.258  15.388  0.0467 -0.3500  0.2783
20836W        W36910   4.185   1.892  13.919  0.3291 -0.1544  0.1541
20837W        W36911   8.986  15.765  14.890  0.0547  0.0408  0.0291
20838W        W36912   2.632   8.108  11.202  0.0385  0.0643 -0.1653
20839W        W36913   0.326  10.878  13.423 -0.0139 -0.2283 -0.1344
20840W        W36914   4.292  12.558  16.539 -0.0901 -0.4872  0.0279
20841W        W36915   0.757   2.113  15.996 -0.0323  0.0612  0.1150
20842W        W36916   0.298   7.333  15.829  0.2493  0.1789 -0.0936
20843W        W36917   5.517   6.299  12.192 -0.0978  0.0410  0.2996
20844W        W36918  10.411  11.198  17.160 -0.3948 -0.3391  0.0524
20845W        W36919  15.495   1.464  15.441  0.0099 -0.0533  0.2127
20846W        W36920   7.709   3.919   4.502  0.0688 -0.1031  0.0776
20847W        W36921  13.643   0.766   5.279  0.1705 -0.2266  0.1352
20848W        W36922   0.764   0.922  12.162 -0.0030 -0.1790 -0.1449
20849W        W36923   7.150  16.276   6.503 -0.3100  0.0070 -0.0785
20850W        W36924  12.790  10.840  13.259 -0.1668  0.1184 -0.0343
20851W        W36925  14.634   8.366  16.945 -0.0238  0.0121 -0.1420
20852W        W36926   0.936   1.211   0.789  0.2860 -0.1715 -0.0550
20853W        W36927  12.057   4.707   0.316  0.0280  0.1940  0.0209
20854W        W36928  17.572   0.144  14.307  0.1537 -0.0487  0.0645
20855W        W36929   8.742   2.961   5.453 -0.1546  0.1326  0.0833
20856W        W36930   7.725   9.410   3.932 -0.1839  0.0134  0.1145
20857W        W36931  12.973  17.272   1.191  0.1742 -0.0524  0.1834
20858W        W36932  11.371  15.869   5.073  0.0416  0.2107 -0.0772
20859W        W36933   9.008   4.990   4.328 -0.0312 -0.0917 -0.0196
20860W        W36934   0.856   5.307   5.575 -0.1448  0.2837 -0.0715
20861W        W36935  15.447   0.609   4.219  0.1425 -0.2801  0.0324
20862W        W36936   7.064  13.937  15.157 -0.0946 -0.0490  0.1289
20863W        W36937   6.097  13.317  14.683  0.0498 -0.0947  0.2382
20864W        W36938   0.331  11.172   2.256 -0.0374 -0.5529 -0.1835
20865W        W36939  16.593  17.633   3.528  0.2468 -0.0673  0.2154
20866W        W36940  12.367  13.978   0.837 -0.2115  0.3568 -0.2889
20867W        W36941   8.396  10.763  12.486  0.1628 -0.4410 -0.2893
20868W        W36942  15.850   6.454  13.992  0.4611  0.0372 -0.1254
20869W        W36943   2.442  10.948   5.192  0.0963 -0.0409 -0.0145
20870W        W36944   2.627  16.185  16.218  0.0827 -0.1326 -0.3293
20871W        W36945   2.293  13.909  13.204  0.1579  0.0091  0.2805
20872W        W36946   9.408   9.472   4.474 -0.3067 -0.0888 -0.0798
20873W        W36947  16.358   7.346  13.836 -0.0036 -0.0184 -0.1719
20874W        W36948   5.685  11.055   2.556 -0.3361  0.0029  0.2123
20875W        W36949   2.558  14.494   2.754  0.1912  0.0279 -0.0365
20876W        W36950   5.787   7.444  15.601 -0.0550  0.1688 -0.0532
20877W        W36951   4.704   9.707   3.888  0.1093  0.0722 -0.2134
20878W        W36952  15.254   8.280   0.861 -0.0520  0.0041  0.0200
20879W        W36953  17.631  13.371  12.686 -0.0538  0.2388  0.0121
20880W        W36954   9.112   2.695   3.355 -0.0853 -0.0027 -0.0028
20881W        W36955   1.285  14.512   3.965 -0.2600  0.0713  0.2920
20882W        W36956   5.173   9.425   6.214 -0.0397  0.2036 -0.1057
20883W        W36957   9.982   7.601  12.695  0.0280 -0.4030  0.2238
20884W        W36958   3.977  11.869   4.621 -0.2044 -0.2889 -0.0826
20885W        W36959  10.895  17.389   3.222 -0.0791  0.3023  0.1144
20886W        W36960  17.587  16.919   5.072  0.0229 -0.2013  0.1070
20887W        W36961  15.049   2.630   5.497  0.1309  0.0930  0.1618
20888W        W36962   1.419  14.477   0.968  0.0958 -0.1055  0.1872
20889W        W36963   3.115   1.727   3.473 -0.0843  0.0070  0.2638
20890W        W36964   0.959  15.738  14.589  0.4074  0.2316 -0.0229
20891W        W36965  11.044   4.190   5.878 -0.3227 -0.0863  0.2190
20892W        W36966   3.211  12.364   6.044 -0.1646 -0.1076  0.1227
20893W        W36967   1.439  13.666   5.368 -0.1293  0.0481 -0.1823
20894W        W36968   3.719   3.251   1.607 -0.1163 -0.0051  0.0331
20895W        W36969  10.503   9.776   1.020  0.1151  0.1224 -0.1892
20896W        W36970  15.130  13.349   5.109  0.0132 -0.1976  0.0616
20897W        W36971   1.006   2.157  16.851  0.1341  0.1665 -0.0458
20898W        W36972  10.090   9.303  15.636 -0.0026 -0.3112 -0.1211
20899W        W36973   7.280   4.963   1.192  0.1606  0.2115  0.0958
20900W        W36974   4.349   5.314  10.937  0.0148  0.0394 -0.2117
20901W        W36975  11.313   0.794   0.022 -0.1202 -0.1137 -0.3659
20902W        W36976  11.501   6.979  13.643 -0.0812 -0.0502 -0.2721
20903W        W36977   0.601   8.071  17.088 -0.0376 -0.0203  0.2038
20904W        W36978   6.369   4.628   4.237  0.1099 -0.3855  0.1155
20905W        W36979  10.939   2.109  12.315  0.0307  0.0368 -0.0571
20906W        W36980   3.352  12.036  14.973  0.3553 -0.1925 -0.0024
20907W        W36981  15.635  15.703   5.182 -0.1155 -0.7020  0.2220
20908W        W36982  14.280   8.017   1.924  0.0493  0.2221 -0.0692
20909W        W36983  11.655   6.369   0.816 -0.1147 -0.0753  0.2232
20910W        W36984   1.860   3.096  12.919 -0.0666 -0.1055 -0.1534
20911W        W36985   4.445  17.223   4.767  0.2022 -0.1213  0.2905
20912W        W36986  10.875  13.881  14.811  0.1047  0.1957 -0.1158
20913W        W36987   2.312   4.985   4.983 -0.0514  0.2956 -0.0922
20914W        W36988   5.990   6.196   4.353 -0.0610 -0.0454  0.0817
20915W        W36989  15.657  16.905   5.625 -0.0463 -0.1782  0.0134
20916W        W36990  12.949  15.841   0.663  0.2438 -0.2387 -0.0311
20917W        W36991  16.844   2.659  12.363  0.2819 -0.1288 -0.2219
20918W        W36992  16.690   1.257   2.898 -0.1462 -0.0481  0.3082
20919W        W36993   0.947   7.265  13.313  0.1578 -0.0503 -0.1848
20920W        W36994  10.299   7.383  14.261 -0.2828 -0.0773  0.0650
20921W        W36995   4.599  15.419   1.319 -0.2835 -0.1347  0.0069
20922W        W36996   6.539  12.741  13.732 -0.0479  0.6059 -0.0384
20923W        W36997   5.238  16.186  14.917  0.1560 -0.1098 -0.0095
20924W        W36998  12.720   6.610  16.501  0.1434  0.0267 -0.1330
20925W        W36999  10.102  13.698  12.488  0.0298  0.3145  0.2343
20926W        W37000   9.961   2.436   0.245 -0.2374 -0.2169 -0.0994
20927W        W37001  12.554   8.011   3.237  0.0597 -0.0647  0.2230
20928W        W37002  16.086   7.935   0.610 -0.2134 -0.1410  0.0340
20929W        W37003   2.961   2.247   3.160 -0.0040  0.1148 -0.3533
20930W        W37004   6.582   0.612   2.381 -0.3808 -0.1359 -0.0322
20931W        W37005  14.891   0.667  14.401 -0.3427 -0.0562  0.1250
20932W        W37006  16.804  14.268  15.200  0.1823 -0.2999  0.0225
20933W        W37007  16.832  11.489  13.704 -0.3019 -0.0795  0.1069
20934W        W37008  11.761   7.617  15.017  0.0688 -0.2334  0.0312
20935W        W37009   5.833   6.535   3.425  0.0321 -0.1585 -0.3473
20936W        W37010  16.870   7.426  16.506 -0.0172  0.1229 -0.0008
20937W        W37011   0.240  10.128  14.033  0.1550  0.2076 -0.0363
20938W        W37012   3.657  15.716  11.766 -0.0214  0.2720  0.0842
20939W        W37013   9.354  13.906  16.931 -0.1244  0.1228  0.0661
20940W        W37014  12.287  15.323   0.498  0.1928 -0.2107 -0.0684
20941W        W37015   9.347  12.531   0.511  0.1514  0.1132  0.0607
20942W        W37016  10.584   5.158  12.863 -0.0356  0.3465  0.2738
20943W        W37017   6.268   5.166   0.898 -0.3915 -0.2984 -0.2781
20944W        W37018   5.584  10.992   3.059  0.0077  0.2392 -0.1922
20945W        W37019   1.596   9.940  13.491 -0.1833 -0.0116  0.0223
20946W        W37020  17.157   8.559  13.374  0.1319  0.0915  0.0366
20947W        W37021   1.215  10.937  16.590  0.2888 -0.2075  0.2186
20948W        W37022   8.064   4.048   1.529  0.3492  0.0056  0.2807
20949W        W37023  11.783   9.015   3.050  0.0597  0.0537  0.0788
20950W        W37024   2.922   3.557   4.792  0.0336  0.1991  0.1691
20951W        W37025   0.568  17.260  14.468 -0.0419 -0.0469 -0.0597
20952W        W37026   4.085  11.155  13.784  0.2079  0.1459 -0.2000
20953W        W37027   4.088   9.921  15.489  0.3493 -0.2458  0.1106
20954W        W37028  15.700   8.500   3.998  0.1973  0.3581 -0.1322
20955W        W37029  14.883   0.694   2.726 -0.0691 -0.0637 -0.2149
20956W        W37030  12.999  12.479   0.088 -0.0959  0.1047  0.0127
20957W        W37031  14.974  13.327  15.568  0.4012 -0.0073  0.0167
20958W        W37032  16.365   0.219   6.000 -0.2224  0.1650 -0.2063
20959W        W37033  16.065  16.085  14.397 -0.2033 -0.1335 -0.4679
20960W        W37034   2.076   5.913  12.107 -0.0506 -0.3644  0.0304
20961W        W37035   2.609  13.394  16.174  0.2868  0.1807 -0.1685
20962W        W37036  15.467  16.948   0.988 -0.1666 -0.0165 -0.3310
20963W        W37037  14.357  15.050  15.269  0.1889  0.0285 -0.3909
20964W        W37038  13.112  15.369   3.246 -0.2940 -0.0515 -0.0334
20965W        W37039  16.461  15.123  12.320  0.2514 -0.2339 -0.3439
20966W        W37040   3.963   8.512  16.891  0.0418  0.0012  0.2089
20967W        W37041   0.773   6.688  14.378 -0.0010  0.0234  0.3365
20968W        W37042  17.598  17.270   5.458  0.1992 -0.0523 -0.1901
20969W        W37043  10.259  14.281   3.705 -0.0067  0.0739 -0.3101
20970W        W37044   4.999  13.298  13.481 -0.1921 -0.0360  0.0809
20971W        W37045  17.335  10.993  17.108  0.1149 -0.1334  0.3148
20972W        W37046   9.843   6.037  16.723 -0.2519 -0.2043  0.2361
20973W        W37047   4.303   9.327  14.233  0.0664 -0.2638  0.1629
20974W        W37048   4.778  12.749   2.342  0.0514 -0.1502 -0.0353
20975W        W37049   4.282  14.466   5.618  0.1756  0.2181  0.1687
20976W        W37050   4.340   1.498  11.592  0.0317  0.0846 -0.1904
20977W        W37051  17.735  13.094  17.135  0.0328 -0.0004  0.0402
20978W        W37052  15.316  14.684  13.404 -0.0131 -0.2612  0.2190
20979W        W37053   5.327  11.600  13.652  0.1094 -0.3654  0.0925
20980W        W37054   5.147  14.551   3.903  0.0430 -0.1332 -0.0694
20981W        W37055   4.206   5.902  11.722 -0.2534 -0.2428 -0.0217
20982W        W37056   7.855   3.403   4.643 -0.2863  0.4050  0.0660
20983W        W37057   5.348   5.200  17.026  0.0804 -0.2011 -0.0204
20984W        W37058   3.279   9.778  15.154 -0.0156  0.0437  0.3244
20985W        W37059   8.013   3.095  15.549  0.1985 -0.1255  0.4279
20986W        W37060  12.004   2.874  15.221 -0.0961  0.0402 -0.1660
20987W        W37061  14.725  17.661   3.868 -0.0334  0.1289  0.1631
20988W        W37062  10.246   6.443  13.614  0.0128 -0.0534 -0.2397
20989W        W37063   3.269  15.565   2.863 -0.1670 -0.0473  0.1098
20990W        W37064   4.303  14.042   4.385  0.5022 -0.0735  0.1205
20991W        W37065   7.325   7.213  14.228 -0.1563  0.3944 -0.2697
20992W        W37066  12.234  15.928   2.096  0.1744  0.2434  0.2695
20993W        W37067  12.471  13.676   1.260 -0.1305  0.1625 -0.0383
20994W        W37068   0.562  16.171   2.976  0.0167 -0.0024 -0.0930
20995W        W37069  16.249   5.853   1.232 -0.3384  0.1782  0.0102
20996W        W37070   2.857   4.889  10.714  0.0927 -0.1263 -0.0434
20997W        W37071  11.497  12.236   0.143  0.3246  0.4017  0.0243
20998W        W37072   5.760  14.023   5.718 -0.2122 -0.3252  0.0839
20999W        W37073  16.254  15.565  14.607  0.0177 -0.1472 -0.2874
21000W        W37074   1.774   7.230   0.945  0.0447 -0.3300 -0.2033
21001W        W37075   7.634  13.557  15.962 -0.1570 -0.0085 -0.0202
21002W        W37076   6.890   9.274  13.143 -0.1512  0.1477 -0.0709
21003W        W37077  14.040  15.232   1.101 -0.2585 -0.1425 -0.1075
21004W        W37078   1.071   0.016   2.641 -0.1126  0.1293  0.0879
21005W        W37079   4.146   6.498  14.803 -0.1745  0.2013  0.2476
21006W        W37080   3.820   0.246   3.278  0.0759  0.1668 -0.1943
21007W        W37081  13.186   5.248   6.048 -0.1349 -0.0121  0.0217
21008W        W37082   1.249   7.932   2.362 -0.1629  0.1034  0.0270
21009W        W37083   7.418  11.530   4.809 -0.2913 -0.0477 -0.1077
21010W        W37084  10.853  11.074  11.403 -0.4611 -0.1402 -0.0519
21011W        W37085  13.846   4.581   3.772  0.2470  0.0690  0.0765
21012W        W37086   3.647   6.971  11.653 -0.0131 -0.1297  0.3982
21013W        W37087  11.097  14.553  13.436  0.1133  0.4703 -0.3329
21014W        W37088  16.921   4.914  12.948 -0.0008  0.1295  0.1665
21015W        W37089  15.816   1.924  13.543 -0.1351 -0.0252 -0.0662
21016W        W37090   3.590   5.943  15.234 -0.4672  0.0435 -0.3701
21017W        W37091   4.665   5.978   2.367  0.1436  0.1531  0.2591
21018W        W37092   5.122  14.131   4.710 -0.2069  0.0763 -0.0605
21019W        W37093   5.216  14.645   5.648 -0.0529  0.0476  0.3377
21020W        W37094   5.320   8.445  14.136 -0.2593 -0.1207 -0.0954
21021W        W37095   7.990  12.893  12.497  0.0480 -0.3121  0.2732
21022W        W37096   8.990  15.215   1.719  0.2774  0.0959  0.0757
21023W        W37097   9.218  11.611  17.134  0.0229 -0.3204 -0.2008
21024W        W37098   2.634   3.168   1.869  0.0585 -0.0929  0.1611
21025W        W37099   2.332  12.634   3.379  0.2532  0.1829  0.1651
21026W        W37100  15.696   9.797   4.112 -0.2060 -0.2844  0.3380
21027W        W37101  16.176  14.073   6.422  0.0477 -0.0675  0.0198
21028W        W37102  13.008   3.280  14.252  0.1903  0.1137 -0.2619
21029W        W37103   1.009  12.920  12.504 -0.0382 -0.1173 -0.0829
21030W        W37104  17.585  10.363   6.496  0.1432 -0.1689  0.0663
21031W        W37105  14.757  11.044   0.219  0.2095  0.4282  0.1414
21032W        W37106  14.000  14.911   4.906  0.0808  0.2152  0.0450
21033W        W37107   0.230  14.731   5.523  0.1093  0.0065 -0.3018
21034W        W37108  16.747   8.706   3.074 -0.1722  0.3341 -0.2827
21035W        W37109   0.895  13.008   1.323 -0.1368 -0.2123 -0.0016
21036W        W37110   8.219   8.759  16.047 -0.1046  0.1911  0.0454
21037W        W37111   1.014  13.528   5.601 -0.2986 -0.2442 -0.2649
21038W        W37112  11.765  12.412  16.330 -0.0828  0.1817  0.2518
21039W        W37113   7.334   4.149   4.877 -0.1056 -0.4050  0.1333
21040W        W37114   5.304  11.792   4.321 -0.0705  0.2849 -0.0371
21041W        W37115  15.619  13.532  12.099  0.1492  0.0303  0.0397
21042W        W37116   3.060  11.787  16.886  0.2041  0.0380 -0.0921
21043W        W37117  14.609  14.282  14.727  0.0179 -0.1390  0.0754
21044W        W37118   1.331  14.914   0.215 -0.1045 -0.2135  0.1144
21045W        W37119   2.073   9.592   1.165  0.3738  0.1245 -0.2695
21046W        W37120   7.599   9.701   1.334  0.0118  0.0374  0.0466
21047W        W37121   0.595   4.538   1.228  0.1175  0.0626 -0.0730
21048W        W37122   5.300  14.000   0.307  0.1359 -0.0701  0.0070
21049W        W37123   6.614   1.912   5.831  0.0197  0.1787 -0.1447
21050W        W37124   3.648   5.926   1.803 -0.1209  0.1175  0.0193
21051W        W37125  16.583  14.181  13.262  0.0484  0.1395 -0.0071
21052W        W37126   5.103   7.225   2.543 -0.3641  0.2616 -0.2486
21053W        W37127   0.668  15.300   2.947  0.0049  0.4649  0.2093
21054W        W37128   3.932   8.156  16.378 -0.2900  0.2307 -0.1641
21055W        W37129   0.532   2.731   3.569  0.0568  0.1371  0.0461
21056W        W37130   7.868   8.651   1.197 -0.4046  0.3089 -0.3612
21057W        W37131   1.229   3.660   5.499 -0.0071  0.0116  0.0182
21058W        W37132  17.578  16.975   2.212 -0.3437 -0.3335  0.1102
21059W        W37133  13.222   0.355   3.884  0.0358  0.1765  0.2340
21060W        W37134  14.750   9.661   2.364 -0.0421 -0.0897  0.0657
21061W        W37135   8.122  12.616  11.660 -0.2913 -0.1177  0.0540
21062W        W37136  16.488  12.711   3.027  0.5206 -0.3047 -0.0998
21063W        W37137  14.208   0.055  13.997  0.1170  0.1348 -0.1356
21064W        W37138  10.563  12.785  16.524  0.2675  0.3231 -0.2878
21065W        W37139  11.783  15.940   3.220  0.4185  0.0259  0.0737
21066W        W37140   7.315   8.343  15.263  0.0264 -0.1597 -0.1732
21067W        W37141   6.275  16.288  11.655 -0.0049  0.1717  0.0781
21068W        W37142   9.374   5.023  12.381  0.0114 -0.1760  0.0113
21069W        W37143  11.229  11.552   3.413  0.1419  0.0515  0.1401
21070W        W37144  15.671   4.807  16.709  0.1144  0.3105 -0.2498
21071W        W37145   2.771  10.845  13.785  0.1832  0.1133 -0.0125
21072W        W37146  15.340  16.889  13.543  0.0777 -0.0771 -0.2934
21073W        W37147  16.983  15.885   0.629 -0.0563  0.1624 -0.1152
21074W        W37148  15.797  10.242   2.495 -0.0477 -0.0244  0.0779
21075W        W37149  11.078  15.350   0.723  0.2053 -0.2530 -0.3609
21076W        W37150   0.213  16.829  12.743 -0.0866  0.1186  0.0201
21077W        W37151  12.649  13.619   5.599  0.0711  0.0417 -0.1925
21078W        W37152  12.560   5.697  13.226  0.0662  0.2684 -0.0729
21079W        W37153   2.886  13.725  15.695  0.4303 -0.1871 -0.1126
21080W        W37154  14.308  13.981   5.040 -0.2330 -0.2176  0.2204
21081W        W37155   0.069   7.048   2.813  0.0130  0.0004  0.0849
21082W        W37156  13.734  11.471   5.363 -0.1676  0.0715  0.1676
21083W        W37157  11.779   8.055   3.834 -0.1674 -0.0543 -0.0646
21084W        W37158  13.723   9.212  12.035 -0.2105 -0.0371 -0.0163
21085W        W37159  11.073   5.634   2.012 -0.1819 -0.1380 -0.0223
21086W        W37160  10.137   6.873  13.165 -0.2856  0.2143  0.0676
21087W        W37161   4.061  14.724   2.131 -0.2342 -0.0041 -0.1770
21088W        W37162  12.417   3.344  12.729 -0.0873  0.1293 -0.1109
21089W        W37163   8.956   8.684   0.893 -0.1051 -0.0086  0.0019
21090W        W37164  15.178  10.927   3.058  0.1063  0.4392 -0.4359
21091W        W37165   0.562   7.997  16.630 -0.0293 -0.2063  0.2329
21092W        W37166   7.748  15.684   4.055 -0.3655 -0.2661 -0.1720
21093W        W37167   4.895   1.301   2.259 -0.0201  0.2864  0.0510
21094W        W37168  10.405   9.636  13.144  0.0376 -0.2219 -0.0869
21095W        W37169  10.383  12.487  16.216  0.3442 -0.0165  0.3140
21096W        W37170   2.352   4.684  12.792  0.1141  0.0628  0.0333
21097W        W37171   9.535   2.686  15.204  0.1308 -0.0137  0.0310
21098W        W37172  17.468   7.159  14.782  0.4191 -0.3374  0.0175
21099W        W37173  15.496   0.956  15.483 -0.1900 -0.1435  0.1720
21100W        W37174  12.555  10.962   2.218  0.1955 -0.0421  0.2551
21101W        W37175   7.495  11.668   1.910 -0.4971  0.0601 -0.0332
21102W        W37176  11.397   0.260   0.063  0.3954  0.0223 -0.1709
21103W        W37177   7.593   3.362  15.739 -0.0661 -0.2434  0.4478
21104W        W37178   5.129  15.123   3.158  0.1756 -0.1132  0.2952
21105W        W37179  11.374  10.639  15.872  0.5226  0.1874 -0.1979
21106W        W37180   3.190   4.533   1.158 -0.2624 -0.0288  0.1239
21107W        W37181  13.013   8.480  16.047  0.0150  0.2654  0.3807
21108W        W37182   4.493  13.415  11.526  0.0652 -0.1305  0.0081
21109W        W37183  12.322   4.359   6.253  0.0354 -0.1614  0.1003
21110W        W37184  13.815  14.940  13.660  0.2464  0.5104 -0.1958
21111W        W37185   5.487  17.492   6.588 -0.1518  0.0382 -0.0790
21112W        W37186   9.960  15.381  13.048 -0.2446 -0.0396  0.0194
21113W        W37187   3.347  10.771   2.652  0.0425 -0.1213 -0.0961
21114W        W37188   6.102  17.498  15.901 -0.0022 -0.1575 -0.3920
21115W        W37189  16.012  11.636   5.282  0.0432  0.1855 -0.2205
21116W        W37190   7.884   9.805   4.228 -0.0930  0.1375 -0.3482
21117W        W37191   5.246   3.650  15.771 -0.3261 -0.2816  0.2738
21118W        W37192   5.320  12.790  16.577 -0.1433 -0.2854 -0.1496
21119W        W37193   1.781   5.745  15.512 -0.0829 -0.2177 -0.4187
21120W        W37194  17.534   3.596   0.435 -0.0600 -0.1423 -0.0299
21121W        W37195  12.012   4.783  16.883  0.2339  0.0601 -0.0868
21122W        W37196   0.342  16.583   3.993 -0.0859  0.0164 -0.2808
21123W        W37197  10.508  10.952  13.189 -0.2271  0.0387  0.0914
21124W        W37198   3.556  10.405  14.055  0.2249  0.0354 -0.1793
21125W        W37199  16.960   6.437   4.993  0.0865 -0.0616 -0.0787
21126W        W37200  16.041  16.800  16.571  0.2248 -0.0323  0.1411
21127W        W37201   1.336  13.295  12.271 -0.1058 -0.0781  0.1143
21128W        W37202   4.699   5.970   4.330  0.3808  0.1188 -0.2124
21129W        W37203  13.873   4.372   1.132  0.0681 -0.1061 -0.1799
21130W        W37204  15.597   7.622   6.162  0.0726  0.1155 -0.0876
21131W        W37205   1.447  10.858  12.976 -0.4512 -0.1986 -0.0649
21132W        W37206  10.045  10.265   2.441  0.2343  0.2289 -0.1212
21133W        W37207   7.983  10.305   2.944 -0.1346  0.1290 -0.0176
21134W        W37208  11.739   9.204   0.206  0.3208  0.1542 -0.1500
21135W        W37209   9.532  14.697   2.403  0.0505  0.1703  0.0334
21136W        W37210   0.404  16.789  14.383  0.1168 -0.2896 -0.0514
21137W        W37211   2.855  12.758  11.077  0.2445  0.0120 -0.2365
21138W        W37212  16.197  10.789   0.235  0.0684 -0.1960  0.1988
21139W        W37213   1.391  11.411   1.252  0.1511  0.1597 -0.3136
21140W        W37214  12.138   1.663  13.850  0.1334 -0.0756 -0.5059
21141W        W37215   9.555   8.157   2.613 -0.2882 -0.0095 -0.0420
21142W        W37216  13.661   9.402  14.089 -0.0490 -0.1260  0.0572
21143W        W37217  12.908  14.042  16.576 -0.0262 -0.1293 -0.0059
21144W        W37218  12.515   9.154  12.253 -0.0310 -0.0800 -0.0538
21145W        W37219   5.029   9.144  14.763 -0.2029 -0.2145 -0.6196
21146W        W37220  13.766  12.774   2.766  0.3586  0.0138 -0.1052
21147W        W37221   6.823  14.334  12.514  0.2309 -0.2482  0.0579
21148W        W37222   0.411   3.518  11.029 -0.1659  0.2764  0.1033
21149W        W37223  15.144  13.760   4.024 -0.0040 -0.1233  0.1729
21150W        W37224   6.379   2.376  11.738  0.3543 -0.0344 -0.2321
21151W        W37225  16.334  11.498  13.444  0.1988  0.3591  0.2071
21152W        W37226  15.069  17.311   0.987 -0.1086  0.2285  0.4268
21153W        W37227  14.871   4.568  12.746 -0.0075  0.0422  0.3411
21154W        W37228  11.289  14.560  12.924  0.0622  0.0757  0.0886
21155W        W37229  11.312  15.515  14.010  0.0036 -0.2554  0.2036
21156W        W37230   8.996   0.807  12.948  0.4985 -0.3254  0.1376
21157W        W37231  15.679   5.164   6.468 -0.1137  0.2022  0.0205
21158W        W37232  16.913  15.944   4.611  0.2203  0.1850 -0.2527
21159W        W37233   0.627  16.278   4.437 -0.0614 -0.4169  0.0524
21160W        W37234  15.277  10.803  11.955 -0.0486 -0.0510 -0.1198
21161W        W37235  12.846  13.843  15.098  0.0476  0.3033 -0.3082
21162W        W37236   8.695  13.333  14.060  0.0496 -0.0292  0.3130
21163W        W37237   3.455  10.391  16.439 -0.0666 -0.1401 -0.4789
21164W        W37238  17.738  17.664   5.835  0.2170  0.0110 -0.1757
21165W        W37239   5.683   3.390  12.372 -0.2669 -0.2332 -0.0550
21166W        W37240   3.541  12.491  14.510  0.0982 -0.2074  0.2858
21167W        W37241   5.437  10.657  15.670 -0.1483  0.2134 -0.2123
21168W        W37242   5.448  10.075   2.480  0.0545 -0.3176 -0.0499
21169W        W37243   8.056  10.102  13.643  0.3630 -0.2028  0.1902
21170W        W37244   4.177   8.204   6.399 -0.1304 -0.2497  0.2423
21171W        W37245  12.938   6.176  16.249 -0.0898 -0.2567 -0.1064
21172W        W37246   1.542   1.159   0.031  0.3304 -0.0169  0.1484
21173W        W37247   2.350   8.455   1.189 -0.0485  0.0591 -0.1520
21174W        W37248   1.285   7.906   1.611  0.0829  0.1886  0.0156
21175W        W37249  15.420  15.441  11.558  0.0371 -0.1098  0.0407
21176W        W37250   1.979  13.145  16.579  0.0913  0.2073  0.2336
21177W        W37251   0.254   4.466   4.540  0.0914  0.0921 -0.0987
21178W        W37252  10.388   8.055  15.583  0.2140  0.2192 -0.0505
21179W        W37253   8.149   8.685  14.935  0.0539 -0.1317 -0.0131
21180W        W37254  17.366  13.341   1.039 -0.2102  0.1692 -0.2574
21181W        W37255  14.031  14.650   2.010  0.0829 -0.1780 -0.0213
21182W        W37256   5.374  12.844   3.380 -0.1289  0.1262  0.2100
21183W        W37257   2.193   7.461   0.905  0.1859 -0.5712 -0.1088
21184W        W37258  13.609  15.171  15.651  0.1178  0.0427 -0.0698
21185W        W37259  14.041   2.509   3.687 -0.2403 -0.3080  0.0398
21186W        W37260  16.314  13.276  12.835  0.4796 -0.1097  0.0325
21187W        W37261   6.420   2.636  13.482  0.2650 -0.1056  0.1681
21188W        W37262   0.949   8.066   0.802  0.1159 -0.1729  0.0725
21189W        W37263  15.331   2.160   4.214  0.0318  0.1581 -0.3731
21190W        W37264   7.434  17.375   4.705 -0.1624 -0.1705 -0.0974
21191W        W37265  13.229   6.572   4.311  0.0613  0.0244  0.1634
21192W        W37266  12.692   6.341   6.537 -0.1645 -0.2610 -0.0661
21193W        W37267   5.463  17.003   6.645  0.0514  0.0588  0.4033
21194W        W37268  11.264   4.462  13.236 -0.1479 -0.0138  0.1992
21195W        W37269   6.562  12.404   4.885  0.0225 -0.1668 -0.4357
21196W        W37270   1.238   9.276   1.307  0.0883 -0.0357  0.0508
21197W        W37271   4.589   2.975   1.240  0.3644  0.0581 -0.0040
21198W        W37272  10.546   6.409   2.123  0.1925  0.2359 -0.1796
21199W        W37273  14.968  15.487  12.806 -0.3037 -0.0286 -0.0140
21200W        W37274  11.308  13.016   3.887  0.1970  0.0774 -0.0786
21201W        W37275   7.630  15.037   2.226  0.1852  0.0980  0.0886
21202W        W37276  10.826  11.886  13.972 -0.1143 -0.0585  0.1445
21203W        W37277  12.807   3.618  12.606  0.1759  0.1137 -0.0196
21204W        W37278  14.640  11.267  15.951  0.2712  0.0518 -0.1869
21205W        W37279   5.155  13.365  16.347 -0.0472  0.1827 -0.0753
21206W        W37280   8.560   2.486   5.287 -0.3091 -0.2946 -0.0936
21207W        W37281  12.592   4.287  11.383 -0.0719 -0.0684 -0.2548
21208W        W37282   5.037   8.690  15.115  0.1854  0.4796  0.1489
21209W        W37283  10.427  14.672   5.196  0.1736 -0.0010 -0.1241
21210W        W37284   8.585   4.158   1.579  0.0805  0.0795 -0.1889
21211W        W37285   5.508   9.376   3.949  0.2735 -0.0150 -0.2884
21212W        W37286   2.841   1.586   0.003  0.2148  0.0157 -0.0673
21213W        W37287  12.662  13.103   0.754 -0.0114  0.0068  0.0664
21214W        W37288  17.628   1.716   6.163  0.1267  0.1233  0.0719
21215W        W37289  13.178  13.642  12.473  0.0730  0.0396 -0.0147
21216W        W37290   1.799  13.060  14.388  0.0641  0.1279 -0.1707
21217W        W37291  13.825  16.407   6.059 -0.1787  0.2731 -0.1837
21218W        W37292  16.841  10.002   6.070 -0.1479  0.1373 -0.0086
21219W        W37293  10.926  13.441  15.091 -0.1331  0.4252 -0.1008
21220W        W37294   2.721   1.573   3.770 -0.0778 -0.1694  0.2168
21221W        W37295   4.987   5.005   1.702 -0.0574 -0.0791 -0.0573
21222W        W37296  12.008  16.173   5.399  0.2791 -0.1648 -0.1021
21223W        W37297  17.367  10.039   0.535  0.2794  0.0202 -0.0099
21224W        W37298   0.221   1.755   1.030 -0.0279 -0.2364  0.1228
21225W        W37299   2.246  13.280   2.644 -0.5139  0.1869  0.0494
21226W        W37300   9.903  11.841   1.129 -0.5353 -0.1351 -0.1670
21227W        W37301   0.591  17.554  17.045  0.0520  0.2632 -0.0443
21228W        W37302   3.264   1.026   2.295 -0.1256 -0.0453  0.0943
21229W        W37303   0.826   9.166  12.978  0.0766  0.1901  0.2437
21230W        W37304  11.505   0.977   2.361  0.0143  0.0840 -0.1897
21231W        W37305  14.504  13.380   5.716 -0.0179 -0.0163  0.1040
21232W        W37306   2.173   1.461   2.966  0.0887 -0.0473 -0.1377
21233W        W37307  12.120  11.526  15.799  0.0338 -0.1215  0.0759
21234W        W37308  15.549  10.740  12.969 -0.1064  0.0245 -0.0298
21235W        W37309   3.978  11.050   1.385  0.2651  0.0944 -0.1200
21236W        W37310   4.661   0.228   2.373 -0.2625  0.0390 -0.1534
21237W        W37311  11.749  14.606   2.160  0.2059  0.3730  0.1832
21238W        W37312   1.961  14.549  16.295  0.2417  0.1141 -0.2200
21239W        W37313  17.060   6.034   4.393  0.0010  0.0974  0.0403
21240W        W37314   6.396   3.227   2.929 -0.1597 -0.2593  0.1866
21241W        W37315  12.842   3.327  12.170  0.3713  0.1096 -0.0631
21242W        W37316  13.626  16.898  16.745 -0.2820  0.0931  0.0702
21243W        W37317  14.203  12.030   2.644  0.0830  0.0528 -0.0744
21244W        W37318  14.419  15.114  16.318 -0.0790 -0.0528  0.3586
21245W        W37319   0.338  10.262  17.019  0.1612  0.1309  0.0103
21246W        W37320   5.454   8.411  11.645 -0.0773 -0.3123 -0.2899
21247W        W37321   0.154   8.993  16.196 -0.1711 -0.2948 -0.1569
21248W        W37322  10.551  11.483  13.051  0.0798  0.2249 -0.2085
21249W        W37323   1.849   7.853   5.338  0.0565  0.3824  0.2647
21250W        W37324  12.024   0.866  14.652  0.0211  0.1661 -0.2036
21251W        W37325   6.302  12.833   2.720 -0.1368  0.0679  0.2258
21252W        W37326   4.842   1.727  15.455 -0.2038 -0.1049 -0.0633
21253W        W37327   5.529  10.970   4.955 -0.3176 -0.0292  0.0019
21254W        W37328   3.047  12.192  15.865  0.2911 -0.1625 -0.0248
21255W        W37329  10.671   6.607  16.292  0.1661  0.2090  0.1179
21256W        W37330   7.459   4.312   3.103  0.1484 -0.0916  0.0714
21257W        W37331   8.475   8.127  11.655  0.0629 -0.0414 -0.0405
21258W        W37332  11.942   5.086  15.203  0.1804 -0.2894  0.1931
21259W        W37333  14.907   0.974   2.056  0.1108 -0.1814 -0.2173
21260W        W37334   9.484  17.081  15.885  0.1755  0.0957  0.0410
21261W        W37335   1.389   9.916   4.380  0.0470 -0.3177  0.0962
21262W        W37336  13.544  12.852   2.340  0.1907 -0.1331  0.2538
21263W        W37337  14.130   8.512  14.339 -0.0523 -0.0086 -0.1135
21264W        W37338   4.300  14.176   1.583 -0.0234 -0.0604 -0.1336
21265W        W37339   9.755   6.168   1.016 -0.0959  0.0368  0.1011
21266W        W37340  10.677  10.740   3.609  0.0045 -0.3752  0.2154
21267W        W37341  15.509  15.319   0.056 -0.3267  0.1356  0.4253
21268W        W37342   5.044  10.499  14.467 -0.0268  0.1002  0.2079
21269W        W37343   2.163   2.812  13.169 -0.2853 -0.0433 -0.2032
21270W        W37344   5.836   8.550  13.105  0.1381  0.0774 -0.0275
21271W        W37345  10.410  14.612  12.758  0.0501  0.2855 -0.1585
21272W        W37346   8.762  11.750  14.687  0.0008  0.5956  0.1594
21273W        W37347   5.089  10.828   1.790 -0.3423  0.1366 -0.1109
21274W        W37348  12.396  15.972  13.682  0.1160  0.0956  0.0556
21275W        W37349  17.131  13.049  16.712  0.0880 -0.0070 -0.0641
21276W        W37350   5.940  14.011  13.552 -0.0929  0.0893  0.1332
21277W        W37351  15.870  15.151  11.607 -0.1910  0.3544  0.1042
21278W        W37352   7.221  15.859  13.445 -0.3218  0.2120  0.0634
21279W        W37353   3.108   8.910   2.336 -0.1472 -0.0711 -0.0801
21280W        W37354   4.045   8.568   1.899  0.3954  0.3019 -0.0848
21281W        W37355  12.127   5.194   1.667 -0.1690  0.3125 -0.0851
21282W        W37356   8.318  10.532   1.786 -0.3180  0.0204  0.0271
21283W        W37357  15.129  10.650  11.161  0.0213  0.1430  0.1799
21284W        W37358  15.273   0.910  14.225 -0.3659  0.0695 -0.1672
21285W        W37359   6.038   3.604   5.351  0.1400  0.1100  0.0048
21286W        W37360   8.699  15.474   0.783  0.0172 -0.0712  0.2306
21287W        W37361  16.725   4.366  16.372 -0.0017  0.0154 -0.1364
21288W        W37362   9.365   7.649  16.650  0.0673  0.1864  0.0465
21289W        W37363  14.827   6.181  12.374  0.0854  0.0334  0.2538
21290W        W37364  13.949  14.014  12.428 -0.4087  0.0754  0.0198
21291W        W37365   4.860   5.463   4.715 -0.1766  0.1212  0.0805
21292W        W37366   2.543   7.236  12.231  0.1248 -0.0087 -0.1436
21293W        W37367   7.434   4.132   0.845  0.2004  0.0344 -0.1411
21294W        W37368   9.246  17.074  13.451  0.2930 -0.1253  0.0874
21295W        W37369  15.233  13.722   5.462  0.3718  0.3003  0.2097
21296W        W37370  17.519   3.515   0.985 -0.2608 -0.1447  0.1082
21297W        W37371  11.650  10.216  13.451  0.0747  0.0479  0.0283
21298W        W37372  10.991   3.122  14.191 -0.0617 -0.1957 -0.0907
21299W        W37373   5.755  15.795  16.958 -0.2022  0.2894 -0.1540
21300W        W37374   0.876  11.043   3.168 -0.2127 -0.0581  0.1524
21301W        W37375  11.793   8.940  14.778 -0.4950 -0.1987  0.0554
21302W        W37376   3.460  14.440  15.054  0.1922  0.1279 -0.0839
21303W        W37377  11.022  11.666   5.015  0.1357  0.0663 -0.2549
21304W        W37378   7.558  15.750   5.509  0.2156  0.3208 -0.1688
21305W        W37379   9.732  10.602   5.477  0.1900 -0.0045 -0.0329
21306W        W37380  16.258   4.044  12.058 -0.0065  0.0656  0.0470
21307W        W37381  17.071   4.932   2.805  0.0453 -0.2734  0.0506
21308W        W37382  12.471  16.154  15.760  0.2615 -0.0483 -0.2796
21309W        W37383  13.960   2.376  13.493 -0.1281  0.1179  0.0962
21310W        W37384  17.658  11.119   5.960  0.0738 -0.0712  0.0867
21311W        W37385   1.342   8.402   5.398  0.1898 -0.0830 -0.1700
21312W        W37386  10.682  10.723  15.206  0.4957  0.0547  0.0865
21313W        W37387  10.504  13.714  11.736  0.0698  0.0077 -0.0722
21314W        W37388  13.314   1.844   1.539 -0.0561  0.1408 -0.1027
21315W        W37389  12.200  15.518   0.957 -0.0339  0.2179 -0.1656
21316W        W37390  13.184  13.145   5.103  0.0863 -0.5139 -0.2614
21317W        W37391   8.360   5.871   4.967 -0.0120  0.1692  0.2637
21318W        W37392  11.895   2.135   5.496 -0.0896 -0.0177 -0.0004
21319W        W37393   6.139  11.449  12.165  0.0318  0.0635 -0.0665
21320W        W37394  13.236   7.416   1.001 -0.1105  0.2690 -0.0658
21321W        W37395   8.501   5.880   3.891  0.0741  0.0001 -0.4066
21322W        W37396   4.755   7.683   1.692 -0.0880 -0.0994 -0.0815
21323W        W37397  14.086  10.032  12.474 -0.0569  0.1161  0.0505
21324W        W37398  12.458  14.182   3.431 -0.3443 -0.3621  0.1091
21325W        W37399  15.863  15.958   3.774 -0.2123  0.4116 -0.0116
21326W        W37400   8.388   3.153  10.996  0.1178  0.0096 -0.0238
21327W        W37401   6.185  17.654  16.365  0.0635  0.0920  0.1678
21328W        W37402   3.861   3.822  12.412  0.0448  0.0675  0.1356
21329W        W37403   4.823  16.357   3.917 -0.1648 -0.0873  0.1103
21330W        W37404  10.865   4.118   3.115  0.0644 -0.1467  0.1485
21331W        W37405   5.276  11.578   0.716 -0.2968  0.1808  0.2946
21332W        W37406  13.385  11.305   4.404 -0.3616  0.0941 -0.1280
21333W        W37407   2.166   8.863   5.501  0.2945 -0.1608 -0.1177
21334W        W37408  14.088  13.884  13.487  0.0509  0.2398 -0.0962
21335W        W37409  16.452  12.216   6.574  0.2411  0.1266  0.1655
21336W        W37410  13.655  14.659   2.342  0.0601  0.1511  0.3518
21337W        W37411  14.299  10.249  14.654 -0.2131 -0.1632 -0.0961
21338W        W37412   5.293  12.337  14.061  0.0121  0.1076  0.1444
21339W        W37413  17.460  10.404  12.830 -0.2387  0.0864 -0.0618
21340W        W37414  13.865   6.761   0.951 -0.0728 -0.0620 -0.0984
21341W        W37415  15.420  14.455   2.991 -0.0124  0.0333  0.1420
21342W        W37416  13.956   7.766  14.098  0.4665  0.0079  0.0366
21343W        W37417  15.078  14.210   2.640  0.2587 -0.0220 -0.1704
21344W        W37418  14.638   8.233  12.988 -0.0542 -0.2161  0.2324
21345W        W37419  17.487   1.370   2.214  0.0660 -0.0266  0.0647
21346W        W37420   1.888   5.068  12.716  0.0745 -0.0824  0.3030
21347W        W37421   7.833  11.755   5.025  0.1863 -0.0214  0.1709
21348W        W37422   4.101  11.232  14.300  0.2287 -0.0771 -0.0712
21349W        W37423   0.114   6.129   4.501  0.0431 -0.1735 -0.3781
21350W        W37424   5.159  15.812  16.274  0.0135 -0.2160  0.3224
21351W        W37425   1.289  12.299  14.670  0.3452  0.1625  0.0724
21352W        W37426  12.776   4.815  13.926 -0.1929  0.0378  0.1767
21353W        W37427   6.450   5.570   5.594  0.1842 -0.0067 -0.0871
21354W        W37428   2.163   2.249  12.587  0.2527  0.0012 -0.1083
21355W        W37429   6.250  17.167  14.300 -0.0380 -0.2916  0.0827
21356W        W37430   5.409  15.516   1.438 -0.0028  0.1077 -0.4183
21357W        W37431   1.650   6.660  13.393 -0.3920  0.0113  0.2036
21358W        W37432  10.366   1.086   4.474  0.3497  0.0391 -0.1871
21359W        W37433   6.941   5.185  15.609 -0.0831  0.0606 -0.2330
21360W        W37434  11.471   2.652   4.241 -0.1221  0.1849  0.1045
21361W        W37435  16.976   4.722  14.311 -0.0924 -0.0200 -0.0448
21362W        W37436   1.799  14.292   1.816  0.4220 -0.3067 -0.0888
21363W        W37437   2.813   0.226   2.289  0.1202 -0.4641  0.4558
21364W        W37438   3.860   4.049   4.113  0.1251  0.0896  0.1747
21365W        W37439   1.392   2.738  12.446 -0.0075 -0.5943 -0.0866
21366W        W37440   6.280   2.246  12.658 -0.0413  0.2359 -0.1900
21367W        W37441   1.141   7.774   0.000 -0.1516 -0.0805 -0.0314
21368W        W37442   9.941   5.822  13.007 -0.3089 -0.1541 -0.2863
21369W        W37443   7.089  14.729  12.794 -0.1220 -0.0068 -0.1264
21370W        W37444   4.156  14.170   2.724 -0.0491 -0.0534 -0.0058
21371W        W37445   5.994   3.035  15.658 -0.0804  0.0538 -0.0312
21372W        W37446  13.752   1.204   5.477 -0.2362  0.0703  0.2123
21373W        W37447   9.368  16.114  15.061 -0.0229 -0.1554  0.1175
21374W        W37448   0.283   2.253  15.302  0.1958 -0.0328 -0.2048
21375W        W37449  13.204   8.341   4.890  0.0443  0.2642  0.0578
21376W        W37450   4.430   8.804  16.939 -0.2043  0.0433 -0.2447
21377W        W37451   6.754   7.477  12.904  0.2311 -0.1936 -0.1638
21378W        W37452   6.142   2.179   1.276  0.1640  0.2702 -0.1137
21379W        W37453  10.843  13.187   4.033 -0.0251  0.2877  0.0143
21380W        W37454   4.211  11.777   4.134  0.2387 -0.0753  0.1901
21381W        W37455   0.084   0.770  14.510  0.0778  0.0859  0.1177
21382W        W37456  11.880   4.234   0.630  0.0455  0.1428  0.2411
21383W        W37457   5.155  15.633   3.001 -0.3359 -0.0292 -0.0290
21384W        W37458   8.303   1.930  16.919 -0.0750  0.0008  0.0170
21385W        W37459  11.714   7.677   2.586 -0.0422 -0.1095  0.0966
21386W        W37460   5.332   5.638   0.704  0.1443 -0.0061  0.3447
21387W        W37461  11.382   8.403   2.615 -0.0832  0.0047 -0.2152
21388W        W37462  10.906   2.443   4.940  0.2737  0.1810  0.1065
21389W        W37463   0.779   0.881   2.209 -0.0936 -0.1289 -0.0572
21390W        W37464   3.669  16.818  16.269  0.1848 -0.1503 -0.1033
21391W        W37465  17.120   7.621   0.332  0.2389  0.1751 -0.2658
21392W        W37466  16.832  16.278  14.551  0.1460 -0.0119 -0.0485
21393W        W37467   1.365   7.727  16.565 -0.2464 -0.0529 -0.2039
21394W        W37468   4.684  13.662   4.168  0.2882 -0.1033  0.2540
21395W        W37469  13.291   6.665   3.778 -0.0089  0.2747  0.1537
21396W        W37470   0.358  10.867   1.291 -0.0106 -0.0650 -0.0316
21397W        W37471   4.668  15.865   1.513 -0.1442 -0.1262  0.1468
21398W        W37472   0.453   5.131   3.068 -0.1096  0.1479  0.1477
21399W        W37473  16.885   4.497   4.590 -0.0749  0.0217  0.3523
21400W        W37474  14.677  13.722  12.557  0.0710  0.0049 -0.2294
21401W        W37475  15.864   0.183   1.297 -0.0109 -0.0409 -0.0793
21402W        W37476   4.051   8.706   5.248 -0.0755  0.2091  0.0372
21403W        W37477  15.121   8.910  12.731  0.0418 -0.0169  0.2820
21404W        W37478   8.131   1.056   3.003  0.2415 -0.3486  0.0602
21405W        W37479  13.805   6.651   0.055  0.1022  0.0163 -0.0525
21406W        W37480   1.828   2.949  12.304 -0.1323  0.0655 -0.0193
21407W        W37481   3.666  10.348   4.210  0.1545  0.0299 -0.1369
21408W        W37482   4.528   8.621  14.928  0.0330  0.0195  0.0787
21409W        W37483   6.066  15.129   6.574  0.0586 -0.0037 -0.0355
21410W        W37484  15.910  13.965   2.293 -0.1440  0.0740  0.2603
21411W        W37485  14.518  17.151   4.596  0.0996 -0.0418  0.2564
21412W        W37486  15.496   1.854   4.639  0.4852 -0.0742  0.0212
21413W        W37487   3.228   0.292   6.067 -0.0031  0.2844  0.2413
21414W        W37488  11.519  13.198   1.145  0.1084  0.1398  0.2183
21415W        W37489   1.613   1.522  16.025 -0.1585 -0.0182 -0.0420
21416W        W37490   6.431   2.944  13.100  0.4617 -0.2875  0.1624
21417W        W37491   2.114   6.837   1.677 -0.3343 -0.0612 -0.0982
21418W        W37492  17.510  13.724  15.705 -0.2614  0.0345  0.5215
21419W        W37493   4.123   4.002   3.694 -0.2226  0.1637  0.0014
21420W        W37494  16.964  16.095   3.806 -0.1043  0.0360 -0.0896
21421W        W37495  12.395   0.721  17.014  0.1940  0.0615  0.2679
21422W        W37496   8.201   9.454   0.144 -0.5827 -0.1023  0.2213
21423W        W37497   0.104   0.721  13.323 -0.2960 -0.1739  0.2080
21424W        W37498   1.722  10.114   2.724  0.0626 -0.2171 -0.0072
21425W        W37499   4.169  13.215   3.066 -0.0131  0.2703 -0.0649
21426W        W37500  16.787   0.266  13.641  0.0017 -0.1372  0.0731
21427W        W37501   8.182   9.723   4.670  0.0309  0.1306  0.4808
21428W        W37502   5.172  10.534   3.760 -0.0581  0.2235  0.0672
21429W        W37503   6.676   1.321  13.181  0.0997 -0.0047  0.0087
21430W        W37504   6.228  10.699  13.286 -0.1512 -0.0137  0.0443
21431W        W37505  10.459   5.465  13.727  0.2230 -0.2355  0.1282
21432W        W37506   6.035  14.150  15.755 -0.0216  0.4831  0.1707
21433W        W37507   6.461   7.558   0.879  0.1806  0.0156  0.0790
21434W        W37508   9.799   0.012  15.716 -0.0890 -0.0462 -0.1312
21435W        W37509  13.693   3.572   1.403 -0.0697  0.1972 -0.0417
21436W        W37510  17.152   5.680  11.922  0.1023 -0.0757  0.0468
21437W        W37511  11.031  11.162   3.768  0.1443  0.0730  0.2086
21438W        W37512  16.672   4.183   3.466 -0.1462  0.1476  0.2157
21439W        W37513  15.460  15.633   0.429 -0.2207 -0.1168 -0.3073
21440W        W37514  17.316  12.042   0.331 -0.1192  0.0826 -0.1369
21441W        W37515  10.220   7.061   2.265 -0.2841 -0.2593  0.0165
21442W        W37516  16.726  14.609  14.829  0.1327 -0.2593 -0.1693
21443W        W37517  15.433   3.899   5.325 -0.0046  0.4100 -0.1321
21444W        W37518  13.238  17.634  12.581  0.2148 -0.1388 -0.1935
21445W        W37519   2.898  14.513  17.005  0.2974 -0.1239  0.0403
21446W        W37520   1.951  10.005   4.117  0.0993  0.1146  0.2317
21447W        W37521   3.816   0.203   5.368 -0.2177  0.3922  0.0867
21448W        W37522   5.356   9.207   5.375 -0.3180  0.0717 -0.0635
21449W        W37523   4.434  13.609   1.054  0.1493  0.3330  0.4091
21450W        W37524  10.551  10.514  10.735  0.1379  0.2319 -0.1940
21451W        W37525  15.206   6.539  14.275  0.0002  0.2784 -0.2732
21452W        W37526  12.793  12.103   0.502 -0.0225  0.1561 -0.2498
21453W        W37527  16.695  17.367  14.423  0.0226 -0.1926  0.0551
21454W        W37528  12.776  17.669  16.000  0.3210  0.3080  0.0043
21455W        W37529   1.580  12.309  16.576 -0.0599  0.0789 -0.2526
21456W        W37530  13.191   7.081   2.030  0.0634 -0.0511 -0.0756
21457W        W37531   3.950  15.824  14.889 -0.0566 -0.2153 -0.4688
21458W        W37532   5.468  11.866  14.043  0.4840 -0.0208 -0.0771
21459W        W37533   0.395   1.946  14.704 -0.0310 -0.2972  0.2004
21460W        W37534   3.854  17.475   3.604 -0.0891  0.2288  0.0495
21461W        W37535  15.788  10.446   3.588  0.3433 -0.0487  0.1464
21462W        W37536   8.505   6.584   3.917 -0.3211  0.3330  0.1444
21463W        W37537  13.093  15.481  12.290  0.0170  0.2461 -0.1237
21464W        W37538   2.514   9.243  13.530  0.2764  0.0246 -0.0042
21465W        W37539  11.900   3.992   5.233  0.0582  0.0351  0.0835
21466W        W37540   3.743   6.731  15.053 -0.1875 -0.1404  0.1030
21467W        W37541   1.189   4.231   3.702 -0.0610 -0.0647 -0.2929
21468W        W37542  16.555  13.590   3.476 -0.2126  0.0511 -0.1851
21469W        W37543   4.130  16.336  14.942  0.1550 -0.1684  0.0455
21470W        W37544  14.951   2.381  13.739  0.0216 -0.2326  0.2328
21471W        W37545  11.295  12.600  15.580  0.0040 -0.2254 -0.2485
21472W        W37546  13.381   9.410   4.725  0.1353  0.0272  0.3159
21473W        W37547  17.584   6.211  13.163 -0.1335 -0.2158  0.0341
21474W        W37548  12.964  11.045  15.916  0.0622 -0.0100  0.0826
21475W        W37549  11.265  12.138  15.527 -0.2372 -0.0076 -0.3315
21476W        W37550   8.498  16.854  13.429 -0.1100  0.0935  0.0545
21477W        W37551   5.658   0.974  13.600  0.1682  0.2813  0.0117
21478W        W37552  16.534   1.876  16.982  0.2629 -0.0539 -0.1642
21479W        W37553  12.222   1.729   2.550  0.0618  0.2835  0.1577
21480W        W37554   1.909  13.138  15.490  0.1573 -0.1770 -0.1618
21481W        W37555  15.724   5.853  15.790 -0.0349  0.1126  0.0011
21482W        W37556   1.351  11.766   0.108  0.0239  0.4177  0.2444
21483W        W37557  17.067   1.378  13.759 -0.3207 -0.0908  0.0394
21484W        W37558  12.338   4.923  15.424  0.1616  0.0107  0.0397
21485W        W37559   4.570   8.663   4.473  0.1022 -0.0898 -0.1468
21486W        W37560   0.654   9.224   0.874 -0.0548  0.0081  0.1811
21487W        W37561  12.400  17.257   0.767  0.0045  0.0137 -0.1839
21488W        W37562   6.018  15.218   3.922  0.1944  0.1195 -0.1765
21489W        W37563   7.941  10.749   3.782 -0.0010  0.2793 -0.5129
21490W        W37564  13.688  16.017  14.687  0.0957 -0.0315  0.1416
21491W        W37565   6.636  12.662   3.188 -0.1196  0.3693  0.0157
21492W        W37566  10.242  10.091  13.334  0.0064 -0.2610 -0.1403
21493W        W37567   9.319  13.542  11.979  0.2958 -0.3483  0.0372
21494W        W37568  11.269  12.396  16.513 -0.0864 -0.2763  0.1225
21495W        W37569  12.257  15.354  16.176  0.1004  0.0978 -0.0455
21496W        W37570   0.951   2.335   0.308  0.1031  0.0668 -0.1572
21497W        W37571  11.841   0.188   2.530  0.0626  0.3451 -0.2707
21498W        W37572   8.227   0.858  16.386  0.0536  0.2912  0.0788
21499W        W37573   8.748   5.282   0.027  0.1823  0.1953 -0.1239
21500W        W37574   5.041   2.636   5.575 -0.2708 -0.0470  0.0265
21501W        W37575   3.226   2.736  15.310 -0.2754 -0.0784 -0.0505
21502W        W37576  15.626   9.171   1.962  0.2634 -0.0366  0.2553
21503W        W37577   4.957   6.169  13.119  0.0657 -0.1850 -0.1945
21504W        W37578   6.422   4.076  13.940  0.2092 -0.0196  0.1106
21505W        W37579   5.468   7.464  13.035 -0.2353 -0.0908  0.0252
21506W        W37580   7.611   1.813  13.186  0.0881 -0.0394 -0.2918
21507W        W37581   8.343  14.807   1.888  0.1659 -0.1565  0.2120
21508W        W37582   6.575   8.766   4.386  0.0619  0.0485  0.2243
21509W        W37583  10.472   3.172   4.368  0.1450  0.2606  0.0240
21510W        W37584  13.616  17.423   5.324 -0.2126 -0.2825 -0.2337
21511W        W37585   5.110  14.070   5.918  0.2291 -0.0844  0.0466
21512W        W37586  13.991   2.373   1.253 -0.1171  0.0519 -0.0739
21513W        W37587  10.513   2.186   1.125  0.0334  0.1098 -0.2103
21514W        W37588  15.546   0.366   3.792  0.0273  0.2648  0.0624
21515W        W37589  13.809   0.698   4.722 -0.2248  0.0424  0.0550
21516W        W37590   6.736   5.743   2.095  0.2585 -0.2851 -0.0689
21517W        W37591   1.676  12.422  16.036  0.0829  0.2901 -0.2912
21518W        W37592   7.512   1.153  16.058 -0.1993  0.1712  0.1304
21519W        W37593   5.657  11.302  15.503 -0.1265 -0.4122 -0.1496
21520W        W37594   8.844   8.944   3.210  0.0283 -0.0168  0.0999
21521W        W37595   7.551   5.863   0.628  0.2521 -0.4950  0.1396
21522W        W37596  10.767   3.356  16.580  0.1196  0.0472 -0.1368
21523W        W37597  11.185   3.487   1.123  0.0622  0.0358  0.0950
21524W        W37598   0.207  16.312   4.819 -0.0306 -0.1334  0.0372
21525W        W37599  10.409  17.423  16.432  0.0722  0.0770  0.2464
21526W        W37600  10.543  14.870  15.435  0.2651  0.0438  0.0288
21527W        W37601  17.167   1.186   5.502  0.0033  0.0379 -0.2997
21528W        W37602  10.539   8.304   5.420  0.1050  0.0292  0.4542
21529W        W37603  14.111   0.702  15.057 -0.0187  0.1566  0.1874
21530W        W37604   9.779  14.766  16.322  0.1495 -0.0311  0.2681
21531W        W37605   0.852  13.361  15.657 -0.0158 -0.0819  0.1046
21532W        W37606  16.711   7.830  14.723 -0.1467 -0.1330 -0.2981
21533W        W37607   4.156   1.571   3.382 -0.0062 -0.2671  0.0939
21534W        W37608  12.068  15.481  12.128 -0.1339 -0.0190  0.0243
21535W        W37609   6.537   4.464  14.316 -0.2095 -0.1478 -0.0118
21536W        W37610  15.609  10.055   3.305  0.1151 -0.1277  0.1647
21537W        W37611   2.253  14.526   5.260  0.3158 -0.0273  0.0215
21538W        W37612   7.297  14.801  14.681 -0.1536  0.1723 -0.0426
21539W        W37613   6.451   1.123   2.145  0.0401 -0.0850  0.0009
21540W        W37614   6.905   4.590   0.402 -0.1462  0.2217  0.1038
21541W        W37615   2.315  10.460   0.683 -0.0409 -0.1376 -0.3819
21542W        W37616   4.753   0.181   3.367 -0.0977  0.2662  0.2727
21543W        W37617   6.436   5.862  11.901 -0.0505  0.0719 -0.1654
21544W        W37618   3.674   6.640   2.843 -0.1858  0.1731  0.2037
21545W        W37619   1.364   4.101  11.960 -0.0639 -0.0074 -0.3075
21546W        W37620   4.929   1.607   1.851 -0.1023  0.3666  0.1137
21547W        W37621  13.021  14.883   3.094 -0.3246  0.0310 -0.2373
21548W        W37622  16.348   7.027  14.874 -0.3017  0.0656 -0.3609
21549W        W37623   9.903   6.728  16.058 -0.1147 -0.1825  0.1798
21550W        W37624  10.212   9.477   3.015 -0.0928  0.1201 -0.1016
21551W        W37625   0.441  16.396   5.387  0.0126  0.0045  0.1814
21552W        W37626  10.692   2.496   3.567 -0.3003  0.0214 -0.3988
21553W        W37627  15.996   9.835   5.711  0.4211 -0.0362  0.4288
21554W        W37628  14.448  11.559  13.276 -0.3310 -0.1145 -0.1285
21555W        W37629  16.798   7.097  14.051  0.0821  0.0988  0.0807
21556W        W37630   2.448   7.750   0.578 -0.0447 -0.0508  0.2403
21557W        W37631   9.770  13.444  13.587 -0.1128 -0.1202  0.0544
21558W        W37632  10.130   0.306  12.683  0.0471 -0.1643  0.2496
21559W        W37633  11.635  15.082   2.505 -0.3986 -0.0015 -0.1220
21560W        W37634  11.149   2.315   6.007  0.0315 -0.1062 -0.2182
21561W        W37635  13.142  16.741  16.643  0.3658 -0.0286  0.0142
21562W        W37636   0.067  15.758   3.597 -0.0526 -0.0797 -0.3080
21563W        W37637  16.479  16.645  13.033 -0.1763 -0.0611  0.0987
21564W        W37638  14.917   7.967  11.678 -0.2600  0.0215 -0.2725
21565W        W37639   5.237   7.805  11.841  0.0887  0.2302  0.1737
21566W        W37640   1.325   9.926   2.985  0.0887 -0.1369 -0.1325
21567W        W37641  12.701   2.187  13.366  0.0204 -0.0980 -0.2474
21568W        W37642   3.193   8.758   4.576  0.4719  0.1630  0.2143
21569W        W37643  14.041   5.061  13.773  0.0726  0.2237 -0.1765
21570W        W37644  17.008   5.363   3.104 -0.0049 -0.2054  0.1702
21571W        W37645   4.932   5.275   0.663  0.0353  0.4031  0.0106
21572W        W37646   9.610   5.702  14.919  0.1207  0.3333  0.1130
21573W        W37647   6.165  11.127   2.988  0.0763 -0.0806  0.0973
21574W        W37648  15.475  11.858   2.288  0.0321 -0.1418 -0.1691
21575W        W37649   9.676   6.443  16.390 -0.3149  0.1185  0.0762
21576W        W37650  11.081  15.316   4.379  0.2172 -0.0540  0.0774
21577W        W37651   4.275   0.599   2.406 -0.2341  0.2329  0.1398
21578W        W37652   6.832  12.590  13.358  0.1498  0.1652 -0.0804
21579W        W37653   0.289   0.773   5.295 -0.1180 -0.3364  0.4316
21580W        W37654   5.684   8.516   4.799 -0.1268 -0.1203  0.2060
21581W        W37655  10.610   4.452   4.074  0.0901 -0.1473 -0.1855
21582W        W37656  12.025  10.595   6.206 -0.0829  0.0817  0.0215
21583W        W37657  14.508  15.439   4.505 -0.1503  0.1338  0.0524
21584W        W37658  13.789   7.594   3.745  0.0611 -0.0458  0.3797
21585W        W37659   4.891   4.887  11.517 -0.0072 -0.3395  0.1184
21586W        W37660  15.050  14.953  17.045 -0.2526 -0.0481 -0.0477
21587W        W37661  11.886  17.726  12.720 -0.2494 -0.2439 -0.0470
21588W        W37662   9.700  12.613   2.283  0.2342  0.0254  0.1323
21589W        W37663   1.292   6.279  16.785 -0.2674  0.3602  0.0929
21590W        W37664   1.285  14.661   1.944  0.5897 -0.1851 -0.1937
21591W        W37665   7.879   6.029   5.554  0.0698  0.3001 -0.0728
21592W        W37666   4.917   0.708   4.138  0.0196 -0.1806  0.4454
21593W        W37667   6.970  12.416   4.078 -0.2305  0.2232 -0.0108
21594W        W37668  11.877  11.729   0.919 -0.0709  0.2056  0.0448
21595W        W37669   7.941   7.885   2.408  0.3232  0.0394 -0.2367
21596W        W37670   5.179  14.959  13.115 -0.1742 -0.0483 -0.1751
21597W        W37671  17.524  14.579  12.207  0.0822  0.0406 -0.0763
21598W        W37672   3.918   2.123   6.464  0.2389 -0.0589 -0.1375
21599W        W37673  14.497   1.334  16.806  0.3536 -0.0892 -0.1943
21600W        W37674  16.878  12.874   0.358  0.0650  0.0475  0.1775
21601W        W37675   9.440  11.796   2.805 -0.2415 -0.1482 -0.0609
21602W        W37676   3.260  15.180  14.595  0.0953  0.2810 -0.1273
21603W        W37677  14.060   6.740   3.117 -0.0579  0.2146  0.2604
21604W        W37678  17.305  10.466   3.786 -0.1663  0.2927  0.2386
21605W        W37679   4.301   2.436   2.306 -0.1220  0.1138  0.1733
21606W        W37680   4.732  16.804   5.508  0.2132 -0.0010  0.1074
21607W        W37681  16.480   1.578   4.640  0.0788 -0.0158 -0.0804
21608W        W37682  10.599   9.188  13.496 -0.0250 -0.0678 -0.0019
21609W        W37683  10.377   8.196  12.388  0.0520  0.0666  0.1380
21610W        W37684   2.820   0.803  15.060  0.1237 -0.1429 -0.0108
21611W        W37685  17.479  15.100   2.712  0.2595  0.0230  0.1967
21612W        W37686   1.054  16.019  12.482  0.1160  0.1089  0.1014
21613W        W37687  17.180  12.542  11.961  0.5025 -0.1932  0.0029
21614W        W37688   3.587   7.389  15.708  0.1918  0.0760 -0.0294
21615W        W37689  12.692   6.475   1.756  0.0828  0.1146  0.0100
21616W        W37690   5.981  12.241  13.026  0.2111  0.1041 -0.0426
21617W        W37691   2.141   3.769  14.572  0.1811 -0.0086  0.1575
21618W        W37692   4.913   9.827   2.499  0.1805  0.1419  0.0482
21619W        W37693  16.333  10.436  12.664  0.2555 -0.1082  0.1552
21620W        W37694  13.611  11.103  16.367  0.5473 -0.0073 -0.0472
21621W        W37695   5.666   8.496   1.299 -0.0579  0.2778 -0.1045
21622W        W37696  12.979   6.126   0.872 -0.2190  0.2824  0.0955
21623W        W37697   5.562   9.560  12.256  0.0011  0.2058  0.0158
21624W        W37698  12.573  17.544   0.238  0.0308  0.2218 -0.2662
21625W        W37699   9.303   0.621   0.589  0.0869  0.1670  0.0760
21626W        W37700  12.167   1.056  15.674  0.1697 -0.1987 -0.1309
21627W        W37701  11.924   0.974  16.933 -0.1128  0.1195  0.1745
21628W        W37702   3.690  12.555  16.072  0.0460 -0.1591 -0.2035
21629W        W37703   9.538  13.776   3.104  0.1466  0.0286  0.1332
21630W        W37704   7.716  14.894   5.376 -0.0897  0.4734 -0.4166
21631W        W37705   0.598  17.205  12.092 -0.1281 -0.0302  0.0855
21632W        W37706   9.387  13.619   4.803  0.1442  0.3229 -0.1813
21633W        W37707  15.078  12.840  13.776 -0.2202  0.1938 -0.0284
21634W        W37708   7.142   2.805  12.088  0.3183  0.1239 -0.2448
21635W        W37709   7.908  16.815   1.543 -0.0816  0.1696 -0.0590
21636W        W37710   3.435   9.495   4.252  0.0215 -0.1282 -0.0646
21637W        W37711   7.705  10.690   1.094 -0.1718  0.2483 -0.0085
21638W        W37712   5.804   2.925   1.742 -0.0229  0.2369  0.3401
21639W        W37713  13.644  15.922   5.286  0.0901  0.0477 -0.1631
21640W        W37714   9.030  16.291  12.777 -0.3662  0.1275 -0.0567
21641W        W37715   0.077   8.253   1.306 -0.2544 -0.1586 -0.3337
21642W        W37716  10.180  17.036  16.105  0.0594 -0.1974  0.2192
21643W        W37717   2.536  16.175   5.532 -0.3747  0.0331  0.1632
21644W        W37718   0.375   7.672  12.111 -0.1960  0.2181 -0.0163
21645W        W37719   5.144  11.676   1.207  0.0479  0.1783 -0.0497
21646W        W37720   7.145  17.402  14.894 -0.3279  0.1440 -0.2009
21647W        W37721  11.810   3.197   2.734  0.0493 -0.0417 -0.2346
21648W        W37722  17.230   1.774  12.852 -0.0355  0.2464  0.1580
21649W        W37723   9.379   4.258  16.949 -0.2846  0.2114  0.3632
21650W        W37724   6.440  16.375  16.221  0.1901 -0.1522  0.0922
21651W        W37725   2.618   7.462  15.681  0.1056  0.0882  0.0686
21652W        W37726   0.446   9.450   5.113  0.1901 -0.1218 -0.1487
21653W        W37727  11.946  16.051  17.053 -0.3613 -0.0909  0.0847
21654W        W37728  15.285   8.456   2.212 -0.0533  0.2513 -0.1528
21655W        W37729  16.815   7.955  15.909 -0.2207  0.0330 -0.2427
21656W        W37730  14.031  14.122   0.201 -0.2832 -0.0302  0.0653
21657W        W37731  12.398   8.939   4.878  0.0602 -0.1141 -0.0441
21658W        W37732   3.069  13.702   2.663  0.1050  0.1561  0.1100
21659W        W37733  12.281   0.027   2.209 -0.0026 -0.2013  0.2245
21660W        W37734   2.541   5.729  13.945  0.1066  0.1589  0.1153
21661W        W37735  12.441  17.583  14.207  0.4578 -0.0088 -0.1064
21662W        W37736  17.659  10.292   2.494  0.1972  0.2549 -0.2191
21663W        W37737  10.355  14.751   0.993  0.1236 -0.0498  0.0256
21664W        W37738  14.267   4.652   1.238 -0.0301  0.2687 -0.2049
21665W        W37739  13.373   6.934   1.010  0.0740 -0.2677  0.1153
21666W        W37740   1.490   4.751  15.230 -0.2044 -0.2886  0.2293
21667W        W37741   8.306   5.156  13.904  0.1931 -0.0556 -0.0477
21668W        W37742   2.931  11.276  15.921  0.0857 -0.0265 -0.0033
21669W        W37743   4.576  14.369   0.807 -0.1337 -0.2342  0.0544
21670W        W37744   6.272  14.611   3.628  0.2799 -0.0469 -0.0473
21671W        W37745  11.407   2.774  14.335 -0.2386 -0.2333 -0.1737
21672W        W37746  11.386  14.725  15.716 -0.1192 -0.1107 -0.0755
21673W        W37747   2.682   9.517   1.189 -0.0902 -0.1605 -0.0069
21674W        W37748   3.047  16.776   0.359  0.2720 -0.1385 -0.1642
21675W        W37749  10.242  12.609   5.022  0.0093  0.0159 -0.2071
21676W        W37750   8.336   6.967   2.196 -0.0918  0.3123  0.2544
21677W        W37751  16.518  17.663   4.397 -0.1447  0.1030 -0.0018
21678W        W37752   4.131  10.732  15.084 -0.0746  0.1176 -0.1896
21679W        W37753   8.985  16.329  16.809 -0.0807 -0.0275 -0.0803
21680W        W37754   6.801   3.802  14.065  0.0829  0.1441  0.0506
21681W        W37755   8.648   1.050   2.507 -0.1551  0.0246 -0.2181
21682W        W37756   0.140   3.813   1.167  0.0324  0.0114  0.0824
21683W        W37757   2.386   0.833   4.967  0.1961 -0.0729  0.2485
21684W        W37758  17.394   7.790   3.054 -0.1822 -0.2418  0.1880
21685W        W37759  10.089  14.531   3.159 -0.2203 -0.1028  0.1543
21686W        W37760  16.035   0.713  13.493 -0.1992  0.1375 -0.0125
21687W        W37761  14.844   1.995  13.265  0.3356  0.0602  0.3520
21688W        W37762  10.420   2.247   0.216  0.0065 -0.0422  0.1599
21689W        W37763  13.306  12.328  15.078  0.0550  0.0530  0.2532
21690W        W37764   7.636  12.506   2.897  0.2100 -0.0442 -0.1133
21691W        W37765   6.670  16.388  14.963 -0.2689  0.1263 -0.1132
21692W        W37766  15.936   6.887  15.918  0.2146  0.0895 -0.0013
21693W        W37767  10.665   7.093  15.641  0.0945  0.2370  0.2819
21694W        W37768   6.839  13.910  12.160 -0.1878  0.2773  0.1507
21695W        W37769   9.759   7.793   3.480 -0.2096  0.1066  0.1330
21696W        W37770   9.405   3.482  15.478  0.1328 -0.0309 -0.3325
21697W        W37771  11.233   4.814  12.865 -0.3046  0.0288 -0.0996
21698W        W37772   3.800  12.317  16.963  0.1708 -0.0038  0.2196
21699W        W37773   6.583  16.580   1.459 -0.1393  0.0876  0.0136
21700W        W37774  10.659   3.147  13.008  0.0361  0.0420  0.1544
21701W        W37775   5.800   4.355  15.818  0.2860 -0.0322  0.1918
21702W        W37776   1.962  13.294   4.729  0.2074  0.0008  0.1144
21703W        W37777   4.001  17.542  17.111  0.0674  0.1558 -0.0036
21704W        W37778   2.806   8.589   1.368  0.1309 -0.3245 -0.0405
21705W        W37779  13.621  14.483   0.942 -0.0497 -0.3157  0.1418
21706W        W37780  10.263   1.438   3.061 -0.0038 -0.1713  0.1184
21707W        W37781  14.744   0.630  13.386 -0.1359  0.1987 -0.3592
21708W        W37782  12.251   6.777  14.723 -0.1106  0.1035  0.2233
21709W        W37783   2.060  14.829  15.066  0.1097 -0.0417 -0.2089
21710W        W37784  12.660  13.948  13.722  0.1211 -0.1219  0.1405
21711W        W37785   8.290   4.198   2.020 -0.1893 -0.1672  0.1925
21712W        W37786   3.045   4.580   3.489 -0.1072 -0.2538  0.1255
21713W        W37787   4.336   7.963   2.542  0.0018 -0.0743  0.0362
21714W        W37788  17.684   3.777   5.168  0.0234 -0.1692  0.0221
21715W        W37789   9.215   3.353   2.599 -0.0581  0.0740  0.0244
21716W        W37790  10.740   7.624  15.960  0.1158 -0.1158 -0.3336
21717W        W37791   8.599  12.919  16.247 -0.2119 -0.2257 -0.1551
21718W        W37792   0.480   4.366  12.535 -0.0487 -0.0340  0.0319
21719W        W37793  17.585   3.221  13.521  0.1410  0.2505 -0.1966
21720W        W37794  11.010   9.151   5.418 -0.0582 -0.1203  0.2111
21721W        W37795   9.585  14.485   1.426  0.1763 -0.2877  0.3116
21722W        W37796   5.306   0.413  13.503 -0.2637  0.2863  0.0596
21723W        W37797  10.430  15.962   1.756  0.0189  0.1383  0.3824
21724W        W37798   2.183  13.104   3.388 -0.2093  0.0982  0.1452
21725W        W37799  12.706   9.318   1.526 -0.1319  0.0633 -0.0464
21726W        W37800  13.311   1.551   2.105  0.1964 -0.3387 -0.2590
21727W        W37801   4.878   7.375   2.993  0.0899  0.1521  0.0320
21728W        W37802   9.966  17.488   2.786  0.1021 -0.0297 -0.0658
21729W        W37803   5.669   0.887  16.861  0.0361 -0.0367 -0.1876
21730W        W37804   0.328  13.649  11.480  0.0783  0.1868  0.1403
21731W        W37805   3.677   3.175  13.771  0.1434 -0.1705  0.1322
21732W        W37806  13.697   6.452   6.589 -0.1147  0.1508  0.1138
21733W        W37807  16.753   7.365   4.443  0.2310 -0.1559 -0.1794
21734W        W37808   3.369  12.618   2.050 -0.1810  0.1585  0.0423
21735W        W37809   2.200  10.179  12.171  0.1408 -0.0716 -0.1710
21736W        W37810   5.957  11.581   1.195 -0.0388  0.1075  0.2990
21737W        W37811   3.089  13.270   2.985  0.0077 -0.1772 -0.1163
21738W        W37812  15.872   3.918  11.365 -0.1503 -0.2218  0.2103
21739W        W37813  17.337   0.783  13.100  0.0288 -0.0191 -0.0170
21740W        W37814  10.503  16.886   3.314 -0.2013  0.0921 -0.4509
21741W        W37815  16.229  13.530   0.646  0.3715  0.0367 -0.3477
21742W        W37816   6.366   5.002   2.269  0.3406  0.2767 -0.0585
21743W        W37817   5.099   9.304   3.356 -0.0421  0.1365  0.2636
21744W        W37818   9.157  16.407   3.472  0.1278 -0.2198  0.3188
21745W        W37819   9.866  11.368   1.210  0.1903  0.0809 -0.2610
21746W        W37820  16.332   6.993  14.321 -0.3205  0.2524 -0.1411
21747W        W37821   2.447  17.273   1.786  0.0166  0.3715 -0.2581
21748W        W37822   3.007  10.374  12.057 -0.0356 -0.0026  0.0245
21749W        W37823   4.669   8.102  12.746  0.2111 -0.0705 -0.2367
21750W        W37824  10.269   9.636   3.790 -0.1119 -0.6159  0.0354
21751W        W37825  12.390  10.606   3.936  0.0779  0.0813  0.1000
21752W        W37826   3.748  10.707  11.767 -0.2847 -0.2924 -0.2614
21753W        W37827  17.568   2.585  15.087  0.0853 -0.0836 -0.1493
21754W        W37828   5.647   7.888   2.002 -0.2008  0.2222 -0.0869
21755W        W37829  11.479   3.060  11.777 -0.3392  0.0456  0.4434
21756W        W37830   8.257   1.883  14.322 -0.2046 -0.1890 -0.0142
21757W        W37831   9.148   5.032  14.144 -0.1978 -0.0861  0.2873
21758W        W37832  15.503  14.093   4.701  0.0360 -0.3542  0.1779
21759W        W37833   4.641  16.878  14.405  0.3198 -0.0746 -0.3510
21760W        W37834   7.910  17.580  13.759 -0.2523  0.0999  0.1907
21761W        W37835  11.145  14.630   5.003 -0.2459 -0.1933  0.2421
21762W        W37836   5.909   2.966   0.017 -0.2846 -0.3487 -0.0681
21763W        W37837  15.377   4.728   1.500  0.0293 -0.0306 -0.2642
21764W        W37838  16.019   2.610  12.372  0.3786  0.3968 -0.0557
21765W        W37839  11.268   4.319   0.420 -0.1524  0.0415  0.2237
21766W        W37840  10.085   3.011  13.740  0.0340 -0.1504  0.0729
21767W        W37841  10.582  13.464   4.457  0.1048  0.0693  0.5005
21768W        W37842   7.251   9.210   3.948  0.0965 -0.0605 -0.1106
21769W        W37843   8.076   2.412   1.009 -0.0617 -0.0712 -0.0226
21770W        W37844  17.111   3.816  13.090  0.4092 -0.1455  0.2172
21771W        W37845  13.283   7.518   3.457  0.1709  0.0107  0.3284
21772W        W37846  14.626   9.914  12.740 -0.2443  0.1021 -0.0473
21773W        W37847   5.498   6.462   1.083 -0.1909  0.5165  0.0569
21774W        W37848  12.348  11.333  16.603  0.0787  0.0872  0.0214
21775W        W37849   3.778  17.132  15.466 -0.0129  0.1620 -0.0448
21776W        W37850  15.763  15.765  14.739 -0.2569 -0.1367 -0.0737
21777W        W37851  15.184   7.857   1.060  0.1081  0.0873  0.0912
21778W        W37852   0.445   1.827   3.059  0.1014 -0.0596  0.1270
21779W        W37853   4.894  14.716   2.304  0.1813  0.1025 -0.1150
21780W        W37854   6.722   7.755  12.122 -0.0359  0.1571 -0.0297
21781W        W37855  13.430  14.732  12.145 -0.2550 -0.0373 -0.0191
21782W        W37856  15.716   9.528   2.842  0.1111  0.0074 -0.1423
21783W        W37857   8.081   7.027  12.091 -0.1445  0.0726  0.3468
21784W        W37858  13.410   9.310  15.361  0.0320 -0.0121  0.1026
21785W        W37859  14.654  10.131  13.288 -0.0316 -0.2047 -0.1085
21786W        W37860  16.339  17.194  13.869 -0.3489 -0.0785 -0.2550
21787W        W37861   4.387   6.676   4.433 -0.0965 -0.4167 -0.0325
21788W        W37862   2.272  12.991  14.150  0.2952 -0.1838  0.4412
21789W        W37863   0.096   9.859   0.572 -0.3024 -0.1963 -0.0422
21790W        W37864  12.780  10.460   0.663  0.0915  0.2614  0.3768
21791W        W37865  16.246  17.300  14.743 -0.0408 -0.4820  0.2054
21792W        W37866   9.217  15.272   4.991  0.2561 -0.1682  0.0255
21793W        W37867   7.124   4.835  15.933 -0.1379  0.1266 -0.2983
21794W        W37868  11.751   1.025  12.773  0.3409  0.1532 -0.2206
21795W        W37869   1.216  15.933  13.151  0.2443 -0.2693 -0.0093
21796W        W37870   8.099  11.791   2.365  0.1475  0.1662 -0.2040
21797W        W37871   7.606   5.868  13.936 -0.2385  0.1568  0.2843
21798W        W37872  13.064   8.058   4.452  0.0255  0.1438 -0.1764
21799W        W37873   4.399   4.243   5.754  0.0118  0.1134  0.3909
21800W        W37874  11.317  17.104   1.515  0.1244  0.1058 -0.1396
21801W        W37875   3.827  17.594  13.367 -0.1625  0.2750  0.0214
21802W        W37876   3.761   7.214  13.949  0.1847  0.2292 -0.2435
21803W        W37877   4.960   5.253   2.138 -0.0241 -0.0362 -0.2442
21804W        W37878   8.308   7.599  16.515  0.3574  0.1032  0.1253
21805W        W37879   3.372   7.334  14.297  0.0454  0.0895 -0.1251
21806W        W37880   0.087   2.320  13.399  0.0342  0.0231  0.2670
21807W        W37881  15.491  12.299  15.872  0.0752 -0.2717  0.2355
21808W        W37882   2.590  12.881  16.106 -0.2010  0.0328 -0.2349
21809W        W37883   2.864  14.001   4.837 -0.0708  0.2036  0.1891
21810W        W37884   3.102  12.281  16.949  0.1615  0.1102 -0.1430
21811W        W37885  11.136   7.020  15.434  0.0163  0.1769 -0.0037
21812W        W37886   7.578   2.429   3.281 -0.0481  0.2817 -0.1119
21813W        W37887   3.849   6.035  15.671  0.2261  0.1002  0.1206
21814W        W37888   3.177  13.564   0.422 -0.1770  0.0298  0.4184
21815W        W37889  14.605  15.059   5.919  0.4069  0.2559 -0.2473
21816W        W37890   5.491   5.177   3.276  0.0342  0.0415 -0.2379
21817W        W37891   6.686   1.151   5.002 -0.0328  0.1245  0.0757
21818W        W37892   5.741   0.218  12.193  0.1643 -0.0666 -0.1498
21819W        W37893  16.419   8.169  14.408 -0.0523  0.2669 -0.0081
21820W        W37894   9.310  14.540   2.800  0.0786 -0.4043 -0.0226
21821W        W37895   0.188  13.808  15.348  0.0633 -0.0455 -0.0627
21822W        W37896  17.626  14.067  16.223  0.1779  0.1921 -0.1365
21823W        W37897   0.409  17.207   4.618  0.1960  0.4256 -0.0794
21824W        W37898  15.454  14.004  12.059  0.1353 -0.2096  0.0846
21825W        W37899   6.447  14.888  16.990 -0.0920 -0.1357  0.0077
21826W        W37900   1.104   6.640  15.261  0.3669  0.0170 -0.0250
21827W        W37901  11.001  15.860  12.829 -0.2859  0.0491 -0.2663
21828W        W37902   1.911  15.890  14.961 -0.1644  0.0311  0.3056
21829W        W37903  17.506   0.944  15.245 -0.0528  0.1821  0.0183
21830W        W37904   3.903   6.806  13.700  0.0803  0.2915 -0.0665
21831W        W37905   6.228   9.304  16.581 -0.2205  0.0842 -0.2059
21832W        W37906  15.668   8.838   0.186 -0.1468  0.1665 -0.1373
21833W        W37907   0.772   1.830  16.437 -0.2208 -0.0945  0.0227
21834W        W37908   6.601   9.376   6.010  0.0851 -0.0677 -0.1358
21835W        W37909   6.178  15.995   1.236  0.0600 -0.2017 -0.0866
21836W        W37910   4.389   4.483   2.292  0.1194  0.0247  0.1183
21837W        W37911  15.809   1.368   0.221 -0.1878 -0.3534 -0.2214
21838W        W37912  14.000  10.813  12.902  0.1557 -0.2046 -0.1479
21839W        W37913   6.891   2.654   2.205  0.2064  0.1092 -0.2592
21840W        W37914   5.519   9.638  14.617 -0.0689  0.3840 -0.2493
21841W        W37915  17.633   5.861   0.945 -0.2922 -0.0746 -0.1249
21842W        W37916  17.347  15.882  15.749  0.1358 -0.0689 -0.1496
21843W        W37917  10.291   3.722  14.940  0.0028 -0.0622 -0.0653
21844W        W37918   1.377  10.307   1.175  0.0249  0.2425  0.1754
21845W        W37919  15.635  14.131  14.600  0.1210  0.0097  0.1191
21846W        W37920  14.374  10.291  15.146  0.1233 -0.2140 -0.2607
21847W        W37921  13.082   1.655  13.481  0.1502 -0.1033 -0.2412
21848W        W37922   3.627   7.617  16.174  0.2582  0.0507  0.2570
21849W        W37923   1.223   1.729   1.162  0.1413 -0.1058 -0.0635
21850W        W37924   6.191   0.614  15.211 -0.0929 -0.1427 -0.1552
21851W        W37925   5.160   3.413   3.808  0.3155  0.0809 -0.1413
21852W        W37926   3.400   2.211   2.441 -0.3146  0.1946 -0.2038
21853W        W37927   5.107   9.095   5.843 -0.0100  0.3366 -0.0958
21854W        W37928   4.944   2.201  15.547 -0.0401 -0.3089 -0.0277
21855W        W37929   6.536  11.145   0.775 -0.1125  0.2005 -0.2940
21856W        W37930   4.784   4.998  14.081 -0.1895  0.0275 -0.3430
21857W        W37931   3.347  12.383   1.057 -0.3101 -0.2395  0.3225
21858W        W37932   8.004  12.885  16.279 -0.1491  0.0781  0.2781
21859W        W37933   2.388  11.265   1.486  0.1232 -0.2108 -0.2820
21860W        W37934   4.751  14.746   5.489 -0.1160 -0.2538 -0.4069
21861W        W37935   9.571   8.481   6.002 -0.0853  0.2332 -0.0496
21862W        W37936   7.245  16.441  13.429  0.0834 -0.0194 -0.1819
21863W        W37937   7.362   1.314  17.078  0.1754  0.2854 -0.0217
21864W        W37938   0.517  14.816  13.095 -0.1777 -0.1960  0.2372
21865W        W37939  12.773   0.404  12.619 -0.1887 -0.0986  0.3404
21866W        W37940  17.622  16.962  16.697 -0.0756 -0.0576 -0.0362
21867W        W37941   6.580  13.569  15.468 -0.1755  0.0839 -0.2083
21868W        W37942   9.215   9.154   2.663  0.1311 -0.1013 -0.2256
21869W        W37943   8.288   0.708   0.289  0.1611  0.3141  0.0203
21870W        W37944  11.825  16.207  13.541  0.1519  0.1887 -0.2217
21871W        W37945  11.560   6.349  15.776 -0.0594  0.0193 -0.0042
21872W        W37946  16.811  11.506   5.909  0.1449  0.2489 -0.0713
21873W        W37947  13.806  14.176   1.859 -0.0526  0.2227  0.1427
21874W        W37948   5.065   9.416   0.270 -0.1369 -0.1647  0.1519
21875W        W37949   2.462  11.942  15.504 -0.1177 -0.0747 -0.1709
21876W        W37950   6.817  15.884   2.145 -0.0256 -0.1389 -0.3175
21877W        W37951  14.510  17.239  12.507 -0.0484 -0.0752 -0.0693
21878W        W37952   7.962   1.943   1.790 -0.1129 -0.0293  0.2538
21879W        W37953  10.509  12.527   2.034  0.1361  0.3342 -0.1298
21880W        W37954  13.981   5.210   1.915  0.2252 -0.0210  0.2247
21881W        W37955  12.601   5.882  15.438  0.3014  0.2022 -0.0929
21882W        W37956   6.785  12.463  16.130  0.1835  0.0866 -0.1406
21883W        W37957  12.253   8.793   2.136 -0.1202  0.1902 -0.1243
21884W        W37958  12.429  15.873  16.200  0.0707 -0.2286 -0.0512
21885W        W37959  16.313  16.427   0.593  0.0493  0.0283 -0.2710
21886W        W37960   1.943  12.084  13.530  0.1529  0.1187  0.0573
21887W        W37961  14.407  17.274   5.105  0.0756  0.2681  0.0977
21888W        W37962   9.367   5.748   5.861 -0.0674  0.1997  0.0263
21889W        W37963   4.587   4.225   3.767  0.0787  0.1214 -0.1988
21890W        W37964  11.714   2.727   4.773  0.1924 -0.0114 -0.0946
21891W        W37965   9.340   1.594   4.995 -0.1334 -0.0064  0.3189
21892W        W37966   1.892  13.670   1.175 -0.1859  0.0683 -0.3860
21893W        W37967   7.379  15.194  12.457  0.1783 -0.3421  0.3018
21894W        W37968  12.254  12.644  16.447  0.0620  0.1341 -0.0395
21895W        W37969   8.264   7.881  12.001  0.0409  0.1277  0.0699
21896W        W37970   8.549   2.830   1.745 -0.0774 -0.1713 -0.2885
21897W        W37971   5.430   3.376   3.181 -0.2448 -0.0653  0.0051
21898W        W37972  13.174  11.810   1.346  0.0442  0.0538 -0.2108
21899W        W37973   5.509   7.256  15.011 -0.1365 -0.1389  0.2157
21900W        W37974   8.843   2.765  15.851 -0.2582  0.2310  0.2892
21901W        W37975   2.637  10.552   5.010 -0.0771 -0.0783 -0.1608
21902W        W37976  14.228  12.887   5.727 -0.0438  0.0961  0.2141
21903W        W37977  14.176  12.535  14.261  0.0091 -0.2278 -0.0400
21904W        W37978   2.285   3.417  14.256  0.0921 -0.4104  0.3634
21905W        W37979  14.269   0.535   4.978  0.0558 -0.0593 -0.1839
21906W        W37980   5.017   3.202   2.291  0.0181 -0.2347  0.0497
21907W        W37981   8.231  12.968   1.109  0.0735  0.0113  0.1279
21908W        W37982   8.392   1.691   5.336  0.2005 -0.1479  0.3062
21909W        W37983   0.159  13.460   1.236 -0.1267 -0.3425 -0.1425
21910W        W37984   1.021  12.751  15.261  0.1065  0.2114  0.1523
21911W        W37985   8.322   4.715  14.087 -0.1085  0.2159  0.0805
21912W        W37986   8.753   1.090  15.712 -0.0462 -0.1980 -0.2008
21913W        W37987   9.943   9.574  14.690  0.0721 -0.2690 -0.3226
21914W        W37988   4.832   0.631   3.133  0.0184 -0.0386  0.1684
21915W        W37989   7.070  15.379  13.469 -0.0256  0.1776  0.0499
21916W        W37990   6.575  15.491  14.559 -0.0571 -0.2186 -0.0682
21917W        W37991   5.071   8.009  15.659  0.0993  0.0458  0.0639
21918W        W37992  12.012  14.772   3.427  0.1650 -0.1454 -0.3244
21919W        W37993   5.942  12.741   0.067  0.1500  0.0557  0.0556
21920W        W37994  17.434  15.398   5.962  0.1748  0.0018 -0.2159
21921W        W37995   7.195  12.556  12.939 -0.2291 -0.1312 -0.1620
21922W        W37996  14.824   2.851  15.095  0.0570  0.1758  0.0209
21923W        W37997  14.655   1.794  11.840  0.2212  0.0810 -0.1323
21924W        W37998   8.748   1.519  15.374 -0.2133  0.0590  0.1071
21925W        W37999   7.768   7.475   1.061 -0.0695  0.3585 -0.1057
21926W        W38000   7.520  10.597   0.643 -0.0598 -0.0992 -0.0781
21927W        W38001  10.615  17.342   1.929  0.2781 -0.1870 -0.1992
21928W        W38002   4.272   7.055   6.302 -0.0938  0.3109  0.2462
21929W        W38003   0.753   9.557   5.483 -0.1289 -0.2390  0.1656
21930W        W38004   2.225  11.619  13.547 -0.1299 -0.0668  0.1161
21931W        W38005   4.729   6.965  12.761 -0.1370  0.0574  0.0671
21932W        W38006   1.670  11.990   1.522 -0.0327  0.1306  0.0865
21933W        W38007   4.128   2.553   1.866 -0.2594 -0.0252  0.1466
21934W        W38008  15.328  11.646  12.153 -0.0181  0.0544 -0.1749
21935W        W38009  11.575  15.280   4.312  0.1506 -0.1637  0.1199
21936W        W38010   7.410   1.677   6.237 -0.1413  0.0164 -0.1151
21937W        W38011  15.305   5.557  16.018  0.0253 -0.1582 -0.3854
21938W        W38012   6.649  10.706   5.880  0.4447  0.0448 -0.0209
21939W        W38013  14.821   4.330   2.845  0.0479  0.0175  0.0236
21940W        W38014  12.858   1.330   5.458  0.2283 -0.0732 -0.3049
21941W        W38015  16.750   3.171   5.042  0.1948 -0.0336  0.0972
21942W        W38016   3.574   8.082  11.699  0.1335  0.2054 -0.0282
21943W        W38017   1.101  13.290   5.207 -0.1488  0.3411 -0.2021
21944W        W38018  17.427   7.846  16.798 -0.0036 -0.0631 -0.1156
21945W        W38019   2.470   0.845  12.429  0.2903  0.1212  0.0092
21946W        W38020   0.340   3.986  15.918 -0.1682 -0.2677 -0.1171
21947W        W38021  14.494   3.848   4.123  0.0311 -0.0805 -0.1690
21948W        W38022  12.523   7.618  14.761  0.0230  0.1480  0.2284
21949W        W38023   7.095   1.855   3.306  0.1501  0.0400  0.0008
21950W        W38024   8.758  15.789  12.478 -0.0504 -0.2431  0.2125
21951W        W38025   1.146  11.076   0.615  0.3233 -0.0702  0.2363
21952W        W38026  11.750   0.150  15.229  0.0107  0.0388  0.2182
21953W        W38027   5.226  16.479   2.614 -0.2671  0.0062 -0.2398
21954W        W38028  12.221  10.684  14.856  0.2478 -0.2895  0.0212
21955W        W38029  11.862  11.571  12.301 -0.2995  0.0038 -0.0817
21956W        W38030  13.288  14.205  16.285  0.0781 -0.3637 -0.3488
21957W        W38031   5.469  16.492  14.632 -0.1543 -0.0910  0.0914
21958W        W38032   7.444  12.958  12.803 -0.0301  0.2015  0.1786
21959W        W38033   5.778   5.934   2.845 -0.3467  0.2956 -0.2749
21960W        W38034   7.309  11.628   5.390  0.1691  0.1351 -0.0887
21961W        W38035   2.857  13.195  15.775 -0.0599  0.1659  0.0171
21962W        W38036  11.824  12.558   4.428  0.0127  0.1734 -0.1880
21963W        W38037  10.860  11.680  12.045  0.0944  0.2256  0.3609
21964W        W38038   9.673  12.785  15.133  0.2400  0.4085 -0.3413
21965W        W38039   3.773   6.569  14.229 -0.2408  0.0421  0.1125
21966W        W38040  14.639   4.712   3.269 -0.1811  0.1900  0.0170
21967W        W38041  10.326   3.371   5.466  0.0607 -0.0750 -0.1669
21968W        W38042   2.327   4.116   3.269  0.1114 -0.0434  0.0779
21969W        W38043   0.530   9.340  15.997  0.1223 -0.0188 -0.0707
21970W        W38044  13.380   6.462  12.780  0.3153  0.2818  0.0516
21971W        W38045  10.966  12.944   0.632 -0.0404  0.0682 -0.0949
21972W        W38046   8.344   6.355   5.209 -0.2459 -0.4456 -0.1759
21973W        W38047  15.931   5.649   4.720 -0.3624 -0.3845  0.0738
21974W        W38048  11.476   6.683   0.309 -0.1920  0.1999  0.1021
21975W        W38049   1.309   3.899   2.513  0.1744 -0.1130  0.1529
21976W        W38050   3.497   5.226  17.045 -0.0222 -0.0687  0.3431
21977W        W38051  12.827  17.655  13.485  0.0142 -0.3874 -0.3862
21978W        W38052  16.515   9.568   1.897 -0.2363  0.4003  0.0154
21979W        W38053   2.899  14.388   3.167  0.2335  0.1650  0.1019
21980W        W38054   9.546   7.630  14.756 -0.2884  0.1145  0.2311
21981W        W38055  13.024   6.622   0.737 -0.2032 -0.0501 -0.3071
21982W        W38056  14.705  10.559   4.665 -0.0606 -0.0063  0.1558
21983W        W38057   3.273   1.991   1.219  0.3460 -0.1708 -0.1091
21984W        W38058  10.486   0.847   3.403  0.5046  0.0566 -0.1534
21985W        W38059   0.460  11.043   5.812 -0.2300 -0.0162  0.2048
21986W        W38060  14.864  10.306  15.690  0.1497 -0.0364  0.3304
21987W        W38061  16.408   2.295  16.308 -0.3283  0.2086  0.3282
21988W        W38062  16.392   3.705  16.743  0.0789 -0.0059  0.0611
21989W        W38063  16.391  14.186  14.789 -0.0919  0.0213  0.0727
21990W        W38064  12.755  10.328   5.955 -0.0956  0.0884 -0.1862
21991W        W38065  10.982  13.666   2.635 -0.0347  0.1032 -0.0321
21992W        W38066   3.864   2.426  14.490  0.3347  0.1795 -0.1286
21993W        W38067   4.544   4.985  10.633 -0.2099  0.3018  0.0666
21994W        W38068   2.305   6.567  13.558 -0.1927 -0.0033 -0.2175
21995W        W38069   7.060   6.713   0.763 -0.0414  0.1592 -0.0536
21996W        W38070  11.527   7.083   0.649  0.1642 -0.1686  0.0365
21997W        W38071  10.427  13.155   2.787 -0.1476  0.0443  0.1304
21998W        W38072  12.627  11.772  13.434  0.1478 -0.0428  0.0386
21999W        W38073  10.852  14.068   2.255 -0.1789 -0.1582  0.1363
22000W        W38074  16.277   1.376  14.166  0.0508  0.0921  0.1642
22001W        W38075   5.440  14.459  15.361  0.0489  0.0808  0.0144
22002W        W38076   3.128   9.781   3.978 -0.1484 -0.0662  0.0414
22003W        W38077  16.471   0.872   4.805  0.2998 -0.1149  0.0312
22004W        W38078  15.848   8.234  11.800 -0.2049  0.0738 -0.2280
22005W        W38079   5.737   3.566   4.920 -0.0102  0.0465 -0.1129
22006W        W38080   8.252  12.413   2.421  0.1739 -0.0517  0.1149
22007W        W38081   3.458   8.945   0.957 -0.1181  0.0811 -0.1742
22008W        W38082  12.308  12.248   3.617  0.1337 -0.1283 -0.2701
22009W        W38083   0.512  15.314   0.054 -0.0403  0.0957 -0.1388
22010W        W38084  11.055   6.027   5.169  0.0622 -0.1148 -0.0006
22011W        W38085   4.235  11.295   3.420  0.2103  0.0021 -0.2432
22012W        W38086   1.136   1.637   4.598 -0.0768 -0.1100 -0.0418
22013W        W38087  17.025   8.301   6.512  0.2201 -0.1471  0.1493
22014W        W38088  11.036   6.704   3.893 -0.3940  0.2584 -0.0281
22015W        W38089   2.311   6.382  16.516 -0.0664 -0.0007 -0.0803
22016W        W38090   5.889   8.908  15.091 -0.3277  0.1639 -0.0297
22017W        W38091   2.071   7.529  15.607 -0.0428 -0.1228  0.0962
22018W        W38092   8.558   4.222  14.788  0.0911 -0.2751 -0.0594
22019W        W38093   3.114  14.804  16.377 -0.1223  0.1346 -0.1400
22020W        W38094   3.046   3.595   2.769 -0.2032  0.1842  0.0606
22021W        W38095  17.615   2.708   6.319 -0.0144  0.0561 -0.1469
22022W        W38096  14.435   3.533   0.225  0.1032  0.0418  0.3129
22023W        W38097  11.984  11.475   5.062 -0.0486 -0.1692  0.0003
22024W        W38098  15.051  14.047  15.883  0.0789 -0.0300 -0.0665
22025W        W38099  12.969   0.636  16.084 -0.1116 -0.1082 -0.0250
22026W        W38100  17.520  15.685  13.186  0.0562 -0.0638  0.3353
22027W        W38101   8.395   4.738   5.496  0.1052  0.0775  0.1132
22028W        W38102  12.711   4.594   4.583  0.0660 -0.0250 -0.0576
22029W        W38103   1.299  10.124   3.442  0.0716  0.2912 -0.0551
22030W        W38104  10.497  14.474  14.074 -0.0170 -0.2432 -0.2859
22031W        W38105   5.854  15.170  14.027 -0.3040 -0.1399  0.0374
22032W        W38106  12.413  12.307  16.976  0.1688 -0.0580  0.0094
22033W        W38107   0.094  11.898  16.342 -0.0507  0.2694  0.3795
22034W        W38108   7.810   0.688   3.050 -0.2781  0.3965  0.2117
22035W        W38109   8.615   7.949   0.166 -0.0993 -0.0504  0.1344
22036W        W38110   7.729  15.232  11.120 -0.1072  0.0123  0.0303
22037W        W38111   8.453  10.203   0.910  0.1215 -0.0651  0.0157
22038W        W38112   8.478  14.998  15.690 -0.0405  0.2260  0.0091
22039W        W38113   6.611  15.652  12.307  0.2965 -0.0752  0.1408
22040W        W38114   5.264   5.386   2.898  0.2382  0.1999 -0.2944
22041W        W38115   2.047   8.057   4.307  0.0446  0.2269 -0.1401
22042W        W38116   4.438   5.899  14.086 -0.1929  0.0442 -0.0427
22043W        W38117  10.011   1.250   0.956  0.0366 -0.1630  0.0886
22044W        W38118   4.916   3.138   4.608  0.1917 -0.0138 -0.0457
22045W        W38119   0.030  15.292   1.747  0.0319 -0.1089  0.3895
22046W        W38120  15.377   8.063  17.070 -0.0446 -0.0122  0.2163
22047W        W38121  14.774   2.902   4.109 -0.3210  0.2922 -0.0788
22048W        W38122   9.154   6.772  13.637 -0.0245  0.1788 -0.2466
22049W        W38123   5.718   7.131   3.435  0.1185 -0.3212  0.2560
22050W        W38124  10.697   0.861  17.111  0.2537 -0.1048  0.2284
22051W        W38125   2.505   4.627   6.299 -0.0760 -0.1558 -0.1258
22052W        W38126  13.015   7.891   3.731 -0.3269  0.2736 -0.1468
22053W        W38127   1.679  10.259   3.714  0.0151 -0.1372  0.0659
22054W        W38128  16.905   9.387   2.208 -0.0813 -0.1510 -0.2458
22055W        W38129   7.176   0.834  16.292 -0.3285 -0.6041 -0.1209
22056W        W38130   0.178  13.957   5.866 -0.0033  0.0656 -0.2945
22057W        W38131  16.820   4.937  15.089 -0.0859  0.1215  0.0225
22058W        W38132   2.123   2.740   3.767  0.1529 -0.0036 -0.0854
22059W        W38133  11.810  10.427  11.954 -0.2781 -0.0795 -0.2227
22060W        W38134  14.167   1.548   1.876 -0.4649 -0.3024  0.1242
22061W        W38135  12.333  11.401   5.471 -0.1678 -0.2557  0.3030
22062W        W38136   5.283   1.761  12.827 -0.0133 -0.1690 -0.1964
22063W        W38137   9.988  12.639  16.625 -0.1394  0.2853  0.4485
22064W        W38138   1.215  12.741   4.902 -0.1962 -0.1372  0.3432
22065W        W38139   0.585   5.715   2.450  0.1663  0.4149  0.0350
22066W        W38140  15.022  16.781  16.919  0.1085  0.0704 -0.1468
22067W        W38141   1.892  10.636   3.301 -0.0414 -0.0327  0.1562
22068W        W38142   4.471  17.247  14.108 -0.3125 -0.0126 -0.0793
22069W        W38143   6.928   8.430   5.321 -0.0066  0.2975  0.1677
22070W        W38144   0.795   6.613   3.142  0.2050 -0.1679 -0.0164
22071W        W38145  15.979   0.024  15.857 -0.1370 -0.2288  0.0784
22072W        W38146   3.928   9.809   0.055 -0.1242  0.3095  0.1345
22073W        W38147  11.897   4.801  13.902 -0.2919  0.0188  0.3542
22074W        W38148  14.848   3.411   4.184  0.1019 -0.0193 -0.0561
22075W        W38149   3.041   9.103  15.498 -0.2244  0.2350  0.0435
22076W        W38150   2.649   7.516  12.746 -0.2220 -0.0487 -0.2009
22077W        W38151  13.281  13.191   2.763 -0.1972 -0.0793 -0.0661
22078W        W38152  12.371   2.999   5.005  0.0663 -0.1429  0.0082
22079W        W38153   6.399   9.918   0.257  0.0811 -0.2641  0.0745
22080W        W38154  15.186  15.510  13.944 -0.0003 -0.2346 -0.0300
22081W        W38155  16.047  12.285   3.223  0.0506 -0.2763 -0.1091
22082W        W38156  17.123   4.157   3.261 -0.0238  0.1835  0.0639
22083W        W38157   6.190   3.630   4.757  0.2673 -0.1858 -0.0313
22084W        W38158   1.456  14.308  12.756  0.0199  0.1851 -0.2623
22085W        W38159  12.230   6.368  12.422 -0.0583  0.1830 -0.2231
22086W        W38160   2.193  16.740   4.869 -0.0867 -0.2626  0.2023
22087W        W38161  12.624   4.784  13.418 -0.2560  0.0314  0.3475
22088W        W38162  13.638   1.613   3.946 -0.3462 -0.0028 -0.1989
22089W        W38163   1.328   9.228  14.430  0.1415  0.0188  0.0957
22090W        W38164  15.455   4.689   5.708 -0.0722  0.2408 -0.0001
22091W        W38165  11.102  13.714   0.412  0.0769 -0.1489  0.5680
22092W        W38166  13.308   6.896  14.391  0.0547 -0.0978  0.1852
22093W        W38167   0.690   7.424   2.053  0.0202  0.1817 -0.2290
22094W        W38168  17.601   7.900   5.307 -0.3476  0.0824  0.1365
22095W        W38169   5.900  13.688  14.317 -0.3366 -0.1670  0.1031
22096W        W38170   5.251  13.258  12.950 -0.1874 -0.0727 -0.0065
22097W        W38171   7.864   3.704  13.329 -0.0727 -0.0340 -0.1569
22098W        W38172   8.112  14.777  16.373 -0.0155  0.1108 -0.1231
22099W        W38173   7.153  15.042   2.070  0.0046 -0.1339 -0.1929
22100W        W38174  13.147  16.248  15.744 -0.0588  0.2793 -0.0100
22101W        W38175   5.306   8.031  15.086  0.1872 -0.1946  0.0372
22102W        W38176   8.919  14.941   4.532  0.3438  0.1750 -0.2363
22103W        W38177   4.772  15.643  13.372 -0.0493  0.1257 -0.1402
22104W        W38178  13.265   7.162   5.537 -0.1541  0.0225 -0.0395
22105W        W38179  13.286  14.355   4.454  0.1917 -0.1559 -0.1601
22106W        W38180  14.113   1.057   3.472 -0.2565 -0.1260 -0.1350
22107W        W38181   3.218  16.841  12.119  0.0142  0.4204  0.0411
22108W        W38182  11.839   3.272  12.947 -0.1804  0.3512 -0.0430
22109W        W38183  17.050  13.917  16.370  0.2824  0.1232 -0.0851
22110W        W38184  14.080  10.800   5.386 -0.0977  0.0463  0.0273
22111W        W38185   9.188  12.191  16.226  0.1035 -0.0203 -0.0757
22112W        W38186  17.000  13.349  11.730  0.0403 -0.0078  0.3354
22113W        W38187  16.362  10.868  16.682 -0.2377 -0.0113  0.1893
22114W        W38188  15.893   2.086   6.430 -0.2307  0.4696  0.1245
22115W        W38189   1.934  10.563  15.811 -0.0958 -0.1360 -0.2329
22116W        W38190   8.526  11.811  14.245 -0.0646 -0.1131 -0.0683
22117W        W38191   0.530  16.711  12.293  0.0882 -0.2373 -0.1302
22118W        W38192   9.976  15.570  13.547 -0.0377  0.1505  0.3593
22119W        W38193  15.636   0.335   4.656 -0.3171 -0.2667 -0.5574
22120W        W38194   3.175  15.180   5.181  0.0910 -0.1821 -0.2951
22121W        W38195   2.700   9.950   4.192 -0.0746  0.2579 -0.2086
22122W        W38196  14.912   7.992  16.793 -0.2124  0.2327  0.3583
22123W        W38197   8.842   1.338  14.627  0.0695  0.1753 -0.3627
22124W        W38198  14.433  13.608   6.189  0.3492 -0.0027 -0.0350
22125W        W38199  17.169   5.585  10.909 -0.0873  0.0381 -0.0737
22126W        W38200  12.110   9.870   2.691 -0.0328  0.0909  0.0179
22127W        W38201   0.131   0.021  12.579 -0.1514  0.0830 -0.1037
22128W        W38202   1.890   3.685  11.402  0.1622  0.1400 -0.1761
22129W        W38203  15.501   0.462   1.480  0.0933 -0.0425 -0.1136
22130W        W38204   2.267  16.329  13.672  0.3132 -0.1821 -0.0075
22131W        W38205   4.346   8.200   0.893 -0.2246  0.0154  0.0241
22132W        W38206   9.806   5.200   2.309 -0.0987 -0.3113  0.0274
22133W        W38207   7.578   7.079   5.809  0.2843  0.0032 -0.0624
22134W        W38208  17.347   5.033   5.167 -0.0382 -0.0838 -0.1547
22135W        W38209   6.045  12.767   2.249 -0.2218 -0.1291 -0.0608
22136W        W38210   1.540  15.963  16.033  0.0975 -0.3325  0.2727
22137W        W38211   0.533   5.738  14.283  0.0843  0.2402  0.3163
22138W        W38212  16.030   4.422   3.577 -0.0552 -0.2544  0.0379
22139W        W38213   1.979   2.132  11.572 -0.1980  0.0374  0.2026
22140W        W38214  11.676   1.560  13.616  0.1114 -0.0159 -0.0821
22141W        W38215  15.342   2.858   1.828  0.2131  0.0532 -0.1034
22142W        W38216   7.205  14.791  15.961 -0.0530 -0.0568  0.1145
22143W        W38217  10.010  13.129   4.465  0.0274 -0.0164 -0.2264
22144W        W38218   7.934  13.432  13.112 -0.1468  0.1552  0.2606
22145W        W38219   3.495  10.327  15.934  0.0384 -0.0696 -0.2488
22146W        W38220   3.528  16.750   5.439 -0.0328 -0.0711  0.1200
22147W        W38221  11.755   9.925  13.021 -0.1358 -0.0053 -0.1809
22148W        W38222   7.792  14.477   1.172  0.1207  0.0307 -0.2114
22149W        W38223  16.585  12.809  15.167  0.0270 -0.0413 -0.1463
22150W        W38224   2.092   9.539   4.866  0.3195  0.2262 -0.2570
22151W        W38225  12.166   0.808  13.996  0.2678  0.0390 -0.0265
22152W        W38226   6.062  15.258  14.519  0.0709  0.0613 -0.1096
22153W        W38227  14.525   4.019   1.567  0.1169 -0.1442  0.3179
22154W        W38228   4.969  14.304   2.790  0.2148  0.0532  0.3540
22155W        W38229  16.258   3.550  12.198  0.0603 -0.4830  0.1417
22156W        W38230  13.454  10.780  13.800  0.4297 -0.2643 -0.1141
22157W        W38231   2.086  14.759   0.730 -0.0481  0.2066 -0.4534
22158W        W38232   9.666   6.010   5.425 -0.4232  0.2185  0.1075
22159W        W38233  17.107   0.035  14.427  0.0962 -0.3412  0.0274
22160W        W38234   1.287   4.403  13.420  0.0467 -0.2411  0.1391
22161W        W38235   9.112   1.826  15.657  0.0489  0.1770  0.0356
22162W        W38236  13.484   3.888   2.725 -0.0334 -0.2408  0.4212
22163W        W38237  10.049  17.048   4.117 -0.0353 -0.1394  0.1198
22164W        W38238  10.637  13.704   2.014  0.0394 -0.2928  0.0714
22165W        W38239   1.176   9.629   5.723  0.2216  0.2898 -0.1149
22166W        W38240  11.078  12.964   6.268 -0.1773  0.3536  0.1935
22167W        W38241  10.775  10.533   1.387 -0.0215  0.0057 -0.0821
22168W        W38242  14.010  12.338   5.930 -0.1332 -0.0348 -0.0484
22169W        W38243   7.004  11.292   4.655 -0.3345 -0.5413 -0.0611
22170W        W38244  12.478  10.248  13.087  0.0747  0.3548 -0.1654
22171W        W38245  16.925  15.521  13.365 -0.0755 -0.0592 -0.1058
22172W        W38246  16.501  15.414   2.426 -0.3198  0.1436  0.0394
22173W        W38247   3.006   6.547  12.280  0.3226  0.2622  0.0790
22174W        W38248  10.064   0.196  11.873 -0.2263 -0.0324  0.0042
22175W        W38249   5.046  12.821   1.796 -0.1991  0.0095 -0.0673
22176W        W38250   1.634   5.095  12.287  0.2063 -0.1408 -0.0220
22177W        W38251   5.233  13.294   1.219 -0.1044 -0.2832  0.0321
22178W        W38252   7.454   8.758  12.804  0.1066 -0.0722 -0.0512
22179W        W38253   5.500   5.474   5.925  0.1231  0.0446 -0.1081
22180W        W38254  10.966   1.106   5.391  0.2528  0.1227 -0.2720
22181W        W38255  10.926   0.954  14.554 -0.1237  0.0985  0.0754
22182W        W38256  14.192  13.000  12.124  0.1568 -0.3314 -0.0336
22183W        W38257  11.964   5.329   6.734  0.3384 -0.2070  0.2486
22184W        W38258  10.034   0.891   2.326 -0.0495  0.0434  0.2709
22185W        W38259   9.816   0.199  14.856  0.1464 -0.1328 -0.0489
22186W        W38260  13.031   2.792   1.706  0.0868  0.0767 -0.1794
22187W        W38261   5.276   7.381  13.626 -0.0499 -0.3524 -0.1207
22188W        W38262   8.625  11.229  12.263  0.2394  0.0241  0.1473
22189W        W38263   7.954  11.149  11.202  0.1827  0.0893  0.0322
22190W        W38264   7.156   8.771   4.254 -0.2686  0.0796 -0.1092
22191W        W38265  10.850   0.309  14.494  0.2846 -0.2498 -0.1265
22192W        W38266  11.727  14.844   4.374 -0.2614 -0.4023 -0.0950
22193W        W38267   8.211   1.529   1.964  0.1690  0.0331 -0.0195
22194W        W38268   6.068  12.716  13.396 -0.2967  0.1601 -0.1567
22195W        W38269   0.506  14.199  15.142 -0.0736  0.0843  0.2079
22196W        W38270  10.193   4.579   2.733  0.2441 -0.0339 -0.1893
22197W        W38271  15.446   1.584   5.899 -0.1862  0.0516 -0.0861
22198W        W38272   4.810   8.314   4.210  0.3509 -0.1259  0.0200
22199W        W38273   0.538   7.020  11.593  0.0366  0.0590  0.1155
22200W        W38274   1.012  11.812  11.880 -0.0632 -0.1692  0.1667
22201W        W38275   2.593  10.467  15.361 -0.5235  0.0483 -0.0886
22202W        W38276   5.433   6.486   0.145 -0.2787  0.0840 -0.2815
22203W        W38277   4.949   3.097   0.474  0.0430  0.2131  0.2087
22204W        W38278  12.091   2.562   5.113 -0.0716 -0.0977  0.1533
22205W        W38279   1.254   4.854   2.732  0.0637 -0.1512 -0.1980
22206W        W38280   8.203  11.834   3.246 -0.0411  0.1258  0.0484
22207W        W38281   9.481  10.973  17.046  0.0563  0.0902  0.0685
22208W        W38282  16.679  11.326  14.260 -0.2227  0.0558 -0.2220
22209W        W38283  10.271   3.014  15.421 -0.0112  0.0480  0.0304
22210W        W38284  11.798   0.482  13.574  0.1118  0.0212  0.0244
22211W        W38285  16.158   7.475   1.791  0.1811 -0.0520 -0.2118
22212W        W38286  12.161   6.039   1.029  0.0894 -0.4296 -0.1711
22213W        W38287  16.851   2.172   3.325  0.1506 -0.2840  0.1524
22214W        W38288  10.832   5.131  12.063  0.0376  0.0439 -0.3920
22215W        W38289   0.168   8.857  13.941 -0.4557  0.0887  0.2699
22216W        W38290  14.531   1.307   4.939 -0.3873  0.0760 -0.2822
22217W        W38291  17.067  15.981  16.618  0.0997 -0.1689  0.1293
22218W        W38292  10.994   3.022   3.107  0.1317  0.1032  0.4115
22219W        W38293  15.609   0.214   2.920  0.1436 -0.2526 -0.0570
22220W        W38294   9.049   4.142  13.090  0.0670 -0.0570  0.2826
22221W        W38295  15.490   7.542  16.960  0.3200  0.0640  0.0543
22222W        W38296  16.153   6.259   1.801  0.0583 -0.1330 -0.0061
22223W        W38297  11.490  10.339  13.972  0.1161  0.1270  0.1863
22224W        W38298  10.919   1.067   0.884 -0.3344  0.2802 -0.1805
22225W        W38299  11.905   0.827  15.274  0.3768 -0.0978  0.0537
22226W        W38300   9.858   5.413   5.222  0.0050 -0.0678 -0.1783
22227W        W38301  17.473   3.319  12.692 -0.0454 -0.3335 -0.1191
22228W        W38302   1.903   8.341   2.368  0.0026 -0.0018 -0.0789
22229W        W38303   0.906   4.028   2.162  0.1543  0.0639  0.0184
22230W        W38304   4.802   6.934  15.703 -0.0686 -0.0111 -0.1748
22231W        W38305  14.919  15.940  12.172 -0.3414  0.0969 -0.1996
22232W        W38306  12.444  11.860   0.210 -0.0311  0.0770 -0.0670
22233W        W38307  15.471   3.793  13.844  0.0202 -0.0414  0.1938
22234W        W38308  14.462  12.780   1.661 -0.3303 -0.2276  0.1680
22235W        W38309  13.458   6.242  16.281  0.4142  0.1548  0.4632
22236W        W38310   5.362   7.992   0.678 -0.3386  0.1763 -0.0184
22237W        W38311  14.330   0.149   2.319  0.2294 -0.1288 -0.2845
22238W        W38312   2.927   8.556   2.679  0.0215 -0.1223  0.2589
22239W        W38313   7.780  15.756  17.059 -0.1396  0.3084 -0.0001
22240W        W38314   3.954   7.914  13.241  0.1069 -0.2039  0.1211
22241W        W38315   2.298  13.734   4.889  0.3437  0.1294 -0.0886
22242W        W38316  13.205   4.019   3.981  0.1022  0.0834 -0.3916
22243W        W38317  16.647   8.179  13.904  0.0905 -0.0516  0.1379
22244W        W38318  15.710   1.489  13.747  0.0403 -0.0152  0.1606
22245W        W38319   1.882   8.560   2.885  0.0007  0.2734 -0.0739
22246W        W38320   2.386  15.409   1.456  0.3369 -0.0910  0.2140
22247W        W38321  15.658  16.672   4.280 -0.1361 -0.1356 -0.2153
22248W        W38322  11.262  16.740   5.350  0.0743  0.2464  0.0071
22249W        W38323  16.419   1.864  14.317 -0.0706 -0.2870  0.1204
22250W        W38324   8.968  10.652  13.750  0.0192  0.1229  0.1064
22251W        W38325   4.879  14.388  12.768 -0.2025 -0.1082  0.2944
22252W        W38326   0.376   0.719   1.080 -0.1844 -0.0614  0.0827
22253W        W38327  12.398  17.116  16.572 -0.2345  0.0243 -0.0842
22254W        W38328   2.046  14.976  14.103  0.0633  0.0322 -0.1791
22255W        W38329  16.695   8.132   5.305  0.3314 -0.1051  0.1860
22256W        W38330   7.016  10.671  16.983 -0.2168  0.0602 -0.2376
22257W        W38331   7.285   1.211  12.534 -0.1194 -0.1258 -0.1880
22258W        W38332  11.739  14.609  14.568  0.0846 -0.4050 -0.0099
22259W        W38333   8.153  16.530  12.419 -0.3205 -0.1204  0.0199
22260W        W38334  17.083   3.141   4.515  0.0756  0.0055  0.0810
22261W        W38335   1.808   4.262  12.215  0.1013 -0.1552 -0.0131
22262W        W38336   8.525  11.653  16.819  0.0793 -0.0577 -0.1740
22263W        W38337  15.423  11.367  15.930  0.0296  0.1527 -0.0094
22264W        W38338   6.030   0.572   3.364  0.2286  0.1026 -0.0817
22265W        W38339   8.475   1.659  13.333  0.1569 -0.0931  0.0453
22266W        W38340   9.970   3.784  12.645 -0.1406  0.0379  0.2046
22267W        W38341   9.761   5.476  16.221 -0.1929  0.0044  0.0130
22268W        W38342  12.099   3.207   3.694  0.3478  0.0826  0.0372
22269W        W38343   2.506  16.658   5.693 -0.1870  0.1097 -0.1428
22270W        W38344  16.004   4.411   2.730 -0.0446  0.1143 -0.1755
22271W        W38345  14.048  16.033  11.954  0.6835  0.0917 -0.0983
22272W        W38346   9.177  16.307   2.421  0.0533 -0.2855  0.0545
22273W        W38347  17.133   8.340   3.056 -0.0461  0.0558  0.2812
22274W        W38348   4.890  10.786   1.295 -0.1443 -0.2391  0.0760
22275W        W38349   5.732  15.261   0.632  0.1260  0.2542 -0.0954
22276W        W38350  11.834   2.700  12.848  0.1281 -0.1246 -0.0564
22277W        W38351   9.482  17.056   3.461  0.0729  0.0063  0.0672
22278W        W38352  17.518   4.721  15.607  0.2168  0.0033  0.0654
22279W        W38353   8.441  16.211  12.858  0.0636  0.0559  0.1715
22280W        W38354   0.435  11.731   5.404 -0.1853 -0.0129 -0.1231
22281W        W38355  11.422  17.430  14.174  0.2813  0.0109 -0.0473
22282W        W38356   2.335   1.357  13.055 -0.5246 -0.0710 -0.2002
22283W        W38357   7.703   2.631  17.076 -0.2386 -0.1178 -0.0172
22284W        W38358  11.196   8.595  11.924 -0.0226  0.0027 -0.0089
22285W        W38359   7.367  14.795  11.382  0.0070 -0.1542  0.0761
22286W        W38360   4.789   3.855   2.965 -0.2175  0.2501  0.0463
22287W        W38361  12.675   2.761  16.074 -0.0435 -0.0022 -0.3920
22288W        W38362  15.121   5.458   0.070 -0.2037 -0.2470  0.2829
22289W        W38363   6.816   0.929   0.502 -0.0508  0.5242  0.0971
22290W        W38364   4.834  15.608   2.238  0.1500  0.1540 -0.1945
22291W        W38365  15.007   7.084   5.507 -0.0075 -0.1195 -0.1490
22292W        W38366   0.996  11.061  14.725 -0.0082 -0.0502 -0.2051
22293W        W38367   1.523   7.897  14.473  0.0310 -0.0641 -0.0357
22294W        W38368   1.457   4.327  15.561  0.2114  0.3126  0.2071
22295W        W38369  16.464   4.418  12.308  0.2144 -0.1988  0.3094
22296W        W38370  15.269   4.204  14.990 -0.2023  0.0994  0.2470
22297W        W38371  11.281   1.971  14.695 -0.1128  0.1766  0.0779
22298W        W38372   9.822  11.799   3.109  0.0731 -0.0249 -0.0944
22299W        W38373  10.387   4.247   0.320  0.1664 -0.2143  0.0978
22300W        W38374  15.677  12.028   5.131 -0.1380  0.3839 -0.1429
22301W        W38375  10.194   2.396  14.642  0.1457 -0.2146  0.0467
22302W        W38376  16.633   7.041   4.046  0.0017 -0.2836  0.0899
22303W        W38377  10.539   4.178   3.611  0.0158 -0.0467  0.2265
22304W        W38378   6.680   4.866  12.827 -0.0023 -0.1780 -0.1826
22305W        W38379  15.001  15.374   4.990  0.1031  0.1225 -0.2577
22306W        W38380  12.830  12.150   1.523 -0.0139  0.0658 -0.1217
22307W        W38381   3.204  12.919   5.709  0.1065 -0.1428  0.1697
22308W        W38382  17.658  15.594  15.451  0.1914 -0.0712 -0.3221
22309W        W38383   5.268   5.913   1.122 -0.2410 -0.1572 -0.0136
22310W        W38384  12.101  11.097   0.903  0.0569 -0.2263 -0.0148
22311W        W38385   8.406   3.178   4.588 -0.4046  0.0210  0.0479
22312W        W38386  16.565  17.120   2.103 -0.0033  0.4019  0.2246
22313W        W38387  16.261   1.232   5.177 -0.0329 -0.0214 -0.2993
22314W        W38388  17.282   4.963  16.688 -0.4152 -0.0405  0.1919
22315W        W38389   4.818   7.066   3.390  0.1625 -0.2465 -0.5272
22316W        W38390   7.559   1.200  13.966 -0.0246 -0.2803  0.1503
22317W        W38391   9.334   7.019   5.334 -0.1342  0.1168 -0.0182
22318W        W38392   3.646   3.123  15.727 -0.2452  0.1868  0.2715
22319W        W38393   4.620   1.853   3.054 -0.2809  0.1539  0.1513
22320W        W38394   5.727  15.037   4.948 -0.2955  0.0817 -0.1088
22321W        W38395  11.013  10.654  16.245  0.0182 -0.0809 -0.0184
22322W        W38396   9.269  16.133  13.330 -0.0519  0.0132 -0.0962
22323W        W38397   9.251   2.577   4.067  0.0804 -0.1451  0.0997
22324W        W38398  14.096  11.132   4.981  0.1019  0.2136 -0.0977
22325W        W38399  10.977  15.125  13.768  0.3759 -0.0630  0.0565
22326W        W38400  14.778  12.317   5.390  0.0578  0.0623 -0.2764
22327W        W38401  14.178  10.166  12.914  0.1499 -0.1013  0.0469
22328W        W38402  12.064  14.797   2.510 -0.1376  0.0593  0.0067
22329W        W38403   6.601  10.438  13.098  0.0811 -0.1993  0.0138
22330W        W38404  15.593  11.971  14.408 -0.2040  0.0227  0.0964
22331W        W38405  16.011  13.109  16.887 -0.0883  0.0828 -0.3151
22332W        W38406  12.934   2.030  16.346  0.2327  0.2490 -0.2120
22333W        W38407  10.532   7.324   1.272  0.2011  0.0608 -0.2553
22334W        W38408   6.778   8.859  14.104 -0.0570  0.0778  0.0018
22335W        W38409   1.504  10.525   5.211  0.1110  0.0477 -0.3370
22336W        W38410  12.152   6.821   4.972 -0.1861  0.2417  0.1148
22337W        W38411  11.259   5.392  16.896 -0.1960 -0.0831 -0.1899
22338W        W38412  12.848   5.693   3.754  0.1567 -0.2423  0.2809
22339W        W38413   6.885   5.042   0.111  0.0448 -0.0454  0.3278
22340W        W38414   8.618   0.886   2.977  0.1552  0.1009 -0.1151
22341W        W38415   9.205   2.229   3.520  0.1561  0.0172  0.0135
22342W        W38416   2.491   1.044   2.942 -0.2465 -0.0419 -0.1977
22343W        W38417  10.108   4.139   4.959 -0.1402 -0.0156  0.2478
22344W        W38418   7.373  10.795  14.050 -0.1167 -0.0286 -0.0030
22345W        W38419   4.011   9.583   5.002  0.0825  0.0862 -0.2633
22346W        W38420   1.050   3.133  15.239  0.1137  0.1544 -0.3937
22347W        W38421   3.999   8.991   4.793  0.0073 -0.0200  0.2007
22348W        W38422   3.651   3.138  16.627  0.3009  0.1772  0.0729
22349W        W38423   6.104   4.991   0.367 -0.1310 -0.0496 -0.0879
22350W        W38424  13.327  11.913  15.307 -0.2356  0.1505  0.0227
22351W        W38425   5.267   0.458  11.941  0.1403 -0.2759 -0.2332
22352W        W38426   8.925  12.091  13.455 -0.2064 -0.0018 -0.0995
22353W        W38427   7.786   0.459   4.831  0.1125  0.1608 -0.0923
22354W        W38428   3.403  10.902   1.289  0.0715  0.0743 -0.1462
22355W        W38429   6.498  14.558   5.231 -0.1863  0.1983  0.3011
22356W        W38430   9.864   6.920   4.512  0.2428  0.1685 -0.0739
22357W        W38431  11.854   3.670  15.986  0.0785  0.0450  0.1622
22358W        W38432  10.951  15.831   1.657  0.1733 -0.1713  0.1265
22359W        W38433  11.503  10.876  13.124 -0.1496 -0.3086 -0.1000
22360W        W38434   9.671  15.312  15.662  0.2154  0.1810 -0.1436
22361W        W38435   7.342  12.187   2.549 -0.1346  0.0216 -0.0623
22362W        W38436   0.015   9.622  11.993 -0.2122 -0.4617  0.0663
22363W        W38437  14.982   9.527   3.658 -0.0639 -0.2051  0.2661
22364W        W38438   1.836  17.438  16.019 -0.1071  0.1030 -0.2348
22365W        W38439  11.495   7.480   0.249  0.1267 -0.0753 -0.0697
22366W        W38440   8.927  14.924  14.783  0.3068 -0.0038 -0.2528
22367W        W38441   0.977  15.782   3.722  0.0498 -0.0232  0.3903
22368W        W38442  14.548   2.580   2.005  0.0499  0.4453 -0.0111
22369W        W38443   0.664   4.772   4.685 -0.3369 -0.0811  0.0431
22370W        W38444   4.589   7.272   0.870  0.1572 -0.0833 -0.1809
22371W        W38445   7.495   3.887   5.465 -0.0937  0.1783 -0.2347
22372W        W38446   7.217   2.117   4.929  0.0126 -0.1099  0.2032
22373W        W38447   0.767   3.399   3.620  0.1873 -0.4315 -0.0662
22374W        W38448   7.661   5.880  10.762  0.1233 -0.2241  0.1313
22375W        W38449   4.416  15.040  15.387 -0.3547 -0.3156  0.1004
22376W        W38450   1.655  13.627   3.356  0.1876 -0.0855 -0.2421
22377W        W38451  12.996   7.259   0.110  0.1531 -0.0689  0.1735
22378W        W38452   5.602   8.191   2.827  0.1011 -0.2981  0.1918
22379W        W38453   5.925   3.066  13.223  0.0131  0.1780 -0.2337
22380W        W38454   7.447  16.500  11.813  0.2236 -0.3107  0.3939
22381W        W38455   3.351   1.394   4.073  0.2845  0.0017  0.0467
22382W        W38456  14.942  11.361   6.000  0.0813  0.0626 -0.0145
22383W        W38457   6.498   6.262   3.980  0.0139 -0.0859 -0.1980
22384W        W38458   9.112   3.321   1.194 -0.2916 -0.2537 -0.1668
22385W        W38459  12.342   8.855  16.485  0.1980  0.1051  0.0210
22386W        W38460   9.813  15.877  12.457  0.0757  0.1623 -0.2680
22387W        W38461  15.225   9.376  11.892  0.1786 -0.0302 -0.1404
22388W        W38462   7.331   6.773  14.613  0.0844 -0.2636 -0.0936
22389W        W38463  15.038   6.511   2.433  0.1156 -0.0029  0.3006
22390W        W38464  14.138   8.081   2.422 -0.1093 -0.1685 -0.0613
22391W        W38465   6.102  10.712  17.095  0.1457 -0.3246 -0.0700
22392W        W38466   8.382  17.435   5.883  0.2965  0.1979 -0.1939
22393W        W38467   6.323  10.338   3.514 -0.0162 -0.1713 -0.0883
22394W        W38468   2.141  17.203   3.463  0.1908  0.1561 -0.0918
22395W        W38469  10.601   9.851   1.725 -0.1080 -0.1201 -0.0679
22396W        W38470  13.360   9.100  17.052 -0.0633 -0.0463 -0.4217
22397W        W38471   3.500  14.195   2.621  0.0402 -0.1531  0.0178
22398W        W38472   0.375   8.665  12.960  0.0443  0.0152  0.2120
22399W        W38473   5.807  10.160   6.135 -0.3250  0.2715 -0.0725
22400W        W38474   9.196   3.736  11.935  0.1391  0.0668 -0.2230
22401W        W38475   1.133   0.149  14.463  0.3979 -0.0135 -0.1129
22402W        W38476   7.469   4.832   4.876 -0.2893 -0.3747 -0.0216
22403W        W38477   7.207  15.361  15.358 -0.1509 -0.2429 -0.3418
22404W        W38478  15.369   9.823  11.578  0.1541 -0.0855  0.0177
22405W        W38479  10.162   9.192   6.404  0.0443 -0.0308 -0.1116
22406W        W38480   3.861  14.322  12.078  0.2342  0.2089  0.2353
22407W        W38481   7.212   6.905  17.083  0.1571 -0.2134  0.2728
22408W        W38482  11.903  13.081  14.631  0.1181  0.1134  0.3299
22409W        W38483   3.480  11.199   4.195  0.2298  0.2652  0.0266
22410W        W38484  17.628   3.243  16.809 -0.1896  0.2036  0.0649
22411W        W38485   3.762  11.185  12.729 -0.0613  0.0472  0.0729
22412W        W38486   0.036  10.043  14.513 -0.0697  0.0351 -0.1126
22413W        W38487   1.120  10.192  15.389  0.1436  0.1409  0.2844
22414W        W38488   0.795  10.922   1.722  0.2528  0.2383  0.0257
22415W        W38489   6.334   2.613   3.834  0.1078 -0.1877 -0.1434
22416W        W38490   8.809   1.512  14.188  0.0193 -0.0902 -0.1652
22417W        W38491  11.896  13.625  14.917 -0.1985 -0.3724  0.4404
22418W        W38492  16.673   5.550  14.931  0.0411 -0.0589  0.0738
22419W        W38493   9.836   6.315  13.329 -0.0620  0.1377  0.0327
22420W        W38494   9.911   7.632   0.438  0.1249 -0.0131  0.1013
22421W        W38495   0.712   7.072  13.765  0.2630 -0.3426 -0.2749
22422W        W38496   1.646  12.180   0.973 -0.3866  0.2094  0.1648
22423W        W38497  15.035  15.932   1.314  0.1048 -0.0454 -0.1239
22424W        W38498   7.621   1.977  14.547 -0.4069  0.1336 -0.1854
22425W        W38499  16.215  15.230  14.175  0.0259  0.0171  0.3397
22426W        W38500   6.940  16.869  15.013  0.2321  0.2373 -0.1631
22427W        W38501   1.911   4.295   5.613 -0.4962  0.0198  0.0717
22428W        W38502   6.170   6.807   0.502 -0.1736 -0.0828 -0.0706
22429W        W38503  10.914  11.748   1.959 -0.0898 -0.2517 -0.0956
22430W        W38504   4.876   1.574   3.558  0.0102  0.1834  0.2844
22431W        W38505   9.773  17.663  16.997 -0.1814  0.0053  0.0749
22432W        W38506   1.993   9.795   3.617  0.1176 -0.0468 -0.1454
22433W        W38507   1.384  14.151  14.185 -0.2342 -0.2516 -0.4096
22434W        W38508  11.894  16.349   1.381 -0.3576  0.2449 -0.0197
22435W        W38509   3.163   9.553  16.399 -0.3304  0.0175  0.2783
22436W        W38510   1.019   1.140   4.256 -0.1040 -0.1056  0.1456
22437W        W38511  16.455  13.398   5.117 -0.0290 -0.1038  0.0284
22438W        W38512   3.849   3.943   4.949  0.2023 -0.1432 -0.1574
22439W        W38513   4.738  14.605  11.829 -0.1772  0.2332  0.2923
22440W        W38514   7.925  13.149  14.612 -0.0242 -0.4455  0.0086
22441W        W38515   9.390   9.865  14.097  0.0056  0.0426  0.0368
22442W        W38516   7.509   3.386  12.923  0.2042 -0.2610  0.0334
22443W        W38517   5.661  11.876   3.471  0.3088 -0.3572  0.0220
22444W        W38518  15.664  15.875   4.587  0.1033 -0.1168 -0.0658
22445W        W38519  12.094  17.196  13.456 -0.0726  0.3058  0.1445
22446W        W38520   6.599  13.928  13.982  0.1487  0.0106 -0.4356
22447W        W38521   0.331   9.016  13.449  0.0976  0.2453  0.1388
22448W        W38522   7.021   4.915  14.905  0.1649 -0.0981  0.0950
22449W        W38523   7.317   3.042   0.839  0.0689  0.4015  0.3483
22450W        W38524  13.547   0.649   2.632  0.0367  0.0767  0.1491
22451W        W38525   2.363   1.368  12.535  0.1090  0.0666 -0.1640
22452W        W38526  14.531   2.236   2.487 -0.1902  0.1121  0.0921
22453W        W38527  15.018  17.616   3.408 -0.0624 -0.2807  0.0207
22454W        W38528  14.160   5.313  16.328 -0.2904  0.0264  0.1841
22455W        W38529   2.111   7.475   3.478 -0.1161 -0.0371 -0.2845
22456W        W38530  11.996   5.869  13.157 -0.1480  0.0802  0.2807
22457W        W38531  17.412   5.539  14.699 -0.5327  0.2068 -0.1438
22458W        W38532  12.978   1.528   1.178 -0.1626  0.0315 -0.1863
22459W        W38533  15.430  15.449  12.993 -0.0820 -0.3113  0.0028
22460W        W38534   4.012   1.086  14.788  0.0737  0.0413  0.1552
22461W        W38535  11.473  15.992  16.195  0.0087  0.0692 -0.0954
22462W        W38536   6.160  13.177   5.453  0.1671 -0.1165 -0.2058
22463W        W38537  13.177  12.844  12.103  0.0583 -0.0518  0.0870
22464W        W38538   9.065  11.472   3.599 -0.1183 -0.0460  0.0876
22465W        W38539   0.451   7.234  13.394 -0.0337 -0.0935  0.0112
22466W        W38540   9.094   0.091   6.061  0.1286 -0.1048  0.1740
22467W        W38541  11.140   1.470   3.238  0.0794  0.1905 -0.0319
22468W        W38542   7.675   0.433  16.794 -0.0078 -0.1558 -0.0412
22469W        W38543  14.693  15.808  16.936 -0.1005 -0.2632  0.0516
22470W        W38544  17.088   1.914  14.973 -0.1431 -0.2035  0.2428
22471W        W38545  12.076   8.254  16.538  0.2849 -0.0274  0.1947
22472W        W38546  11.318  17.530  16.776  0.0372  0.2160 -0.0794
22473W        W38547   5.982   0.999   1.734  0.1253 -0.1357  0.0944
22474W        W38548   3.213   3.195  15.420 -0.1907  0.1177  0.0773
22475W        W38549   0.777   3.414  16.993  0.1111 -0.0635  0.1155
22476W        W38550  15.810   8.872  16.311 -0.1170 -0.1752 -0.4539
22477W        W38551   8.305   6.176   1.729  0.0008  0.1701 -0.3810
22478W        W38552   9.326  16.625  15.790 -0.0904 -0.0668  0.3659
22479W        W38553   9.026  15.138   1.163 -0.0316  0.0827  0.4528
22480W        W38554  13.344  17.473  13.766 -0.0841  0.2049 -0.1417
22481W        W38555  10.928  15.263  17.149 -0.0015  0.2490  0.0720
22482W        W38556   0.617   7.502  14.711 -0.4054  0.0940 -0.1292
22483W        W38557   6.970  14.227   3.948  0.3640 -0.0800 -0.1359
22484W        W38558   0.834  13.981  14.842 -0.2042 -0.1908  0.0124
22485W        W38559  10.684   1.126  14.119  0.0212 -0.0547 -0.2829
22486W        W38560   8.515  12.332  13.486 -0.0029 -0.1211  0.1193
22487W        W38561  12.321  12.248   2.607  0.3277 -0.0416  0.1876
22488W        W38562   6.943   3.274  12.301 -0.0671 -0.1454 -0.0340
22489W        W38563  10.433  12.268  16.670  0.0391  0.0622  0.1219
22490W        W38564   3.119   1.529  14.017  0.1042  0.0985 -0.1432
22491W        W38565   6.409   1.352   4.593  0.0177  0.2484  0.0487
22492W        W38566  15.613   9.635  15.801  0.1031 -0.0373 -0.0277
22493W        W38567   3.989  12.645  14.394  0.3096  0.1808 -0.1640
22494W        W38568  16.884  16.136   5.124 -0.1112 -0.1537  0.2368
22495W        W38569   9.043  10.143  16.844 -0.1365  0.0623  0.0865
22496W        W38570   2.070  16.159  16.446  0.3864  0.1563  0.0804
22497W        W38571   5.012   8.609  12.134 -0.2273  0.0361 -0.0475
22498W        W38572  13.362   5.158  15.987 -0.0032  0.1091 -0.3237
22499W        W38573  12.745  11.792   2.697  0.0630 -0.3715  0.0587
22500W        W38574  12.406   2.990  11.666 -0.1290 -0.1004 -0.4219
22501W        W38575   9.072  17.390   3.317  0.1574 -0.0420 -0.1888
22502W        W38576   6.475  13.501   2.584  0.1247  0.2402  0.0876
22503W        W38577   3.658   9.543  12.154  0.1456 -0.0802 -0.0255
22504W        W38578  12.285  12.873   5.302  0.1127  0.1627 -0.0341
22505W        W38579  10.954   2.970  11.686  0.2067  0.1328  0.0630
22506W        W38580  17.729   9.190   5.423  0.0948  0.3861  0.2059
22507W        W38581   2.132   7.438  12.392  0.3328 -0.0437  0.2846
22508W        W38582  16.389  15.993   3.738  0.2510  0.0216 -0.0439
22509W        W38583   4.366  10.594   2.856 -0.3184  0.0943  0.3898
22510W        W38584   7.277   1.625   0.980 -0.2397 -0.1613  0.0488
22511W        W38585  17.708  15.733   4.808 -0.1599 -0.3648  0.2249
22512W        W38586   6.251  16.461  10.771 -0.0948 -0.0743 -0.1404
22513W        W38587  15.283   9.855  16.928 -0.1858 -0.1393  0.2450
22514W        W38588   8.788   4.693  11.873 -0.0458 -0.3249 -0.3463
22515W        W38589   9.529   8.303  13.589  0.2326 -0.0614 -0.0637
22516W        W38590   4.611   9.867  12.023  0.1386 -0.0972 -0.1112
22517W        W38591  13.894  14.411  13.513 -0.0256  0.4596  0.2058
22518W        W38592  14.655   9.614  13.361 -0.6126  0.1613  0.1476
22519W        W38593   2.336   3.080  15.442  0.0953  0.2037 -0.2715
22520W        W38594  12.809  16.384  13.699  0.0496  0.1110  0.1462
22521W        W38595   7.968   4.595  16.975  0.1120  0.1062 -0.1434
22522W        W38596  15.170   4.962  16.692  0.0728 -0.2083 -0.2790
22523W        W38597   0.389   8.330   0.551  0.1135 -0.0104  0.3540
22524W        W38598   2.553  16.977   5.272 -0.0154 -0.0832 -0.0406
22525W        W38599   0.946  14.510  12.061  0.0515  0.1688  0.0062
22526W        W38600   5.834   1.418   0.325 -0.0907 -0.1178 -0.2448
22527W        W38601  14.948   7.523  12.966 -0.1617 -0.1809 -0.1382
22528W        W38602   3.537   6.115   2.868  0.0104  0.2344  0.1218
22529W        W38603   5.819   4.270   0.781 -0.1087 -0.2523 -0.1048
22530W        W38604   0.789   0.869   2.755  0.0233  0.1909 -0.2108
22531W        W38605  15.063   9.908   5.875  0.1398  0.3252 -0.0157
22532W        W38606   4.016   8.305   3.678 -0.1027  0.3872  0.0070
22533W        W38607  13.909  14.166   5.607 -0.1681 -0.0033 -0.1139
22534W        W38608  17.387   5.401   0.940  0.4003  0.0320 -0.2379
22535W        W38609   4.563   0.339  15.225 -0.0069  0.0287  0.0426
22536W        W38610   4.512   3.775   1.044 -0.5128  0.1486  0.0834
22537W        W38611   4.668   5.623   0.961  0.1179  0.0020 -0.0434
22538W        W38612   9.644   2.092  12.215 -0.2384 -0.0366 -0.0000
22539W        W38613  14.908  14.378  16.322  0.2158  0.0869 -0.1185
22540W        W38614  17.687   4.973  16.298 -0.2183 -0.3649 -0.1914
22541W        W38615  11.087   3.350   6.367  0.0444  0.1551  0.1586
22542W        W38616   1.416  14.169  12.187 -0.2886 -0.0281  0.0041
22543W        W38617   1.550   0.963  14.924  0.1848 -0.0508 -0.1116
22544W        W38618  11.880   3.677   3.484  0.1056 -0.2258 -0.0510
22545W        W38619   3.771   1.131   1.360 -0.1382  0.1860 -0.0780
22546W        W38620  14.811  12.536   4.895  0.0821 -0.1172  0.0382
22547W        W38621  16.374  11.936   3.385  0.0744  0.0377  0.2938
22548W        W38622  16.070  10.674   5.224  0.0658  0.2452 -0.0183
22549W        W38623  13.418   4.911   5.245  0.0909 -0.1394 -0.1165
22550W        W38624  16.990  13.053  15.471 -0.1959  0.0332  0.1487
22551W        W38625   6.053  17.620   1.810  0.0842  0.1246 -0.1968
22552W        W38626   4.458   8.687  13.671 -0.1583 -0.2028  0.1460
22553W        W38627   8.887   2.404  16.326  0.2054  0.2145 -0.0668
22554W        W38628  10.956  10.864   1.685 -0.0321  0.1357 -0.2289
22555W        W38629   4.196   1.551  14.833 -0.0998  0.1806 -0.0458
22556W        W38630   9.400   2.815  14.167 -0.1898  0.1721  0.1358
22557W        W38631  15.577   0.902   4.617  0.2155  0.0431 -0.4138
22558W        W38632  17.160  15.204  14.339 -0.1764 -0.0268 -0.2933
22559W        W38633  12.546   9.785   1.825  0.1415 -0.0509 -0.3556
22560W        W38634   4.947  16.768   1.239  0.1547 -0.0434  0.0081
22561W        W38635   0.375  15.550  13.510 -0.4139  0.0213  0.1411
22562W        W38636  12.705   9.719  15.667  0.1266  0.0189  0.2775
22563W        W38637   1.111  11.536  15.448  0.0265  0.0632 -0.1741
22564W        W38638   0.598   1.468  14.412 -0.2588  0.0743 -0.1634
22565W        W38639   8.459   2.505  12.234 -0.0396 -0.0153  0.0048
22566W        W38640   4.029  16.114  16.887 -0.1298 -0.2696  0.0333
22567W        W38641  17.390  13.784  13.177  0.2053  0.1080  0.1268
22568W        W38642  15.777   2.349  16.620  0.3325 -0.1287 -0.1802
22569W        W38643   5.285  13.638   6.319  0.1109 -0.0997 -0.0641
22570W        W38644   0.656   6.270  17.146 -0.0756 -0.1020  0.0895
22571W        W38645  10.072   4.344  12.482  0.1829  0.1919  0.3503
22572W        W38646   2.386  15.372   4.826 -0.0244 -0.0097 -0.0595
22573W        W38647  17.485  13.469   1.591  0.1062  0.4055  0.1881
22574W        W38648   3.152   2.117   5.855  0.3554  0.0415 -0.0147
22575W        W38649   7.944   5.559   5.033 -0.1647 -0.0043  0.1360
22576W        W38650   7.221  14.168  13.029  0.1603  0.1805  0.0136
22577W        W38651  13.663   6.883   1.785 -0.0014  0.2529 -0.0599
22578W        W38652  10.587  17.007   1.423 -0.0737 -0.0887  0.3298
22579W        W38653   0.998   7.122   3.901 -0.0069 -0.1974 -0.2770
22580W        W38654  17.305   3.496   2.964  0.1050 -0.0362  0.0789
22581W        W38655   7.754   2.998   5.021  0.1634 -0.0242  0.2374
22582W        W38656   3.185  14.862  11.882 -0.3049 -0.0312 -0.0592
22583W        W38657   5.033  10.187  11.991 -0.5502  0.2847  0.2658
22584W        W38658  12.967   4.792   1.571  0.0118  0.0782  0.0033
22585W        W38659  17.236  17.457   0.486  0.0714 -0.0675  0.1809
22586W        W38660   6.284   7.139   0.912  0.0790  0.1510 -0.0953
22587W        W38661   0.588   7.686   1.617 -0.1371 -0.0146  0.2954
22588W        W38662  13.704  16.988  15.876  0.0019  0.1055  0.1221
22589W        W38663   4.090   0.469   3.764  0.1674 -0.1837 -0.0129
22590W        W38664  13.321  10.831  15.608 -0.3032 -0.0315 -0.1057
22591W        W38665   2.199  15.220  12.767  0.2010 -0.1503 -0.1582
22592W        W38666  12.285   7.142   3.268 -0.1027 -0.2398 -0.0682
22593W        W38667  13.331   7.366   2.426  0.1466  0.2232  0.0508
22594W        W38668  15.515   3.278   1.535 -0.1911 -0.0228 -0.0609
22595W        W38669  11.971   1.771  15.463  0.1461  0.1434  0.1543
22596W        W38670  10.754  10.341   3.048  0.2610  0.3764  0.1593
22597W        W38671   7.690  12.269  14.088 -0.2597 -0.0382  0.1129
22598W        W38672   3.111   4.686  13.522  0.1086  0.1305  0.0359
22599W        W38673  14.254  17.208  13.404  0.0645 -0.0367  0.0613
22600W        W38674  13.930  10.161  15.449 -0.1680  0.0034  0.0226
22601W        W38675   1.804  17.480  15.139  0.5126  0.0433 -0.1699
22602W        W38676   1.333   3.563  15.435  0.1309  0.0594  0.0765
22603W        W38677   8.524   8.021   3.066  0.2273 -0.1057 -0.0293
22604W        W38678  13.353   0.770  13.789  0.2061  0.0061  0.1786
22605W        W38679  15.664   4.856  13.501  0.0209 -0.0335 -0.3416
22606W        W38680   9.030  17.567  15.583  0.0228  0.0860  0.2733
22607W        W38681  16.202   9.459   2.835 -0.1040 -0.2616  0.1738
22608W        W38682   6.436   4.931  14.173 -0.1805 -0.0860 -0.1119
22609W        W38683  10.207   8.057   1.437 -0.1804 -0.1873 -0.1504
22610W        W38684   0.388   0.597  13.819 -0.2130  0.1155 -0.3005
22611W        W38685  14.726  12.405  16.649  0.2799 -0.1384 -0.1135
22612W        W38686  15.299  17.130  12.508  0.3097  0.0801 -0.0626
22613W        W38687   2.909   3.563  12.690  0.1141 -0.3015 -0.0982
22614W        W38688   2.108  15.559   2.296  0.1020 -0.0246  0.1950
22615W        W38689  12.111   5.823   3.379  0.1233 -0.0081  0.3199
22616W        W38690   7.012   7.016   2.935  0.1029  0.1379 -0.1692
22617W        W38691   5.343   7.729   4.208 -0.3117 -0.2480 -0.0641
22618W        W38692   6.428   1.237  15.876  0.1095 -0.0229  0.0619
22619W        W38693   4.928   0.389  13.793  0.1002  0.1987 -0.5001
22620W        W38694  10.270   7.221  16.961 -0.0854 -0.4227  0.0849
22621W        W38695   8.311   8.722   5.922 -0.2278 -0.0121  0.0724
22622W        W38696   4.783   6.962   4.291  0.0228  0.1042 -0.0467
22623W        W38697  17.658   7.251  13.466  0.0506 -0.0146  0.1359
22624W        W38698   3.041  13.843   5.339 -0.0850  0.0717 -0.0189
22625W        W38699  15.425   2.386   0.448  0.1260 -0.0581 -0.0674
22626W        W38700  11.807  12.393  13.041 -0.1161 -0.1570  0.0876
22627W        W38701  17.358  10.375   0.906  0.0329 -0.2016 -0.2930
22628W        W38702  13.372   4.205   5.742 -0.0912  0.0660  0.2279
22629W        W38703   4.144   9.819  16.792  0.1821 -0.1791 -0.0443
22630W        W38704   3.206  14.109  15.879 -0.1704  0.2555  0.0906
22631W        W38705   1.260   2.335  13.444  0.2447  0.1860  0.1431
22632W        W38706  12.152   6.143  15.186 -0.0168 -0.1218  0.0219
22633W        W38707  16.082  12.644   0.772  0.3405 -0.1084  0.0268
22634W        W38708   8.272   9.875  15.484 -0.0928 -0.2496  0.0307
22635W        W38709   2.886   1.368  15.661 -0.0784 -0.0421 -0.1058
22636W        W38710  15.720  14.844   2.933  0.0256 -0.0972  0.1033
22637W        W38711   0.704  10.641  17.057 -0.1631  0.0128  0.0244
22638W        W38712  11.353  10.543   2.970 -0.0728 -0.0932 -0.1310
22639W        W38713  14.929   1.786  14.589  0.3038 -0.1471 -0.0858
22640W        W38714   6.269  17.231   5.656  0.0252 -0.2413 -0.0702
22641W        W38715   3.278   4.230  14.545  0.1748 -0.2450  0.1021
22642W        W38716  16.229  11.412   2.060 -0.0916  0.0298  0.1661
22643W        W38717  12.430  15.854  17.051  0.0521 -0.1482  0.0556
22644W        W38718   4.397  16.517   4.171  0.0982  0.0690 -0.1479
22645W        W38719  16.924   1.815   4.395  0.1480 -0.2860 -0.1269
22646W        W38720   9.472   0.928  16.537  0.1496 -0.0357 -0.1840
22647W        W38721  10.239  14.081   0.575  0.0989 -0.4554 -0.1393
22648W        W38722  10.021   7.669  15.555 -0.1535  0.2043  0.0353
22649W        W38723   4.648  16.988   1.772  0.0928 -0.1574 -0.2431
22650W        W38724   4.683   2.089   1.274 -0.1686 -0.1684 -0.0315
22651W        W38725   6.505   6.133  16.230 -0.1515  0.2788  0.0346
22652W        W38726   4.863  11.112  12.302  0.0767  0.0088 -0.2654
22653W        W38727  17.641   2.155   3.811 -0.0486  0.0332 -0.0285
22654W        W38728  12.506   6.921  15.552  0.1398 -0.0199  0.3031
22655W        W38729  15.706   3.953  15.090  0.0666  0.0302 -0.1188
22656W        W38730   9.663   3.888   5.081  0.1869  0.2522  0.1001
22657W        W38731   0.363   9.333   5.708 -0.1773  0.0287 -0.2963
22658W        W38732   1.751  12.413   0.477 -0.1518 -0.3151 -0.0351
22659W        W38733  14.213   9.761  11.865 -0.0800  0.0600  0.0935
22660W        W38734  16.760  10.883  12.608  0.1038 -0.1506 -0.0981
22661W        W38735   5.201   4.989   2.529  0.1858  0.1045  0.0318
22662W        W38736  16.295  14.264  15.386 -0.0529  0.1029 -0.2487
22663W        W38737   4.531   7.500   1.294  0.0331 -0.0949  0.1187
22664W        W38738   3.935  16.266   3.670  0.2151 -0.0361  0.1656
22665W        W38739  15.782  17.300  12.225  0.1141 -0.0079 -0.0658
22666W        W38740   2.748  15.013   3.794  0.1613 -0.3357  0.1002
22667W        W38741   8.614   9.577  15.267 -0.0517  0.1596  0.0694
22668W        W38742  13.450   9.663   3.728 -0.0485 -0.0748 -0.1318
22669W        W38743  11.195   4.829   6.063  0.3016 -0.0822  0.1543
22670W        W38744   4.507  11.694   5.405  0.1082 -0.2412 -0.1962
22671W        W38745  14.371   5.170   3.163 -0.0569 -0.5170 -0.2458
22672W        W38746   4.548   7.994  15.695  0.3465 -0.1241 -0.1175
22673W        W38747   4.427   4.119  15.067 -0.1515 -0.2098  0.1025
22674W        W38748  16.821  17.570  13.902  0.3717 -0.0247  0.1765
22675W        W38749  15.913   3.814   4.108 -0.0718 -0.1372 -0.2245
22676W        W38750  17.127  15.097   5.010  0.0894  0.0215  0.3506
22677W        W38751   8.665   4.516   2.152  0.1199 -0.2352  0.0138
22678W        W38752   3.384   0.250  15.643  0.0196  0.1579 -0.1177
22679W        W38753   1.808  12.277  13.986 -0.1962  0.1588  0.1757
22680W        W38754  17.357  14.799  14.667 -0.1703 -0.0299  0.1024
22681W        W38755  16.880   3.665   3.106  0.0864  0.1279 -0.0775
22682W        W38756  14.183   3.007  16.096  0.2663 -0.1342  0.3045
22683W        W38757   9.684  10.507  12.752  0.1672  0.1118 -0.0372
22684W        W38758   7.420   4.209  17.110  0.1948 -0.1657 -0.2012
22685W        W38759   5.203   6.854   2.855  0.2688  0.1153 -0.0817
22686W        W38760   4.358  10.680  15.514 -0.0316 -0.0490  0.2806
22687W        W38761   1.495   9.534  13.167 -0.1718  0.0207  0.4014
22688W        W38762   5.595   2.748   5.988 -0.3501 -0.0114  0.1307
22689W        W38763   1.237  12.604  16.237 -0.1464 -0.0611  0.1703
22690W        W38764   3.108  13.281  14.514 -0.1023  0.1082 -0.0542
22691W        W38765  10.322  10.687   0.004  0.0318  0.0049  0.0944
22692W        W38766  16.559   3.113   2.869  0.0175 -0.0079  0.3373
22693W        W38767   3.939   4.190  14.737  0.3476  0.0880 -0.1592
22694W        W38768  11.716   6.279   2.191  0.0279  0.0241  0.2744
22695W        W38769  17.574   6.887  11.905 -0.0584  0.2159 -0.0395
22696W        W38770  16.114   2.273   4.051 -0.0474 -0.2088  0.0036
22697W        W38771   5.947   2.170  15.136 -0.3185 -0.0824  0.0242
22698W        W38772   7.965   3.607   1.305 -0.4462  0.2821 -0.0315
22699W        W38773   1.239  16.381  12.200 -0.2262 -0.1888 -0.2070
22700W        W38774   7.730   5.325  11.880  0.0852 -0.5567 -0.2758
22701W        W38775   7.187  11.759   2.309  0.0733  0.0463 -0.1190
22702W        W38776  15.384   8.606  14.516 -0.1956  0.2543  0.0320
22703W        W38777  17.414   5.456  12.741 -0.0868  0.3296  0.3002
22704W        W38778  13.600  15.826   4.616  0.2767  0.2671  0.3207
22705W        W38779   9.048  12.674  16.300  0.2272 -0.2680  0.0552
22706W        W38780  14.260   3.175   2.522 -0.1358 -0.0969 -0.2760
22707W        W38781   4.347  17.464  16.143  0.2006 -0.2650 -0.2211
22708W        W38782   7.999   4.274   6.243  0.0449  0.0302 -0.0354
22709W        W38783  10.037   1.996   0.592 -0.0723 -0.0547 -0.1431
22710W        W38784  13.758   0.670  16.433 -0.1765 -0.0680  0.1721
22711W        W38785  13.373   2.074   5.821 -0.1031 -0.3307 -0.0247
22712W        W38786  12.271  12.405   2.122  0.4399  0.2825  0.0023
22713W        W38787  15.439  17.209   6.640 -0.0846 -0.0499  0.2063
22714W        W38788   4.256   1.255  12.440  0.0574  0.2857  0.2586
22715W        W38789  17.589   6.680  16.851  0.1894  0.1746 -0.0103
22716W        W38790   9.473  17.222   4.787 -0.1068  0.3897 -0.0255
22717W        W38791  16.758   5.269  14.281  0.1181  0.2945  0.0873
22718W        W38792   8.998   2.017   3.925  0.0904  0.0374  0.2080
22719W        W38793   2.962  17.730  13.055  0.2302 -0.1404 -0.0265
22720W        W38794  16.147   8.573   0.403  0.3644 -0.0309 -0.2302
22721W        W38795  13.152   1.855   4.048  0.1064 -0.0760  0.0460
22722W        W38796   7.051   2.624   6.530  0.1003 -0.0950  0.1941
22723W        W38797  10.190  16.372   2.600  0.2277 -0.1061  0.2852
22724W        W38798   2.672   5.252  16.632  0.0595  0.2568 -0.0605
22725W        W38799   8.894   1.228   3.242  0.0218 -0.0749 -0.0207
22726W        W38800   3.487   8.506  17.039  0.1462 -0.0005  0.0814
22727W        W38801   8.821   1.529   1.836 -0.0896 -0.2556 -0.0551
22728W        W38802   0.532   8.586   0.058 -0.0204 -0.0767 -0.0436
22729W        W38803  10.731   4.432  17.134  0.0052  0.0452  0.1336
22730W        W38804   3.882   9.594  15.072  0.4042 -0.0857 -0.1110
22731W        W38805   7.971  17.551  11.608  0.3151 -0.0033  0.0891
22732W        W38806  14.143   2.827   0.097  0.1156  0.2660 -0.3784
22733W        W38807   6.616   1.492   5.368  0.0096 -0.0779 -0.1220
22734W        W38808  10.892   2.252  14.687 -0.0550 -0.0519  0.0290
22735W        W38809  10.941   5.134   5.617 -0.0360 -0.1455 -0.1718
22736W        W38810  13.529  15.502   1.113 -0.0007  0.0232  0.2114
22737W        W38811   9.100   8.711  16.430  0.1845 -0.2557  0.0764
22738W        W38812   8.517   7.963   0.666  0.2273 -0.0561 -0.0874
22739W        W38813   8.701   6.642   0.340  0.0351  0.5131  0.1184
22740W        W38814  16.238  10.571  11.513  0.2311 -0.0701  0.0024
22741W        W38815  17.061  15.899  13.050  0.0042  0.1544  0.0534
22742W        W38816   0.084  13.324   2.902 -0.1500  0.0426 -0.0665
22743W        W38817   2.989  12.022   6.415 -0.0860 -0.0202  0.1004
22744W        W38818   1.543  12.139  12.482  0.0628  0.1292  0.1189
22745W        W38819  17.726   5.805   5.386 -0.1345 -0.0912 -0.0354
22746W        W38820   3.946  10.384  15.362  0.0391 -0.1579 -0.1824
22747W        W38821  11.304   8.422   5.166  0.0054 -0.1985 -0.3083
22748W        W38822   1.606  17.037  14.432  0.1419 -0.3524  0.1637
22749W        W38823   4.490   3.237   0.284  0.1458  0.3181  0.1088
22750W        W38824   5.011  11.120  13.494  0.1164 -0.0473 -0.2708
22751W        W38825  12.715   5.854   5.635 -0.2432 -0.1683 -0.1135
22752W        W38826   2.415  12.974  11.895  0.0395  0.0539  0.2682
22753W        W38827  15.944  14.643   2.234 -0.0692 -0.0805 -0.1773
22754W        W38828  11.536   1.107   3.297 -0.1209 -0.1115  0.2354
22755W        W38829  14.143   4.638   6.263 -0.3593  0.2753 -0.0367
22756W        W38830   3.964  12.277   4.304 -0.0801  0.0227  0.1289
22757W        W38831  11.389   7.595  15.291  0.0569  0.0049 -0.6479
22758W        W38832  10.032   1.972  14.887  0.1442 -0.1265 -0.1905
22759W        W38833   0.761  13.925   5.866  0.0538  0.0010 -0.1375
22760W        W38834   3.232   7.382  13.737  0.1312 -0.0754  0.0076
22761W        W38835   4.092  16.459  12.208 -0.3578  0.0310  0.1169
22762W        W38836  12.782   3.644   4.055  0.3533  0.1877 -0.0605
22763W        W38837   6.921  16.843   1.248  0.2886 -0.2339 -0.2762
22764W        W38838   9.961  12.315   0.842  0.1811 -0.2789  0.0535
22765W        W38839   3.692  17.426   2.667  0.1555 -0.0535  0.2704
22766W        W38840  15.384   9.684   1.365 -0.2561 -0.2675  0.0256
22767W        W38841  12.783   9.576   2.657  0.0819  0.3166  0.0804
22768W        W38842   0.203  17.183   5.886 -0.0693 -0.2365  0.2291
22769W        W38843   1.431   2.444   5.752  0.2044  0.0388  0.2587
22770W        W38844   4.387   7.987   3.349  0.1726 -0.0579 -0.0513
22771W        W38845   4.576   5.387   5.152  0.0145 -0.2665 -0.1216
22772W        W38846   9.573   6.997  14.786 -0.3319  0.0832 -0.1354
22773W        W38847   7.226   6.712   5.168  0.1372 -0.0278  0.1281
22774W        W38848  10.855   0.601   5.476  0.1084  0.0817  0.0691
22775W        W38849  15.462  10.879   3.473  0.1862 -0.2740  0.1735
22776W        W38850   1.252   1.536  17.013  0.0757  0.0807 -0.1483
22777W        W38851   7.304   2.200  15.000  0.1384  0.0041 -0.0841
22778W        W38852  13.940   8.347   5.355 -0.1360  0.0376 -0.2153
22779W        W38853   3.685   7.682  15.333 -0.2224 -0.0818 -0.0130
22780W        W38854  10.517   7.566  15.514  0.1377  0.0047 -0.1992
22781W        W38855   8.489  11.721   5.472  0.3045 -0.0562  0.1658
22782W        W38856   3.602  10.325  14.556 -0.2465  0.1281  0.0122
22783W        W38857  12.294  13.612  17.137  0.0510 -0.0408 -0.3136
22784W        W38858   7.819   2.332   1.490  0.3988  0.0417  0.1771
22785W        W38859   0.868  12.791  12.998 -0.2182  0.1285  0.0302
22786W        W38860   4.330   3.284   5.912  0.2253 -0.2691 -0.2119
22787W        W38861  14.536  15.378   3.503 -0.1159  0.3997 -0.3754
22788W        W38862  16.201   3.643   2.307 -0.2125  0.0074 -0.1540
22789W        W38863  16.915   8.580  14.797 -0.2716  0.0504  0.0877
22790W        W38864   1.467  10.444   3.087 -0.1118 -0.1002  0.1893
22791W        W38865   3.129  14.844   2.088  0.1760  0.0676  0.1654
22792W        W38866   0.311   9.565   1.759 -0.1210  0.5702 -0.1511
22793W        W38867  10.120  10.863  15.993 -0.1330  0.3066  0.2456
22794W        W38868  16.928  13.664  16.764  0.0741 -0.1834  0.1615
22795W        W38869   9.595  11.044   5.203  0.0796 -0.1519  0.2542
22796W        W38870  17.716  16.706   1.404 -0.0775 -0.2411  0.0336
22797W        W38871   5.028   1.845  12.275 -0.2885 -0.3330 -0.1558
22798W        W38872  14.284  11.114   2.731 -0.1328  0.0991 -0.1159
22799W        W38873   6.493   6.795   5.430 -0.2401  0.1184  0.1923
22800W        W38874   0.804  17.150   5.702  0.0853  0.0701  0.2043
22801W        W38875   9.622  10.955  15.747 -0.4231  0.1846  0.2594
22802W        W38876   2.331  17.596  15.981  0.1453 -0.0344  0.1097
22803W        W38877  17.103   9.945  15.567  0.2926  0.2740  0.0371
22804W        W38878  10.720  14.575   0.622  0.2221 -0.0220  0.1702
22805W        W38879   9.740   1.625  12.002 -0.2195  0.0843 -0.2909
22806W        W38880   3.857   0.433   2.058 -0.0227 -0.3879  0.1867
22807W        W38881  17.557   0.929  11.925  0.1212  0.1044 -0.0817
22808W        W38882   7.440  10.171   2.103  0.0553  0.2508  0.1144
22809W        W38883   9.166  14.940  11.531 -0.0855  0.1726 -0.2489
22810W        W38884  16.967   4.181  16.809  0.1174 -0.3747 -0.0281
22811W        W38885   8.164   2.595  13.566  0.1253 -0.1113 -0.1431
22812W        W38886   4.493   5.918  13.142  0.2649 -0.3881 -0.0846
22813W        W38887  14.225   8.005   0.070 -0.0648  0.0927 -0.0887
22814W        W38888   7.524   7.587   5.681 -0.1836 -0.1948 -0.2700
22815W        W38889  16.854   9.535   4.570  0.1650  0.1250  0.0075
22816W        W38890   7.713   7.425   2.597 -0.0139  0.0917  0.2403
22817W        W38891  11.638  13.937  14.113  0.2635  0.0534  0.5876
22818W        W38892   8.498   5.853  16.385 -0.2841  0.1135 -0.1656
22819W        W38893   6.630   5.144  15.217 -0.3048  0.0969  0.3437
22820W        W38894   8.530  16.950   5.817 -0.1147 -0.0279 -0.2574
22821W        W38895  15.825  12.710   1.728 -0.0034 -0.1822 -0.0690
22822W        W38896   6.492  10.639  12.284  0.1776  0.1783  0.0808
22823W        W38897   3.305  14.779   0.741 -0.0462 -0.3027  0.5082
22824W        W38898   8.175   7.066  16.937  0.2232 -0.3775  0.1402
22825W        W38899   7.967  14.976   5.838 -0.0439 -0.0015  0.1755
22826W        W38900   3.441  10.628  12.189 -0.1912 -0.0589  0.0120
22827W        W38901  12.721  16.834   3.351 -0.0548 -0.0559 -0.0427
22828W        W38902   7.685  12.951  12.086  0.0208  0.1467 -0.0641
22829W        W38903   6.170   3.660   2.750  0.1740 -0.3184  0.0365
22830W        W38904  12.761   4.713  12.336 -0.2652 -0.1192 -0.3243
22831W        W38905   7.762   4.433   4.707 -0.1576  0.0663  0.0013
22832W        W38906  17.377   2.556  11.701  0.0554 -0.1345 -0.0205
22833W        W38907  16.013   4.820   2.270 -0.0075 -0.1567  0.0073
22834W        W38908   8.744   4.290  12.515 -0.0191  0.0725 -0.2272
22835W        W38909  15.722  14.405   5.504  0.0230 -0.1513  0.1938
22836W        W38910   8.499   3.415   4.101 -0.0964  0.2504  0.1183
22837W        W38911   0.518  13.319   0.513 -0.0631 -0.3948 -0.2857
22838W        W38912   0.440   6.529   0.873  0.0020 -0.0782  0.1276
22839W        W38913   3.340   1.021   3.288  0.1048 -0.1488  0.0846
22840W        W38914   1.728   7.338  12.094  0.1278  0.0799 -0.0572
22841W        W38915   1.624   5.189   2.697 -0.0265 -0.2351  0.2695
22842W        W38916   0.503  12.676  14.916 -0.2867  0.0165 -0.1928
22843W        W38917   7.926   3.268   2.311 -0.1302  0.2079 -0.3549
22844W        W38918   8.049  13.025   2.296 -0.0140  0.4109  0.3918
22845W        W38919   4.686  12.374   4.854  0.0364  0.0098 -0.0128
22846W        W38920  14.561  11.231  11.597 -0.1739 -0.2656 -0.1481
22847W        W38921   0.627  11.913   1.996  0.1414 -0.1625  0.1485
22848W        W38922  14.520  17.536  16.336  0.2439  0.0446  0.2024
22849W        W38923   4.688  15.442  15.059  0.1444 -0.1415  0.1703
22850W        W38924   2.940   3.454   4.266  0.1314 -0.0388  0.1351
22851W        W38925  14.812   4.455  13.218 -0.2141  0.0771 -0.2037
22852W        W38926   7.373   7.779   2.816  0.1246 -0.0235 -0.2277
22853W        W38927   3.392   6.855   1.400  0.0278  0.1580 -0.2256
22854W        W38928   4.271   3.276   4.107 -0.0583  0.1142  0.1102
22855W        W38929   6.647   8.950  12.795 -0.3042 -0.0271 -0.1588
22856W        W38930   2.555  10.767  11.399  0.0559  0.0586  0.3077
22857W        W38931  17.695  17.731  15.823  0.2892 -0.1245  0.0826
22858W        W38932   8.889   1.053  15.180 -0.0080  0.2539  0.1862
22859W        W38933   3.923   7.470   1.560  0.0934 -0.1517  0.1852
22860W        W38934   4.887   4.640  12.747  0.2894 -0.0833 -0.0576
22861W        W38935  10.658   3.532  12.419  0.0686  0.1460  0.2207
22862W        W38936  13.061  11.536  14.372 -0.1230  0.1355  0.0107
22863W        W38937   3.943   6.376  16.324  0.1134  0.2643  0.1286
22864W        W38938   2.686   2.229  13.970  0.1392  0.3100  0.1475
22865W        W38939   9.686   5.288  12.728  0.1774 -0.0393 -0.3609
22866W        W38940  12.481   5.113  12.139  0.1613  0.0743  0.2107
22867W        W38941   4.232  16.117  16.374 -0.1144  0.4037  0.0199
22868W        W38942  13.814  10.462  17.026 -0.1746 -0.1252 -0.2084
22869W        W38943   4.687  12.564  10.904 -0.0930  0.1733 -0.0507
22870W        W38944   9.530   5.098  16.861 -0.2147 -0.0516 -0.2129
22871W        W38945   4.614  12.070   1.005  0.0095 -0.0114  0.0089
22872W        W38946  15.026  12.718  13.200  0.3596  0.2495 -0.0399
22873W        W38947  10.189  10.395  11.841  0.0415 -0.0472  0.1355
22874W        W38948  13.707  17.566  16.078 -0.2036  0.3786  0.0137
22875W        W38949  15.698  11.754  14.874  0.0604 -0.2138  0.1694
22876W        W38950  10.904   0.244   1.469 -0.1928  0.1569  0.1710
22877W        W38951  12.419   8.074   5.803  0.0019 -0.3513  0.2788
22878W        W38952  17.424  16.637  13.056  0.1124 -0.0378  0.2206
22879W        W38953  16.832   0.260   5.395  0.0806  0.1746 -0.3216
22880W        W38954  12.703   6.187  16.742 -0.1742  0.5067  0.0201
22881W        W38955  14.595   9.284   0.969  0.1495 -0.0530 -0.1382
22882W        W38956  11.632   6.545  13.164 -0.2678  0.2008  0.1014
22883W        W38957  14.560   3.235   1.304  0.0667  0.3651  0.1902
22884W        W38958   9.147   4.107   3.482 -0.0245  0.3780  0.0806
22885W        W38959  17.019   1.197  11.795  0.3118  0.2960  0.0720
22886W        W38960  10.905   7.914  13.064  0.0735 -0.0402 -0.0818
22887W        W38961   3.666  12.297   3.149 -0.1259 -0.1883  0.2618
22888W        W38962   0.681  11.245  15.264 -0.1646  0.2028  0.0492
22889W        W38963  16.722   0.223  16.067  0.2174 -0.1526 -0.1564
22890W        W38964  10.673   2.575  15.399 -0.2807  0.4115 -0.2163
22891W        W38965   3.972  13.242   2.566 -0.0685 -0.3129  0.0631
22892W        W38966   8.536   0.531  14.878  0.2039 -0.2317 -0.2202
22893W        W38967   6.242   5.916  14.681 -0.0736 -0.0370 -0.1537
22894W        W38968   8.275  10.679  15.301  0.2161 -0.1926 -0.0526
22895W        W38969   4.886  10.028  16.378 -0.4015  0.2280  0.0719
22896W        W38970  13.511   8.613   5.516  0.0573 -0.0512  0.0854
22897W        W38971   8.338   9.784   0.659  0.3240  0.2343  0.0167
22898W        W38972   7.242  14.841   2.862  0.0477  0.1037  0.5921
22899W        W38973  17.157   1.430   1.123  0.0473 -0.1654  0.0290
22900W        W38974  17.393   8.402   1.017 -0.0838 -0.0317  0.3537
22901W        W38975   7.273  13.523  14.823  0.0915  0.0361  0.0918
22902W        W38976  15.840   1.732   0.681  0.1661  0.0987  0.0028
22903W        W38977  14.695  12.001  16.943 -0.1549  0.1287 -0.2610
22904W        W38978  11.133   7.726  14.908  0.3184 -0.0233  0.1324
22905W        W38979   1.186  16.883   1.014 -0.0264 -0.1751  0.2221
22906W        W38980   2.099   9.000   2.721  0.1125 -0.1942 -0.2069
22907W        W38981  12.344   0.168   3.430 -0.0945  0.0506 -0.3488
22908W        W38982   7.909   8.990  15.705 -0.2925  0.0530 -0.0718
22909W        W38983   9.135   4.936   2.991 -0.0220  0.3656  0.1138
22910W        W38984   5.796  15.728   2.163  0.0190  0.0751 -0.1269
22911W        W38985   7.546   1.638  16.179  0.1190 -0.1184  0.0623
22912W        W38986   6.063   5.444   4.236 -0.1713  0.0263  0.0118
22913W        W38987   8.269  17.198  15.251 -0.1155  0.0642 -0.1546
22914W        W38988  16.069  14.655   0.657  0.1109  0.1512 -0.1362
22915W        W38989   3.649   8.326   2.050 -0.0355  0.1464  0.1385
22916W        W38990   2.072   0.509  13.292 -0.0723 -0.0070 -0.3025
22917W        W38991   3.871  12.682   0.492 -0.1527  0.1810 -0.0522
22918W        W38992   7.885  14.066  13.074 -0.1415  0.0775 -0.0546
22919W        W38993  14.681  11.583  13.838  0.2235 -0.0211  0.2693
22920W        W38994  15.972   0.768   6.690  0.1331  0.6225  0.1686
22921W        W38995   7.602   6.520   0.079 -0.1328  0.3619 -0.0811
22922W        W38996  11.647   4.878  12.451 -0.0392  0.2422  0.1602
22923W        W38997  15.811   2.144  12.729 -0.0587 -0.0903 -0.0519
22924W        W38998   1.805   9.597  16.210  0.1002 -0.1291  0.0732
22925W        W38999  10.756   2.515   0.492 -0.1346  0.2007 -0.0951
22926W        W39000   3.776   8.117   4.101  0.1428 -0.0442  0.0506
22927W        W39001  14.003  15.362   5.234 -0.0680 -0.0060 -0.0939
22928W        W39002   8.045   2.272   3.313  0.1685 -0.0975 -0.4747
22929W        W39003  10.557   6.339  14.416 -0.0684  0.0819  0.0302
22930W        W39004  15.793  15.424   5.673  0.0044 -0.0193  0.0485
22931W        W39005   6.066  16.377  13.846  0.0519 -0.0160 -0.3362
22932W        W39006  15.331   9.404   3.990  0.2786 -0.1107  0.1937
22933W        W39007   0.047   2.999  12.239 -0.1379  0.0711  0.2453
22934W        W39008   1.111   6.439  12.043  0.2270 -0.0442  0.0206
22935W        W39009   0.205  13.128  13.579 -0.0854 -0.2538 -0.1355
22936W        W39010  15.208   8.377   5.574  0.1598 -0.2504 -0.0910
22937W        W39011  11.121  11.270   1.928  0.0466  0.1491  0.0436
22938W        W39012   0.293  12.816  16.068 -0.1885  0.0055  0.0640
22939W        W39013   3.596  13.305  11.578  0.2233  0.0528 -0.1800
22940W        W39014   8.634   0.597  17.090  0.2397  0.0730 -0.1484
22941W        W39015   8.898   3.026  16.261 -0.2674  0.0470  0.0305
22942W        W39016  13.734   7.223   1.159 -0.2435  0.0756 -0.2061
22943W        W39017  15.783  10.800  12.274  0.0302 -0.0831  0.1307
22944W        W39018  14.721  15.092  16.660  0.0974  0.0629  0.0497
22945W        W39019  12.015   7.954  13.087 -0.0020  0.2122 -0.0129
22946W        W39020   1.842   6.739   3.167  0.1001 -0.0534  0.2104
22947W        W39021  12.622  12.656   2.973 -0.0799  0.1464 -0.1070
22948W        W39022   7.628  13.544  17.136 -0.0960 -0.1491 -0.1805
22949W        W39023  17.601  17.374  13.337 -0.1351 -0.1599 -0.1088
22950W        W39024   2.589  14.681   6.275  0.1180 -0.2100 -0.5111
22951W        W39025   2.147  13.937  16.542  0.5248 -0.0075 -0.2712
22952W        W39026  15.837  15.350  16.833  0.0265  0.0221  0.1465
22953W        W39027  17.317   9.765   0.106 -0.1021  0.2015 -0.0853
22954W        W39028  16.531   4.795  14.205  0.2561 -0.1090 -0.1158
22955W        W39029   8.892  16.970   1.844  0.0949  0.1339  0.0707
22956W        W39030  12.603   9.830   4.395  0.1176  0.2712 -0.3812
22957W        W39031   8.748  17.423   1.929  0.0243 -0.0341 -0.1392
22958W        W39032   0.001   6.785   3.606  0.3414 -0.0415  0.2557
22959W        W39033   5.824   8.160   0.436  0.0695  0.1277 -0.0951
22960W        W39034   0.936  11.054  11.208 -0.0428 -0.1443  0.1397
22961W        W39035   3.182   0.870  12.869 -0.2208  0.1051 -0.1135
22962W        W39036   8.903  12.521  15.299  0.0597 -0.1783  0.0587
22963W        W39037  17.361   8.854  14.757 -0.1442  0.5273 -0.2572
22964W        W39038   9.441  12.269  15.348  0.4040  0.1647  0.2536
22965W        W39039   9.170   1.513   0.899 -0.0690  0.2879 -0.0748
22966W        W39040   1.556  10.853  12.429 -0.0357 -0.3833  0.0737
22967W        W39041  13.751   5.934  16.525  0.2135 -0.0646  0.1143
22968W        W39042   9.966   5.570   2.009  0.0489  0.0094 -0.2380
22969W        W39043   8.762  13.709  15.751 -0.1510 -0.5305 -0.0806
22970W        W39044  12.804   8.353  14.614  0.0080 -0.2804 -0.0713
22971W        W39045   9.408  10.156  14.548 -0.6186  0.1478 -0.1812
22972W        W39046  12.357  10.145   1.517 -0.1580 -0.1996  0.0450
22973W        W39047   6.977   2.857  14.134 -0.1124  0.0949 -0.0899
22974W        W39048  11.624  11.789   3.123 -0.0052  0.0981 -0.1246
22975W        W39049  15.997   1.561   4.860 -0.0534  0.0883  0.0218
22976W        W39050   9.178   0.610   5.243  0.0135  0.0872 -0.0886
22977W        W39051  14.039   5.466   4.292 -0.1343 -0.1057  0.1438
22978W        W39052  15.310   7.823   4.379  0.1619  0.4238  0.0830
22979W        W39053  11.176   6.246   2.193  0.1856 -0.0263  0.0583
22980W        W39054  15.826   4.628  12.056  0.1440 -0.1832  0.1035
22981W        W39055   0.622   8.008   3.852 -0.1395 -0.0757 -0.1227
22982W        W39056   6.005   5.521   5.841 -0.1745 -0.3593 -0.2559
22983W        W39057   1.577   4.317   1.627  0.3025  0.3156 -0.0737
22984W        W39058   1.991   0.946   4.667 -0.1174 -0.0212 -0.0681
22985W        W39059   1.193  11.372   6.723 -0.0919  0.0184  0.1992
22986W        W39060   9.418  10.484  15.724  0.1754 -0.1438 -0.0472
22987W        W39061   7.064   9.127   3.256  0.2954  0.0599 -0.0872
22988W        W39062  14.346  17.274  14.808 -0.1146 -0.3039 -0.0207
22989W        W39063  14.631  15.692   4.937 -0.0086  0.1857 -0.4086
22990W        W39064   9.158   2.152   4.385  0.1945 -0.1162  0.3043
22991W        W39065   0.396   5.398  13.996  0.2473  0.0192  0.4436
22992W        W39066   0.971  10.064   5.548 -0.2657 -0.3747  0.1161
22993W        W39067  17.039   9.027   2.808  0.3781  0.0458  0.0943
22994W        W39068  15.626   8.798  15.788  0.3893  0.1705  0.3253
22995W        W39069  12.377   8.388  15.327  0.0237 -0.0880 -0.0980
22996W        W39070  17.352  10.031   3.547  0.1644 -0.2649  0.1044
22997W        W39071  14.136   6.124   1.999 -0.0590  0.0200 -0.2264
22998W        W39072   8.048  16.182  17.126  0.0118 -0.2228  0.3143
22999W        W39073   7.771   1.272  11.934 -0.3014 -0.2307  0.0307
23000W        W39074   1.820  14.471   3.382 -0.1775 -0.1913 -0.0860
23001W        W39075  14.446   6.661  15.860 -0.1293 -0.1772 -0.0248
23002W        W39076  13.911  10.913   2.132 -0.0023  0.1781 -0.0275
23003W        W39077   5.326   1.414   2.048  0.0005  0.2837 -0.0468
23004W        W39078   6.716   8.379  12.797  0.3300 -0.1651 -0.1187
23005W        W39079  14.463   5.036  15.225 -0.1313 -0.0919  0.1257
23006W        W39080  16.728   4.065  15.835 -0.1227 -0.0213 -0.1770
23007W        W39081   0.266   9.148  11.857  0.3395 -0.3764  0.0244
23008W        W39082  16.988   5.524   4.449 -0.1675 -0.0248 -0.1740
23009W        W39083   8.170   3.145  12.233  0.1410 -0.0063 -0.0971
23010W        W39084   8.649   6.391  16.377  0.1529  0.1361 -0.0207
23011W        W39085   1.921   2.593  16.692  0.2088 -0.2399  0.0615
23012W        W39086   7.325   8.276   0.123 -0.3521 -0.0866 -0.1833
23013W        W39087  14.330  11.572  14.220 -0.1449 -0.0827  0.2386
23014W        W39088   4.702   2.946  12.551 -0.3550 -0.1968 -0.1131
23015W        W39089  15.877  10.319  12.462  0.1473  0.0441  0.0273
23016W        W39090  12.804  16.731   4.214  0.4173 -0.0168  0.0302
23017W        W39091   1.680   8.142   3.047  0.2520 -0.1797  0.2445
23018W        W39092  13.274   3.697  16.858 -0.0702  0.3119  0.1850
23019W        W39093  12.569   6.388  15.469 -0.0375 -0.0106 -0.0632
23020W        W39094   3.478  14.774   2.493 -0.2580  0.0307 -0.2247
23021W        W39095   8.608  14.942  17.054 -0.2902  0.0475 -0.1163
23022W        W39096  14.164   0.301   6.457  0.0527 -0.3182  0.0613
23023W        W39097   0.501   4.284  12.066 -0.0917 -0.0255  0.0835
23024W        W39098  14.236   8.346   0.478  0.0257 -0.1035 -0.1804
23025W        W39099   6.916   1.558  14.175  0.0595  0.2511 -0.2182
23026W        W39100   4.880  10.577   5.354 -0.1858  0.0613  0.0858
23027W        W39101  17.596   9.119  13.266 -0.1356 -0.0230  0.1523
23028W        W39102  11.284   3.222   5.516 -0.0311  0.2029  0.1788
23029W        W39103  16.066  11.287  14.315  0.0883 -0.1712  0.0634
23030W        W39104  10.840   8.492  14.033 -0.1998 -0.0861 -0.0797
23031W        W39105   5.621  16.727   1.815  0.1267  0.1184  0.1198
23032W        W39106   7.789  13.289   4.088 -0.2696 -0.0054 -0.2641
23033W        W39107   3.454   8.760  11.074 -0.0305  0.0101 -0.0141
23034W        W39108  10.158   0.059  10.909 -0.0716 -0.1101  0.1303
23035W        W39109   6.918  11.469   3.768  0.1116  0.2234  0.1541
23036W        W39110  14.426   2.977   1.686 -0.0355  0.2268 -0.0770
23037W        W39111  14.000   5.358  12.100  0.1261  0.2604 -0.1897
23038W        W39112   6.079  10.729   1.486 -0.2158 -0.2495  0.0687
23039W        W39113  15.953   1.348   5.626  0.0776  0.0279 -0.0863
23040W        W39114  16.779   9.879   1.424 -0.0592  0.2170 -0.1752
23041W        W39115  17.288   2.891  12.059 -0.0334  0.1786  0.0210
23042W        W39116   0.965   6.541   4.632 -0.0612  0.1650 -0.1728
23043W        W39117   1.137  10.839  13.385  0.1157 -0.1465 -0.0765
23044W        W39118   8.577   3.037   3.678 -0.1464  0.3095 -0.0598
23045W        W39119   5.263   1.108   4.140  0.0288 -0.2282  0.0574
23046W        W39120   9.274  13.186  17.110 -0.0769 -0.2355 -0.2227
23047W        W39121   8.927  10.987  14.110  0.1227  0.1693 -0.1251
23048W        W39122   2.983   1.121  12.347  0.2675 -0.2899 -0.2944
23049W        W39123   1.022  12.793   4.410 -0.1206  0.2353 -0.0942
23050W        W39124   4.089   5.788   2.522  0.0158 -0.1049  0.0162
23051W        W39125   8.298  11.445  14.957  0.3008 -0.2664  0.0859
23052W        W39126   8.059  13.684  11.888 -0.2003  0.0878  0.2319
23053W        W39127   5.626  11.439  12.827 -0.1716 -0.3675  0.0979
23054W        W39128  12.832  10.156  13.948 -0.1173  0.2110 -0.1486
23055W        W39129   1.043  11.072  17.032  0.0024 -0.0706  0.0112
23056W        W39130   5.924  10.058   2.571 -0.0651  0.2507  0.1861
23057W        W39131  11.563  10.564  14.494  0.0038 -0.0078  0.0580
23058W        W39132  10.088  14.218   1.052  0.1822  0.2810 -0.2553
23059W        W39133   0.260  10.224   5.710 -0.0489  0.0610  0.0706
23060W        W39134  11.783   7.540  12.934  0.0614  0.0603  0.0475
23061W        W39135   6.853  13.145   0.391  0.1011 -0.0011 -0.1453
23062W        W39136   4.773   5.107   0.269  0.0258 -0.2562 -0.0107
23063W        W39137   2.509  11.400  13.113  0.1632 -0.1916  0.1977
23064W        W39138   8.019   3.467  15.970 -0.0878 -0.0567  0.0116
23065W        W39139   4.012   4.777   1.793 -0.2515  0.0147  0.0677
23066W        W39140   9.201  11.281  12.303  0.1151  0.0174 -0.0708
23067W        W39141   8.107   5.349   4.218  0.0991  0.1584  0.2687
23068W        W39142   8.471  17.544  11.633  0.0807  0.2156 -0.0811
23069W        W39143  17.021   8.650   0.524  0.0617  0.2978  0.3103
23070W        W39144   9.207  15.386  13.513  0.0164 -0.0796 -0.0943
23071W        W39145   9.402   1.752   4.508 -0.0970 -0.1290 -0.1249
23072W        W39146  14.790   5.589  16.025  0.0337 -0.1774 -0.1887
23073W        W39147   7.943   0.302   3.355 -0.0504 -0.1952 -0.0951
23074W        W39148   7.220   0.093  13.518 -0.2727  0.0705 -0.1083
23075W        W39149  14.948   1.479  13.454 -0.3503  0.0821 -0.0107
23076W        W39150   1.650   4.574   2.912  0.3343  0.0373 -0.0080
23077W        W39151   1.371   7.455  13.184  0.1763  0.1324  0.2252
23078W        W39152   6.955   1.004  11.888  0.0521  0.1402 -0.1429
23079W        W39153   2.650  12.738  14.662 -0.2591 -0.1367  0.0270
23080W        W39154  13.276  15.089  12.528 -0.2279 -0.4155  0.0965
23081W        W39155   7.338  12.060   3.032 -0.0452 -0.0308  0.2355
23082W        W39156  17.600   8.201   2.831 -0.1696 -0.4616  0.2683
23083W        W39157  14.803   6.834   4.498 -0.0115 -0.2259  0.2586
23084W        W39158   0.916  12.873   3.499  0.2151 -0.3662  0.0915
23085W        W39159   4.376  16.912  12.351 -0.0580 -0.3464 -0.0970
23086W        W39160  12.686   8.054   4.124  0.0342 -0.0684  0.0509
23087W        W39161   9.697   4.433   0.587  0.0924 -0.1548 -0.4294
23088W        W39162   2.518  15.580  14.669  0.0659  0.0961  0.0754
23089W        W39163   7.179   5.533   2.304 -0.1315 -0.2466  0.3289
23090W        W39164   0.851   5.297   3.757  0.0500 -0.3680 -0.2362
23091W        W39165   6.818  10.664   0.934  0.1380  0.1210 -0.6228
23092W        W39166   5.099   2.260  13.093 -0.0992  0.2395 -0.1344
23093W        W39167   9.150   6.023   5.148  0.0434  0.3627 -0.1204
23094W        W39168   0.743  15.859  15.498  0.0440  0.2434 -0.1956
23095W        W39169  12.030   7.493   1.752 -0.0647 -0.0918  0.0864
23096W        W39170   3.094  15.069   4.179  0.0867  0.3947 -0.1600
23097W        W39171  12.678  10.157  11.995 -0.0383 -0.0020  0.2113
23098W        W39172  13.477  11.700   1.834 -0.0180  0.5415 -0.1263
23099W        W39173   3.896   0.957  13.642 -0.2419 -0.1464  0.2573
23100W        W39174   1.086   0.187  16.943  0.1696  0.1040 -0.0809
23101W        W39175   8.076   7.568   1.419  0.0674 -0.2589 -0.1652
23102W        W39176  14.312  12.378   0.544  0.0405 -0.3487 -0.2680
23103W        W39177  12.859  11.018   4.382  0.2385 -0.1428 -0.1082
23104W        W39178  17.324   0.201   3.823  0.0391  0.0289  0.0337
23105W        W39179  10.242  11.908  16.381 -0.1108 -0.0868  0.0701
23106W        W39180   3.949  15.817  13.454  0.2251 -0.1165  0.0642
23107W        W39181   8.841   3.235   2.069 -0.1266  0.2030 -0.1362
23108W        W39182   3.590   4.846   4.866  0.0899  0.3146 -0.4898
23109W        W39183  13.782  17.335  13.334  0.1656 -0.0234  0.3202
23110W        W39184   5.227  17.642  14.828 -0.0385  0.0359  0.2203
23111W        W39185   0.775   7.920   5.987 -0.2700  0.0576  0.0806
23112W        W39186  15.165   1.761   2.906 -0.0237 -0.0476 -0.1007
23113W        W39187   2.148   9.820   2.976 -0.4071 -0.1025  0.0071
23114W        W39188   4.768   4.472   0.145  0.2177 -0.3726 -0.0453
23115W        W39189  10.955  11.825   1.036 -0.1306  0.0011 -0.1245
23116W        W39190   7.074  16.163  13.844  0.0880  0.2024 -0.0871
23117W        W39191  14.030  16.607  16.877  0.0467 -0.1103  0.2633
23118W        W39192   2.351   3.021  15.945  0.1208 -0.0533  0.3294
23119W        W39193   4.770   3.406   4.167 -0.2478 -0.0728  0.4502
23120W        W39194  17.444  14.720  12.720 -0.2271  0.0170 -0.0274
23121W        W39195  15.921  12.861   0.291 -0.3803  0.1790  0.1195
23122W        W39196   5.958   2.048  11.866  0.4289  0.1265 -0.1004
23123W        W39197   2.845   0.262  14.956  0.1347 -0.2301  0.0715
23124W        W39198   6.210  12.420   3.013  0.0039  0.1118 -0.1442
23125W        W39199  11.203   0.458  16.057  0.0664 -0.1049 -0.0477
23126W        W39200   1.147   0.275   3.933 -0.1016  0.2943 -0.1702
23127W        W39201  15.641  13.613   0.638 -0.0538 -0.1865 -0.2965
23128W        W39202  12.639   5.595   0.083  0.3227  0.0272  0.1730
23129W        W39203  17.161   2.815  13.507 -0.2033  0.1972 -0.2503
23130W        W39204  15.162   4.354   1.260  0.0180 -0.5449 -0.0395
23131W        W39205  15.268  14.070   6.346  0.1732 -0.2265  0.4311
23132W        W39206   6.118  15.104   3.445 -0.1589  0.3802 -0.0882
23133W        W39207   6.592   0.775  15.689 -0.0849 -0.3941 -0.2459
23134W        W39208  10.543   4.336   4.610  0.1718 -0.0884  0.1627
23135W        W39209   4.569  16.316   3.471 -0.2190 -0.0079  0.2525
23136W        W39210   2.817   6.441  11.834  0.0459  0.3345  0.0187
23137W        W39211  14.616  13.607   4.199 -0.3143 -0.0860  0.1376
23138W        W39212  12.921  13.826   1.579  0.0173 -0.0149  0.0789
23139W        W39213   4.456   3.568  15.808 -0.0456 -0.0327 -0.1433
23140W        W39214   2.747   1.180   0.903  0.0538  0.0686 -0.2380
23141W        W39215   1.549   2.917  11.820 -0.0865 -0.1570 -0.0394
23142W        W39216   3.603  16.730   0.597  0.1566 -0.1287 -0.1258
23143W        W39217  11.890   6.475  14.831  0.0690  0.1226  0.2562
23144W        W39218  12.225  10.810   0.427  0.1619  0.3742 -0.0402
23145W        W39219   6.888   4.165   1.252 -0.1846 -0.4147 -0.1079
23146W        W39220  16.789   2.402  13.219  0.4177 -0.0907 -0.0790
23147W        W39221   1.800   8.454  16.678 -0.4044  0.0904  0.0238
23148W        W39222   2.321   0.102   3.046 -0.4175 -0.3961 -0.0825
23149W        W39223  11.532   3.937  12.409  0.1666  0.1405  0.0641
23150W        W39224  10.078   6.098  14.256  0.0268  0.0273  0.0299
23151W        W39225  17.110   0.634   1.661 -0.3423 -0.0362  0.0091
23152W        W39226  12.174   6.463  11.875 -0.2103 -0.0764 -0.1937
23153W        W39227   2.826  10.726  12.349 -0.0413  0.0914  0.0668
23154W        W39228   9.928  10.444   6.478 -0.0911 -0.3175 -0.0932
23155W        W39229   4.906   6.044   2.969  0.2290 -0.1013  0.1729
23156W        W39230  16.605   2.030  15.844  0.0289 -0.2700  0.0743
23157W        W39231   3.319  13.375  14.051 -0.1708  0.0792 -0.0076
23158W        W39232  14.186  14.575   4.504  0.0704 -0.2998  0.0093
23159W        W39233   0.274  17.617   1.949 -0.2711 -0.1647  0.0719
23160W        W39234  10.340   4.298  15.505  0.0247  0.2014 -0.0794
23161W        W39235   7.108  15.688  14.644 -0.1757  0.1137  0.0055
23162W        W39236   0.768   8.154   4.306  0.0181 -0.0683 -0.0298
23163W        W39237  12.878   7.800  14.300  0.2844  0.0077  0.1188
23164W        W39238  12.862  10.431  16.348 -0.0963  0.2044 -0.1129
23165W        W39239  12.560  15.875   1.068 -0.0498  0.1879 -0.0787
23166W        W39240   6.036   0.242  13.195  0.0412 -0.0889 -0.2160
23167W        W39241  16.630   3.537  15.097 -0.0966 -0.0784  0.2671
23168W        W39242   5.256   2.644   1.227 -0.0364  0.0615  0.4223
23169W        W39243  11.542  11.400   1.181  0.2299  0.0065  0.0836
23170W        W39244   0.520   5.273   2.257  0.1997 -0.0163 -0.1992
23171W        W39245   9.087   0.693  15.645  0.1222 -0.2222 -0.0716
23172W        W39246   6.171  13.677  13.847 -0.2196  0.0004  0.1433
23173W        W39247   3.089   8.648  16.219  0.1398  0.3495  0.0263
23174W        W39248   0.011   3.527   4.735  0.0435 -0.0184 -0.1374
23175W        W39249  14.764  16.212   3.703 -0.1517  0.1333  0.1084
23176W        W39250  11.013   2.200   0.798  0.0094 -0.2316 -0.1272
23177W        W39251  14.389   4.797  12.760  0.0883 -0.2287  0.1482
23178W        W39252  10.541  14.756  15.909  0.2024 -0.1510  0.4161
23179W        W39253   2.186   9.563   4.049 -0.0801 -0.3649  0.1029
23180W        W39254  14.781  13.619  15.901  0.0705 -0.2888 -0.1033
23181W        W39255   1.893   9.320  13.424 -0.0622 -0.0474 -0.2173
23182W        W39256   5.752   0.349  12.774 -0.1529  0.1286  0.0803
23183W        W39257   0.420   1.055  14.723 -0.1293  0.2296 -0.0074
23184W        W39258  12.075  12.279   0.781 -0.1272 -0.0782  0.3405
23185W        W39259  15.899   3.910  13.630  0.1964  0.2407  0.0714
23186W        W39260  16.471   0.371   3.268 -0.0160 -0.0261 -0.0660
23187W        W39261  17.705   5.293   6.086 -0.0548  0.5962  0.1568
23188W        W39262  11.337  16.165   4.654 -0.0159  0.0233  0.0499
23189W        W39263   7.678  15.362   5.221 -0.0872 -0.1458  0.1348
23190W        W39264   2.114  17.166  14.866 -0.0349 -0.0837  0.1328
23191W        W39265  13.906   4.191  15.281  0.1186 -0.0545  0.0481
23192W        W39266   0.359  12.856  12.990  0.3108 -0.2684 -0.0564
23193W        W39267   6.560  14.108  15.956  0.1477  0.1974  0.0879
23194W        W39268  15.682  14.018  16.694 -0.1300  0.1100 -0.1021
23195W        W39269   5.716   0.603  13.314  0.0253  0.0299  0.0293
23196W        W39270  15.416  14.188  13.687  0.0030 -0.1579  0.1474
23197W        W39271  17.288   3.872  15.793  0.2360 -0.4926 -0.0266
23198W        W39272   7.014   4.820  12.326 -0.1680 -0.2403  0.1039
23199W        W39273  10.838   3.975   4.785  0.0166 -0.0015  0.1915
23200W        W39274   3.212  13.147  12.806 -0.2259 -0.1988  0.2281
23201W        W39275  16.028   7.445  12.216  0.2640 -0.0454  0.3053
23202W        W39276  10.503  16.006   4.042  0.0426 -0.2045  0.0128
23203W        W39277  14.926   1.484  16.022  0.4535  0.0434 -0.0514
23204W        W39278  10.433   9.090  15.325  0.0356  0.4159  0.0156
23205W        W39279  17.309  10.796  14.004 -0.0019 -0.1077  0.0157
23206W        W39280  17.207   3.852   4.765 -0.0617  0.2778  0.0879
23207W        W39281   2.882   5.612  16.901 -0.1652 -0.1232 -0.0434
23208W        W39282  11.747  13.478  17.139 -0.3610  0.0178 -0.2279
23209W        W39283  13.853   6.023  13.359  0.0156 -0.2345  0.1963
23210W        W39284  15.381   5.183   2.710 -0.2769 -0.0114  0.1333
23211W        W39285  13.733  17.634  12.904  0.0544  0.3250  0.0600
23212W        W39286   0.669   5.951  12.726 -0.2478 -0.1257  0.3595
23213W        W39287   1.993   8.285  16.067 -0.0164  0.0143 -0.1137
23214W        W39288   2.145   4.027   2.341 -0.3046  0.0587 -0.0459
23215W        W39289  11.674   7.708  13.436  0.0429 -0.0020 -0.0261
23216W        W39290   4.181   2.261  16.594  0.2770 -0.1029 -0.3076
23217W        W39291   4.356   5.911  12.596 -0.1659 -0.0795  0.0822
23218W        W39292  12.846  12.093  14.966 -0.0140 -0.1754  0.0333
23219W        W39293   0.188   0.609   3.188 -0.2028 -0.2398  0.2244
23220W        W39294  14.821  17.217  13.317  0.0698 -0.0742  0.0178
23221W        W39295   5.710  10.420   0.036 -0.1044 -0.2109 -0.2609
23222W        W39296  13.172  17.518  15.327 -0.0110  0.0683 -0.2428
23223W        W39297   7.178  12.660   0.276 -0.1692  0.0826  0.1170
23224W        W39298   0.669   5.413   4.676  0.1849 -0.0840 -0.1735
23225W        W39299  10.533   4.875  14.330  0.0975  0.0657  0.1174
23226W        W39300   3.348  11.816   0.885 -0.1913 -0.4193  0.0250
23227W        W39301  11.871  10.963  16.497 -0.0178  0.4172  0.0954
23228W        W39302   4.065   2.713   4.244 -0.2934 -0.0615  0.4448
23229W        W39303  10.744  17.726   1.052 -0.3109  0.1954  0.1652
23230W        W39304  11.366  10.233  15.574 -0.1597  0.0265 -0.1311
23231W        W39305   7.437  11.116  12.345  0.1318 -0.0621  0.1022
23232W        W39306  10.385  15.787  14.128 -0.2023  0.0859 -0.2004
23233W        W39307   5.819   0.423   4.587  0.3790  0.1021  0.1472
23234W        W39308  11.792  16.326  16.411  0.0496  0.0001 -0.1348
23235W        W39309   8.391  11.064  16.248  0.0290 -0.1057 -0.0741
23236W        W39310  11.224  15.470  13.553  0.1373  0.0096  0.0200
23237W        W39311   4.002  14.247   3.516 -0.0449 -0.2324 -0.0976
23238W        W39312   7.498   6.152  14.385  0.1965  0.0029  0.0494
23239W        W39313   9.416  17.203   2.514 -0.1882  0.2410  0.0321
23240W        W39314   8.482   8.758   2.752  0.0443  0.3292 -0.2152
23241W        W39315   2.924  14.380   4.485 -0.0052  0.1711 -0.0203
23242W        W39316   8.154  15.687  15.944 -0.0978 -0.3706 -0.2264
23243W        W39317  11.360   0.963   0.606  0.1554  0.0754  0.0823
23244W        W39318  10.101   6.935   2.904 -0.2138 -0.1094  0.1069
23245W        W39319   2.472  14.693  11.997  0.0506  0.1044  0.1602
23246W        W39320  15.315   3.365  15.829  0.0748  0.1507 -0.2040
23247W        W39321   1.144   9.591   5.198  0.0461  0.0153 -0.0066
23248W        W39322   6.553   0.855  12.065 -0.3062 -0.1648 -0.0787
23249W        W39323   2.839   7.611  11.379  0.1632 -0.2215  0.1750
23250W        W39324  13.841  12.164   0.879 -0.0896 -0.2990  0.1262
23251W        W39325   5.691   0.817  14.256 -0.3240 -0.1638  0.1509
23252W        W39326   8.476   5.150   3.104 -0.1102  0.0759  0.2399
23253W        W39327  17.598  11.219   4.851 -0.2560  0.2749  0.2892
23254W        W39328  17.505  14.945  14.095 -0.2210  0.3539  0.1366
23255W        W39329   5.780  10.774   2.045  0.0493 -0.0261  0.1365
23256W        W39330  11.322  14.804   1.955  0.1204  0.2014  0.0410
23257W        W39331   6.185   9.378   0.942 -0.0772  0.3590  0.2150
23258W        W39332   5.133   6.508   5.112 -0.0962  0.1450 -0.0792
23259W        W39333  13.063   7.090  14.977 -0.1464  0.1178 -0.1701
23260W        W39334   4.119   3.632   0.759  0.0268  0.1132 -0.0159
23261W        W39335  11.795  14.367   5.751  0.1811 -0.0348  0.1182
23262W        W39336   8.623   0.708   4.993  0.0028  0.3141 -0.3006
23263W        W39337  12.792   5.735  15.966  0.0633  0.0488 -0.1975
23264W        W39338  13.037   6.352  15.307  0.1922 -0.0625 -0.1677
23265W        W39339   1.384  15.847   2.931 -0.0049 -0.2232 -0.3119
23266W        W39340  12.063   3.006   3.094  0.0133 -0.0456 -0.0342
23267W        W39341  14.147   6.969  13.053  0.1650  0.0609  0.3535
23268W        W39342   9.718   2.252   4.543  0.0538  0.1309  0.1147
23269W        W39343   8.462  15.843   4.423  0.1468 -0.0266  0.1547
23270W        W39344  10.060  10.840  14.949  0.1522  0.0089  0.1645
23271W        W39345  13.537   0.918   6.452  0.0403 -0.1328 -0.0703
23272W        W39346   4.005  12.039   3.774  0.2067  0.2085  0.0443
23273W        W39347  15.684   5.417   3.436 -0.0636 -0.0936  0.0817
23274W        W39348  13.219   6.880  13.881  0.0770  0.0917  0.1226
23275W        W39349  17.538  15.730  16.666  0.3911  0.0675  0.0774
23276W        W39350   7.055  14.135  14.024  0.1558 -0.0899  0.0710
23277W        W39351   6.674   5.259  16.210  0.1278  0.0269 -0.2214
23278W        W39352  17.629   5.773   3.483  0.0405  0.0885 -0.0708
23279W        W39353  11.891   6.758  12.212  0.0627 -0.2170 -0.0770
23280W        W39354  11.347   8.596   6.577 -0.0291 -0.2052 -0.2401
23281W        W39355   1.536   0.242   0.037 -0.0746  0.0806  0.4196
23282W        W39356   7.073  16.109   5.163 -0.0212 -0.0394 -0.0606
23283W        W39357  16.276   6.955   0.114  0.0757 -0.0379  0.2234
23284W        W39358   3.489   7.187   0.087 -0.0973 -0.0606 -0.2141
23285W        W39359   9.581  12.703   2.852  0.0777  0.0923  0.0822
23286W        W39360  11.206   4.304   2.476  0.1132 -0.0280 -0.2421
23287W        W39361   3.758   0.669   5.074  0.0250  0.0983  0.0881
23288W        W39362   5.105  15.004   2.644  0.1204 -0.0356  0.2874
23289W        W39363   7.235   1.093  13.389 -0.0939 -0.1655  0.0568
23290W        W39364  13.988  10.033  13.395 -0.2202  0.0681 -0.1488
23291W        W39365   3.483   6.686  13.469  0.2148  0.5783  0.0257
23292W        W39366   6.429  15.296   3.122 -0.0307 -0.3026 -0.1486
23293W        W39367   4.310   2.081   5.142  0.1082  0.3261 -0.0248
23294W        W39368   4.951  16.288  15.865 -0.0383 -0.0323 -0.1992
23295W        W39369  12.317  15.247  12.551  0.2005 -0.1915  0.2619
23296W        W39370   1.674  14.126   1.295 -0.0081  0.3059  0.3311
23297W        W39371  11.380  13.185  15.747 -0.2732  0.1024 -0.2624
23298W        W39372  14.399   7.355   6.078 -0.0446 -0.1399  0.2402
23299W        W39373   9.783  10.769   1.186  0.1955  0.1027  0.1476
23300W        W39374  16.937   9.506  14.339  0.0734  0.0198 -0.1581
23301W        W39375   8.219  13.854   0.472 -0.0215  0.0601 -0.2112
23302W        W39376   8.023  13.551   2.156  0.4523 -0.2310 -0.0298
23303W        W39377  12.589  12.723   4.741  0.0324 -0.0122 -0.1946
23304W        W39378   0.119   0.326   2.029  0.1497  0.1983 -0.1135
23305W        W39379  17.137  13.951  15.897  0.0280 -0.1035 -0.3344
23306W        W39380  12.489   6.997  16.794  0.0568 -0.0373 -0.3984
23307W        W39381  10.210   4.124   4.312 -0.0858  0.1000  0.0528
23308W        W39382   1.296   3.153   5.295 -0.0432 -0.1069  0.1415
23309W        W39383   9.969   0.884   6.418 -0.3547 -0.0905 -0.1658
23310W        W39384  10.636  15.069  12.422  0.2302  0.0764  0.1142
23311W        W39385   7.347  13.709  12.379  0.1759  0.0200  0.1525
23312W        W39386  17.499   9.792   2.727  0.2295  0.3343  0.0354
23313W        W39387  12.857   0.455   3.572  0.0939 -0.1793  0.1786
23314W        W39388   3.437  13.125  15.797  0.0645  0.0992  0.0669
23315W        W39389   5.646   8.959   4.555  0.0440  0.0163 -0.0742
23316W        W39390  13.974   7.946   5.746 -0.0036  0.5294  0.1577
23317W        W39391  17.347   2.917  14.023  0.2085 -0.1045 -0.2076
23318W        W39392   2.270   0.318  11.933  0.1789 -0.1451 -0.0410
23319W        W39393   5.264  16.088  14.424 -0.1611  0.0081  0.0779
23320W        W39394   4.395  17.235  15.713  0.1005  0.2543  0.1096
23321W        W39395  12.607   2.672   5.417  0.0301 -0.0138  0.2367
23322W        W39396   8.889  14.763   1.954  0.0407 -0.1738  0.2714
23323W        W39397   1.621  16.229  14.770  0.0767  0.2104  0.2162
23324W        W39398   1.253  16.737   1.849 -0.1746  0.0319  0.0115
23325W        W39399   4.090   4.910  12.590 -0.2172 -0.1096  0.1878
23326W        W39400  10.870  14.702  12.004 -0.0148 -0.2309  0.1572
23327W        W39401   4.034   1.383  13.887 -0.1067  0.0778  0.0326
23328W        W39402   2.369  15.887   1.839  0.1253  0.3626 -0.0299
23329W        W39403   4.757  14.970   4.424 -0.2474  0.0390 -0.1282
23330W        W39404  13.901   0.809  14.639 -0.2496  0.0679 -0.2966
23331W        W39405   8.476  17.238  12.103  0.2664 -0.0616 -0.1489
23332W        W39406  11.134   7.089   0.245 -0.0677 -0.0801 -0.3157
23333W        W39407   2.722  13.775  13.488  0.2150 -0.1373  0.2642
23334W        W39408  15.434   5.460  15.550  0.0878 -0.0613 -0.1053
23335W        W39409   6.136  12.117  15.338  0.1324  0.0686 -0.2612
23336W        W39410  16.807  13.110   4.781 -0.1772  0.3073  0.1980
23337W        W39411  12.081   9.701   1.887  0.2435 -0.0211 -0.1142
23338W        W39412   8.260  13.594  14.970 -0.2735  0.1555  0.0204
23339W        W39413  10.404   3.937   5.303  0.3345 -0.0089 -0.2821
23340W        W39414  16.753  11.167  13.325  0.0420 -0.1154 -0.0675
23341W        W39415   1.418  14.998   2.882  0.1692 -0.0602 -0.2259
23342W        W39416   9.223   2.395   2.209 -0.2398  0.1866  0.3163
23343W        W39417  12.928  16.025  14.027  0.0844 -0.1479 -0.1955
23344W        W39418   0.258   3.553   0.650  0.1578 -0.1511  0.0141
23345W        W39419   4.191  10.730  12.103 -0.1365  0.1296 -0.1599
23346W        W39420   0.316   1.764  11.718  0.4044  0.2111 -0.1437
23347W        W39421   0.617  10.077   2.926  0.1219 -0.0593  0.0568
23348W        W39422   0.130   2.966  12.778  0.0977 -0.0196  0.0766
23349W        W39423   8.408  11.832  13.621  0.1941 -0.4813 -0.1005
23350W        W39424   5.178   8.184  16.167  0.1691  0.0642 -0.1057
23351W        W39425  16.849  10.606   0.259 -0.3261  0.2685 -0.2908
23352W        W39426  10.229  10.255   3.129 -0.2424  0.4020  0.0092
23353W        W39427   1.364  12.613  13.851  0.0005  0.0141 -0.2191
23354W        W39428   8.012  14.882   4.952 -0.0895  0.3552  0.0246
23355W        W39429   3.914  14.491   1.750  0.0941 -0.0744 -0.0441
23356W        W39430   9.713   8.061  17.159  0.1702 -0.2293  0.2577
23357W        W39431  16.617   9.647   1.005  0.1087 -0.1584  0.0260
23358W        W39432   4.346  14.731  12.685  0.2648 -0.2133  0.1596
23359W        W39433  10.467   0.461   5.097 -0.2351 -0.1484 -0.1764
23360W        W39434   6.236   5.825  12.865 -0.2824  0.0722  0.0918
23361W        W39435   4.094  14.319  14.251  0.2850 -0.3003  0.0068
23362W        W39436  10.008   9.839   3.286 -0.3442  0.3315  0.0294
23363W        W39437  15.655  16.130  13.358  0.2010 -0.0624  0.1632
23364W        W39438   2.844  15.182  16.899  0.1305  0.1426  0.0233
23365W        W39439  12.423  13.011   1.281  0.0802 -0.1250  0.0018
23366W        W39440   9.713  17.299   1.782 -0.0299  0.0724  0.1225
23367W        W39441   3.700  17.087  13.416  0.0541  0.2329 -0.0243
23368W        W39442  10.151  15.498  12.581  0.2601  0.2769  0.0797
23369W        W39443  13.895  14.888   0.689  0.0348 -0.3539  0.0649
23370W        W39444   0.644  13.876   3.479 -0.1498 -0.0957  0.2265
23371W        W39445   4.692  17.374   3.081 -0.3302  0.3254  0.0970
23372W        W39446   2.373  13.570  13.842  0.2012 -0.1527  0.0313
23373W        W39447  15.126  12.566   2.784 -0.0811 -0.1976 -0.0163
23374W        W39448   8.398  10.482  12.851  0.1621 -0.1880  0.1313
23375W        W39449  12.433   1.125  13.169 -0.2798  0.2196  0.0378
23376W        W39450  15.499  15.500  16.439 -0.1171  0.1650  0.1309
23377W        W39451   4.750   8.649   0.734  0.0229 -0.2309 -0.1809
23378W        W39452   8.398   1.088  15.318 -0.1463 -0.1329 -0.0934
23379W        W39453  14.317   5.931  13.520 -0.2449 -0.2856  0.0112
23380W        W39454  13.765  13.467  15.508 -0.0089  0.2265 -0.1178
23381W        W39455   9.379   1.773   2.650 -0.0479 -0.1078 -0.2120
23382W        W39456   5.137   6.955  16.617 -0.0420 -0.0347  0.0435
23383W        W39457   2.703   4.738   1.901  0.0529  0.1864 -0.2620
23384W        W39458   0.853   0.404  15.374 -0.1417 -0.3412 -0.2134
23385W        W39459   7.665   3.897  14.852 -0.1246  0.0421 -0.1409
23386W        W39460   1.467   7.556   2.812 -0.1814  0.0496  0.2804
23387W        W39461  15.489  14.851   1.465  0.0827 -0.1386 -0.0199
23388W        W39462   2.410  14.775   5.759 -0.1338 -0.0511 -0.0338
23389W        W39463   8.302  13.928  12.819 -0.0581 -0.2101  0.5397
23390W        W39464   8.067   5.816   1.252  0.3558 -0.0381 -0.0550
23391W        W39465  13.739   5.801   4.113  0.0451 -0.0557  0.2538
23392W        W39466  16.849  17.190   1.686 -0.0718 -0.2634 -0.0169
23393W        W39467  14.512   2.502   4.053 -0.2365  0.3017  0.1098
23394W        W39468  15.905   7.718  11.794  0.0809 -0.0924  0.2125
23395W        W39469  15.873  10.217   0.310 -0.1341 -0.0880  0.2768
23396W        W39470   9.929   3.024   1.363 -0.1396 -0.2066  0.3100
23397W        W39471   3.981  10.989   0.904  0.0932 -0.0086 -0.2665
23398W        W39472   2.612   3.030   6.533  0.2003  0.0899 -0.1696
23399W        W39473   6.673   2.757  15.035 -0.1329  0.0565  0.2536
23400W        W39474   1.754   0.102   2.515  0.1423  0.2850 -0.2740
23401W        W39475   2.229   5.741  15.726  0.1588 -0.2630 -0.0843
23402W        W39476   6.068  10.577  14.237 -0.2478  0.0468 -0.0673
23403W        W39477  17.520   5.778   4.908  0.1671 -0.1949  0.1102
23404W        W39478   8.981   7.408   4.178  0.1277  0.3078 -0.0992
23405W        W39479   6.722   3.690   2.970 -0.1499 -0.0880 -0.2234
23406W        W39480   1.562   7.870  12.892  0.0758  0.2302 -0.2803
23407W        W39481   1.690   0.333   1.488 -0.0248  0.4027  0.0550
23408W        W39482   7.508  11.746  15.404 -0.0674 -0.1959  0.1903
23409W        W39483   6.647  16.094   1.278 -0.0796 -0.0166 -0.2148
23410W        W39484  10.084   0.069   3.523  0.0447 -0.0126 -0.3058
23411W        W39485  14.259   7.340  11.913 -0.0970 -0.0167 -0.1522
23412W        W39486  12.470   0.181   4.718  0.1410 -0.1787 -0.3645
23413W        W39487  12.742   0.229   1.539  0.0289 -0.0320 -0.2223
23414W        W39488  12.171   7.693   3.286  0.1217 -0.1903  0.0110
23415W        W39489  15.325  11.378  13.698  0.1378  0.0784  0.2555
23416W        W39490  11.932  12.461  17.044 -0.2139 -0.0413  0.5389
23417W        W39491   5.503   1.681  11.829 -0.1705  0.1013  0.0424
23418W        W39492   9.779   4.886   4.441  0.1285 -0.0469 -0.1839
23419W        W39493  12.214   9.918   4.689 -0.0719 -0.0943  0.0217
23420W        W39494  15.673   2.708  15.615 -0.2447  0.0137  0.0585
23421W        W39495   7.169   1.482   5.763 -0.2401 -0.0323 -0.0757
23422W        W39496  15.365  12.293   1.661  0.0513 -0.3637 -0.2367
23423W        W39497  10.817  16.154  12.448 -0.0766 -0.0556 -0.3371
23424W        W39498  11.781  15.616   2.141  0.1345 -0.2858 -0.0068
23425W        W39499   9.686  15.568   5.220  0.0907 -0.0520 -0.3038
23426W        W39500   6.366  15.322   0.081 -0.2217 -0.0989  0.0642
23427W        W39501   4.780  16.341   2.957 -0.0210 -0.2181 -0.0703
23428W        W39502   6.546  10.306   0.624  0.1586  0.0430  0.0380
23429W        W39503   1.499   2.938   6.148 -0.1944 -0.5193 -0.0005
23430W        W39504   8.026   5.313  14.899 -0.1274  0.0324  0.3634
23431W        W39505   8.932   8.074  13.370  0.0648  0.0743  0.0707
23432W        W39506   5.840   9.493   3.033  0.1989 -0.3150  0.0218
23433W        W39507  16.062   3.402   5.985  0.1090 -0.0604  0.0529
23434W        W39508   2.151   8.747   2.250  0.1176 -0.1981  0.4111
23435W        W39509   6.118  12.066   2.088 -0.0850 -0.1839 -0.3645
23436W        W39510  16.158   1.859   1.926 -0.1847  0.1192 -0.1502
23437W        W39511   4.743   8.132  12.194 -0.0016  0.3549  0.0215
23438W        W39512   2.177   8.151   5.621  0.2781  0.0526  0.1811
23439W        W39513   8.445  16.709  15.084  0.0906 -0.5384  0.0871
23440W        W39514  11.376  15.147  14.981 -0.0682  0.1929  0.5074
23441W        W39515  12.274   4.011   3.453 -0.1122  0.1098  0.0559
23442W        W39516   2.565  12.062   0.915 -0.0389 -0.0793 -0.2816
23443W        W39517   5.510   0.407  14.023  0.0273  0.1707 -0.0716
23444W        W39518  12.837   3.739  17.134 -0.0674  0.0170 -0.1114
23445W        W39519  14.381  11.282   0.652  0.0361 -0.1841 -0.3063
23446W        W39520   6.183   1.637  13.024  0.2474 -0.3517  0.1850
23447W        W39521  17.368   9.842   1.611  0.0967  0.1432 -0.0312
23448W        W39522  12.249  10.190   1.007 -0.1182  0.0663  0.1768
23449W        W39523   1.110   4.500   5.454 -0.1761 -0.1238  0.3107
23450W        W39524  12.764   5.360  13.996 -0.1274 -0.1100 -0.0059
23451W        W39525   4.610  11.319   4.161 -0.0203  0.2094  0.0324
23452W        W39526  16.072   6.031   0.387 -0.3026 -0.1531  0.2495
23453W        W39527   7.209   3.997  15.784 -0.1321  0.2177  0.2151
23454W        W39528   8.370   5.765   2.131 -0.0691  0.0459 -0.0995
23455W        W39529  14.829  11.526   1.804  0.1034  0.1642  0.2625
23456W        W39530   7.430  11.154  16.497 -0.0367 -0.0534  0.0918
23457W        W39531   3.131   7.617   2.019  0.0296 -0.0338  0.1574
23458W        W39532   8.239  17.592   5.297  0.1377 -0.2934 -0.3843
23459W        W39533   4.768  13.761   6.137  0.2248  0.0193  0.4169
23460W        W39534  12.540  17.364  16.967  0.0420  0.3802  0.0505
23461W        W39535   8.134   2.409  16.658  0.3321  0.1700 -0.3513
23462W        W39536  11.685   7.570   1.373  0.1220 -0.1301  0.1091
23463W        W39537   0.069   4.537  16.026 -0.0269 -0.1751  0.0925
23464W        W39538  10.583  13.616  13.613  0.0771  0.2034 -0.3666
23465W        W39539   7.781  17.337  16.974 -0.4069 -0.0678 -0.4513
23466W        W39540   5.963  11.802  14.924  0.2090  0.0442 -0.0003
23467W        W39541  14.399  14.532   5.023 -0.2032 -0.2158 -0.1069
23468W        W39542   9.296   8.266   0.168  0.1544  0.3427  0.1944
23469W        W39543  12.152  16.649   4.297  0.0057 -0.2040  0.0778
23470W        W39544   4.532  16.691  11.935  0.4032  0.2495 -0.3056
23471W        W39545  14.452   6.143  12.910 -0.0672 -0.1652  0.0121
23472W        W39546   1.741   9.226   3.992 -0.0665 -0.0351 -0.0792
23473W        W39547  16.480   9.659  13.454  0.4236  0.2551 -0.0644
23474W        W39548   7.360   9.162   5.388 -0.1859 -0.1829 -0.2738
23475W        W39549   2.289  15.602  16.078 -0.1585  0.0222 -0.0924
23476W        W39550   0.238   6.119   1.884  0.1003 -0.0567  0.2204
23477W        W39551   5.092  12.737  17.046  0.0631  0.0099 -0.0737
23478W        W39552   7.984   2.744   2.388  0.1760  0.0987 -0.1848
23479W        W39553   3.333   1.264   1.522 -0.0137 -0.1732  0.0148
23480W        W39554   2.656   1.748   2.331  0.0853 -0.0827  0.0146
23481W        W39555   2.579   3.893  16.345 -0.1343  0.1700 -0.1446
23482W        W39556   8.334   7.349  15.448 -0.1131 -0.1973  0.1277
23483W        W39557  11.139   5.966   2.984  0.2599  0.1148  0.1044
23484W        W39558   4.730  12.922   1.030  0.0375  0.2577 -0.1431
23485W        W39559  14.459  15.717   0.255  0.2164  0.2469  0.1677
23486W        W39560  14.463  13.576  11.768  0.0416  0.1551  0.1188
23487W        W39561   0.386  14.636   0.623 -0.0824 -0.0642 -0.2302
23488W        W39562   2.675  12.221   6.068 -0.1375 -0.5067  0.0921
23489W        W39563   7.783   7.438  13.365  0.0599  0.0194 -0.3852
23490W        W39564  15.241   9.138  15.051 -0.1925 -0.3051 -0.0303
23491W        W39565   6.199  14.573   0.230 -0.1301 -0.0972 -0.0615
23492W        W39566   5.490   5.104  12.906 -0.0289 -0.0644 -0.1047
23493W        W39567   5.457  15.242  11.591  0.0865  0.3153  0.2042
23494W        W39568   1.028  10.688   4.182  0.0934  0.0100 -0.2780
23495W        W39569  10.258  10.194   0.792  0.2427  0.1518 -0.2242
23496W        W39570  15.921  13.001  13.074  0.2073  0.0549 -0.0335
23497W        W39571  13.249  14.325  14.354  0.0200  0.1174  0.2079
23498W        W39572   4.758   2.282   2.323  0.1678  0.0402  0.0489
23499W        W39573  17.104   1.417  16.230 -0.1434  0.1134 -0.0140
23500W        W39574   6.007  13.057  12.537  0.3306  0.0261 -0.1011
23501W        W39575   0.315  10.666   2.498 -0.1884 -0.0285  0.1782
23502W        W39576  15.391  15.311   2.002 -0.1049 -0.0658  0.2422
23503W        W39577  17.703   7.928   2.381 -0.1589  0.0245  0.0642
23504W        W39578   7.788  13.199  15.072 -0.2556  0.2756 -0.3214
23505W        W39579   0.176   7.357  11.686  0.1029 -0.1378  0.0861
23506W        W39580  14.684  13.603   4.819  0.0678  0.3416 -0.0248
23507W        W39581   7.178  11.693   4.331 -0.2658 -0.1954 -0.0862
23508W        W39582  10.674   1.524   3.282 -0.1435  0.1381  0.0413
23509W        W39583  13.182  11.431  14.954  0.0901 -0.2389 -0.1664
23510W        W39584  17.124  17.259   2.077  0.1533  0.0168 -0.2009
23511W        W39585   5.582   9.985   2.991  0.1582  0.1907 -0.0019
23512W        W39586  12.637  16.267   4.227 -0.2821  0.1685  0.0144
23513W        W39587  14.927  12.084  14.744 -0.1455  0.1044 -0.0720
23514W        W39588   5.212  17.600   3.453 -0.0024  0.2177  0.1367
23515W        W39589  13.969  11.403  15.822 -0.4568 -0.1958 -0.0309
23516W        W39590   4.036   0.957   2.134 -0.0865 -0.2508  0.3509
23517W        W39591  17.561   3.283  14.415 -0.0067 -0.0909  0.1504
23518W        W39592  16.377   2.932   0.313  0.4470  0.1534 -0.2470
23519W        W39593   1.158  14.209  15.844  0.2110 -0.1063  0.1717
23520W        W39594  14.014   1.091   0.482 -0.2431 -0.0098 -0.4106
23521W        W39595  12.463  16.343   1.279  0.0788  0.1419 -0.0759
23522W        W39596  13.244   0.837   3.856  0.1459  0.2550 -0.0997
23523W        W39597   9.849  13.369   4.015 -0.0374 -0.1822 -0.0649
23524W        W39598   4.186  12.287   3.398  0.1156  0.1801  0.0634
23525W        W39599   7.272   5.442   5.452  0.0415 -0.0124  0.1964
23526W        W39600   3.783  11.710   6.336  0.1836  0.0397  0.1210
23527W        W39601   6.344  14.175   4.907 -0.0072  0.2081  0.1832
23528W        W39602  12.291  11.769   4.560  0.0478 -0.2155  0.0381
23529W        W39603   3.774   9.675   1.327 -0.0374 -0.0539 -0.0496
23530W        W39604  12.915   4.054   5.547  0.0757 -0.1609  0.0173
23531W        W39605  15.607   3.525   3.046  0.1035  0.1032  0.3048
23532W        W39606   4.626  12.047   3.578 -0.0876  0.1127 -0.1699
23533W        W39607   4.672   4.574   1.176  0.2262 -0.1893 -0.0112
23534W        W39608  17.252   7.515   0.867 -0.1542 -0.3334 -0.1364
23535W        W39609  11.744   4.902   5.934  0.0590  0.0372 -0.0238
23536W        W39610  15.271   9.987   3.972  0.0403 -0.0067  0.1158
23537W        W39611   6.446  10.829   1.860  0.1082  0.0561  0.1422
23538W        W39612  10.389   6.771   1.782  0.0386  0.1823  0.0278
23539W        W39613  16.949  17.106   0.202 -0.0063 -0.0836 -0.2875
23540W        W39614  12.856  15.562  14.306 -0.0731  0.2276  0.1872
23541W        W39615   2.902  13.408  13.067  0.4192  0.2945  0.1184
23542W        W39616   0.811  12.406  16.000 -0.0706  0.3184 -0.4101
23543W        W39617   7.847   9.921   2.353  0.0288 -0.1027  0.1297
23544W        W39618   6.084   6.394  15.968 -0.0872  0.1417  0.2409
23545W        W39619  17.491  14.032   5.627  0.1276  0.1170 -0.0570
23546W        W39620  10.754  12.169  13.167 -0.4080 -0.1667 -0.0050
23547W        W39621   9.905   9.741  13.326 -0.2845  0.1937 -0.3743
23548W        W39622   9.543  14.858   4.233  0.2715  0.1892 -0.1784
23549W        W39623   5.814  14.649  16.679  0.0848  0.0334  0.1986
23550W        W39624   7.570   5.071   3.469 -0.0356  0.1367  0.3153
23551W        W39625   0.619   8.790  16.297 -0.1000 -0.1475  0.0631
23552W        W39626   9.986   2.443  12.136 -0.1978  0.0326  0.2451
23553W        W39627  16.477   7.651  11.634  0.1690  0.0745 -0.2696
23554W        W39628   0.997  14.410  13.845  0.3065  0.0249  0.0906
23555W        W39629   7.910  12.645  14.995 -0.1501  0.0942  0.1266
23556W        W39630   6.216  14.962  15.362  0.0544 -0.1572  0.1702
23557W        W39631  13.836  11.983   5.398 -0.1034 -0.1244 -0.1986
23558W        W39632  10.323  16.023  12.487  0.1128 -0.0933  0.3190
23559W        W39633   8.939  13.121  13.351 -0.0378  0.3911  0.1251
23560W        W39634  14.541  14.164  12.789  0.0161 -0.2429 -0.1489
23561W        W39635  10.853  16.888  12.485 -0.0514 -0.0296 -0.1119
23562W        W39636   0.609  14.754   2.764  0.1571 -0.3382  0.3695
23563W        W39637   3.643  17.077  14.989  0.3104 -0.5498  0.1148
23564W        W39638   5.795   9.314   4.930  0.1605  0.1161 -0.0111
23565W        W39639   7.397   6.336   5.462  0.0927  0.0369 -0.3233
23566W        W39640   8.516  17.156   0.371  0.0245 -0.0735  0.2283
23567W        W39641   5.980  17.282  15.240 -0.2230 -0.2735 -0.1099
23568W        W39642  13.219  12.696  16.797  0.2819  0.1366 -0.0838
23569W        W39643   6.131  12.477  16.271  0.0481  0.2172  0.0881
23570W        W39644   2.564  12.777  12.451  0.0133  0.2224  0.1296
23571W        W39645   6.403   3.819  16.157 -0.1137 -0.0368  0.1946
23572W        W39646   4.550   4.085   5.115 -0.2674  0.1730  0.0296
23573W        W39647   9.115   5.270   1.127  0.0624 -0.0973  0.0665
23574W        W39648   0.708  16.580  16.274  0.0238 -0.1382 -0.0470
23575W        W39649  10.852  12.943  14.778  0.2616  0.4669  0.0396
23576W        W39650   3.481   2.817  13.089 -0.0249  0.2675 -0.1653
23577W        W39651  15.908  11.483  11.856 -0.0626  0.0031  0.0977
23578W        W39652   5.541   4.801   2.875  0.3316 -0.1362  0.0358
23579W        W39653   6.693   6.916  15.527 -0.1419  0.2178  0.2127
23580W        W39654  16.682  16.496  15.701  0.0402 -0.0960 -0.0697
23581W        W39655  11.645  17.145  13.596  0.1986 -0.1456  0.1290
23582W        W39656  16.037   0.071   3.327 -0.0896 -0.4284  0.0837
23583W        W39657   6.850   0.311  13.802  0.3190 -0.1994 -0.0706
23584W        W39658   7.227  15.341   2.822 -0.2116  0.0088 -0.1886
23585W        W39659  15.205   1.959  16.753  0.0929  0.2403  0.0357
23586W        W39660  15.994   3.219   1.959 -0.2694  0.0123 -0.3785
23587W        W39661  15.742   5.765  14.751 -0.0697 -0.0236 -0.2049
23588W        W39662  15.301  15.993  13.816  0.0657 -0.1288 -0.3572
23589W        W39663  13.790   7.180  16.359 -0.0827  0.2216  0.0212
23590W        W39664  15.502   3.806  16.420 -0.0226 -0.0477  0.0327
23591W        W39665  12.459  11.941   5.443  0.0957  0.1097  0.1124
23592W        W39666   9.484  10.768  13.832  0.0361  0.0139  0.1048
23593W        W39667   4.733   4.645  15.078  0.2077  0.1566 -0.0636
23594W        W39668  15.500  17.537  14.441 -0.0229 -0.0763 -0.0375
23595W        W39669  11.238  16.270  14.994  0.0881 -0.0447 -0.3568
23596W        W39670   2.388   2.976   3.138  0.0970  0.2949 -0.0686
23597W        W39671   9.948   1.609  13.888  0.2531  0.3045 -0.0691
23598W        W39672  12.162   8.906   2.609  0.2772 -0.2020 -0.2705
23599W        W39673   6.000  10.239  14.576  0.2959  0.0451 -0.4500
23600W        W39674   0.277  13.068   5.387 -0.4068  0.1946 -0.1265
23601W        W39675   0.028   8.317  12.707  0.1394  0.1509 -0.1262
23602W        W39676   5.974   4.835  12.773  0.0175 -0.0651 -0.1019
23603W        W39677  11.960  17.168   0.378  0.3300 -0.1938 -0.1876
23604W        W39678   1.392   3.992   0.655  0.1135  0.3143 -0.0585
23605W        W39679   4.146   7.542   2.920 -0.3533 -0.2098  0.0894
23606W        W39680   8.750   9.506   0.526 -0.1608 -0.1239  0.0661
23607W        W39681   8.824  15.355  13.192  0.1288  0.1736  0.0712
23608W        W39682   2.747  10.801  14.352  0.0047  0.1961 -0.0236
23609W        W39683   9.322   4.550  15.931  0.1590 -0.0580  0.0576
23610W        W39684  14.157  12.207  14.635 -0.1600 -0.1545  0.2095
23611W        W39685   9.575   3.539   2.275  0.0218  0.0195 -0.1785
23612W        W39686   9.156   9.215  15.589 -0.0192  0.0497  0.2618
23613W        W39687   5.684   6.429  16.296  0.0322  0.1147  0.1703
23614W        W39688  11.206   7.640   2.460  0.0149  0.0406  0.0965
23615W        W39689   5.649  17.660  14.119  0.1974 -0.4210  0.0307
23616W        W39690   6.359   6.076   4.765 -0.1232 -0.0061 -0.1279
23617W        W39691  13.517   8.007   3.618 -0.0163  0.0546  0.1359
23618W        W39692   5.011   8.377   5.299 -0.1234  0.0975 -0.0269
23619W        W39693  12.157  11.836  11.981  0.2490 -0.0888 -0.3972
23620W        W39694  13.299   8.615  15.287  0.1482  0.2936 -0.1399
23621W        W39695   8.054  11.771  14.016  0.2422 -0.1566 -0.0576
23622W        W39696  10.260   7.029   0.925  0.1293  0.0722  0.1327
23623W        W39697  16.309   6.351  15.098 -0.2502  0.2121  0.0037
23624W        W39698   9.441  13.960  16.413 -0.0275 -0.1864  0.0182
23625W        W39699  14.936  14.817   5.152 -0.2477 -0.2218  0.0804
23626W        W39700   1.266   0.878  12.039 -0.3220  0.0824  0.2337
23627W        W39701   0.061   6.900   4.969 -0.0327  0.1334 -0.1643
23628W        W39702  17.199  10.261  15.169  0.0170  0.0493 -0.2834
23629W        W39703  12.494  11.643   4.132  0.2462 -0.1200 -0.1348
23630W        W39704   6.428   3.566  14.458 -0.0533  0.3446  0.0601
23631W        W39705   5.481   8.244   5.132  0.0819 -0.4041 -0.3148
23632W        W39706  12.181  17.420  14.923 -0.2801 -0.1966 -0.0070
23633W        W39707  13.222  15.598   0.064 -0.2025  0.1012  0.1086
23634W        W39708   3.423  10.664   0.362  0.1217  0.2154  0.0825
23635W        W39709  13.198   0.073   5.203  0.2113  0.1019  0.0672
23636W        W39710  15.008   1.088  15.662  0.0496  0.0416 -0.0928
23637W        W39711   6.844  17.072  13.633  0.1646 -0.2535 -0.2914
23638W        W39712   3.714   4.165   5.978  0.1718 -0.1367 -0.1691
23639W        W39713  10.346   5.404   3.200  0.2990  0.1249  0.1340
23640W        W39714   4.177   5.262  11.736  0.0509  0.1887  0.2773
23641W        W39715   6.679  10.128  16.123 -0.0275 -0.2134  0.0942
23642W        W39716   3.276  16.337   2.012 -0.0348 -0.2791 -0.1650
23643W        W39717   8.758   2.008   0.044  0.0108  0.3261 -0.4819
23644W        W39718  13.863   8.151  15.893  0.0557  0.4448 -0.5212
23645W        W39719  14.373  15.736   0.767  0.1362 -0.0280  0.0853
23646W        W39720   6.597   8.422  16.865 -0.1445 -0.1398  0.0576
23647W        W39721  14.793  12.618   3.622  0.0807 -0.2585  0.1242
23648W        W39722   6.460  10.039  13.376  0.1465 -0.1073  0.1863
23649W        W39723   9.405   7.811  13.542 -0.0481  0.4991 -0.0084
23650W        W39724  16.395  15.705   5.636  0.2551 -0.1329 -0.0264
23651W        W39725   0.670  10.396  15.799  0.0318 -0.0547  0.2817
23652W        W39726   1.323   2.746  15.327  0.1248  0.3728 -0.1089
23653W        W39727   2.308  11.739   0.094  0.1755 -0.1954 -0.0498
23654W        W39728   6.033   0.881  12.493  0.0519 -0.3490  0.3494
23655W        W39729   4.186   5.411  13.063 -0.3127 -0.0499  0.0176
23656W        W39730  11.678  12.618   0.421 -0.1883  0.0580  0.1386
23657W        W39731   0.246   1.313   5.650 -0.1699  0.0253 -0.0271
23658W        W39732  14.922   7.837   0.680  0.0844  0.0521  0.0081
23659W        W39733  14.288   5.947   1.579 -0.0004 -0.0420  0.0911
23660W        W39734  12.580   8.203  15.783  0.0391  0.0625 -0.1928
23661W        W39735  11.951   5.071  14.704 -0.0380  0.2592  0.3860
23662W        W39736   4.256   6.378  13.906 -0.1732  0.0991  0.2170
23663W        W39737  14.958   5.521  13.346 -0.2345 -0.1433 -0.1028
23664W        W39738  17.137   8.060   3.504 -0.2351 -0.0033 -0.0158
23665W        W39739   7.750   8.085   0.254 -0.4266 -0.0291  0.3342
23666W        W39740  14.653   3.031  12.395 -0.2062 -0.2773  0.1208
23667W        W39741  11.660   0.124   4.453  0.0109  0.1898  0.0033
23668W        W39742   3.653   3.422  15.249 -0.0951 -0.0102 -0.0957
23669W        W39743  11.803   6.255  12.756  0.2794 -0.2124 -0.0216
23670W        W39744   0.350   6.894  16.130 -0.1193  0.0437  0.0596
23671W        W39745  13.517  10.388   1.312 -0.0028 -0.1464 -0.0708
23672W        W39746   1.080   6.196   3.453 -0.1527 -0.1228  0.1369
23673W        W39747  10.513  12.501   4.096  0.3050 -0.2232  0.0666
23674W        W39748   9.772  12.600   4.837  0.2048  0.1956  0.1997
23675W        W39749  16.768  15.524  16.817 -0.0814 -0.1089 -0.1134
23676W        W39750   7.401  16.836  16.362  0.1156 -0.0150 -0.1922
23677W        W39751   0.460  12.844  14.444 -0.0796  0.2703  0.2593
23678W        W39752   1.115  11.249   4.631  0.0328  0.0573  0.0625
23679W        W39753  16.819  12.042   0.554  0.1140 -0.0652  0.1900
23680W        W39754  13.002   4.373  15.856 -0.2693  0.2317 -0.1608
23681W        W39755  13.290   0.677  16.547 -0.0068  0.3293 -0.1771
23682W        W39756   7.278  14.669   2.395 -0.0779  0.2143  0.0296
23683W        W39757  14.017  13.198  14.019 -0.0887  0.1291  0.0676
23684W        W39758   7.866   5.447  13.153  0.0591  0.1996  0.3713
23685W        W39759   7.598  16.545   2.238  0.0522 -0.0463  0.0282
23686W        W39760  12.158   9.527  14.605  0.0898  0.1062 -0.0216
23687W        W39761   2.308  11.980   5.461  0.1127  0.0561 -0.1791
23688W        W39762   6.189   6.553   3.056  0.1690 -0.3911  0.0964
23689W        W39763  16.749   1.258   4.966 -0.2579 -0.0864  0.1055
23690W        W39764   1.729  16.920   3.508 -0.1951  0.3201  0.1554
23691W        W39765   2.029  14.302   0.322  0.1702 -0.0935 -0.1509
23692W        W39766  13.482  16.920   5.281  0.1122 -0.3172  0.1548
23693W        W39767   7.654  12.096  12.290  0.1347 -0.1297 -0.0795
23694W        W39768   2.143  15.582  16.870  0.0126  0.1592 -0.2641
23695W        W39769   1.278   1.447   5.115  0.0579  0.0985 -0.4436
23696W        W39770  13.859   0.052   3.383 -0.3466 -0.0980  0.0807
23697W        W39771  12.208  11.105  16.144 -0.0432 -0.0311  0.1934
23698W        W39772  16.044   8.081  13.352 -0.2213  0.0036  0.0777
23699W        W39773   5.163  12.421  16.066 -0.1001 -0.1135  0.1759
23700W        W39774  10.107   5.898  14.749 -0.0944 -0.2813  0.0273
23701W        W39775   0.704  12.568   2.134 -0.0169  0.0903  0.2885
23702W        W39776   0.020   6.159  15.393  0.0136  0.2375  0.0781
23703W        W39777  15.603   7.129  13.442 -0.1276 -0.0640  0.1384
23704W        W39778   1.972  15.894   2.635 -0.2129  0.0568 -0.0857
23705W        W39779   2.114  14.570  14.452  0.0439  0.0667 -0.1077
23706W        W39780  16.289  16.977  14.328 -0.2395  0.0458 -0.1867
23707W        W39781   1.049  12.140   5.750  0.0944 -0.2779  0.1935
23708W        W39782  15.761   1.186  15.125 -0.1750 -0.3012 -0.3118
23709W        W39783   6.404  16.392   5.271  0.1193 -0.2070 -0.1087
23710W        W39784  17.340   3.590   4.381 -0.0866 -0.1601  0.0981
23711W        W39785   3.310   5.123   2.861 -0.0236 -0.0141 -0.1539
23712W        W39786   6.682   4.740   3.857 -0.1574 -0.0286  0.1399
23713W        W39787  10.191   3.140   4.842 -0.2695  0.1189  0.2009
23714W        W39788  17.393  14.261   4.767 -0.1830 -0.2530 -0.2364
23715W        W39789   8.669  15.682   1.812  0.2212  0.0422  0.2295
23716W        W39790  17.466   6.170  16.798 -0.1946 -0.2922 -0.1899
23717W        W39791   5.966   5.945  12.069  0.0584  0.0037  0.0904
23718W        W39792   5.444  14.852  14.023 -0.2483  0.1858  0.0983
23719W        W39793   2.866   6.472   3.456  0.0370  0.0015  0.1365
23720W        W39794  11.191  14.352  12.060 -0.1977 -0.0220  0.0580
23721W        W39795   0.738  13.800  15.545  0.0302 -0.2495  0.2271
23722W        W39796   3.263   8.705   4.127 -0.0599  0.1271  0.1816
23723W        W39797  17.402   8.167  16.214  0.0591  0.1052  0.0411
23724W        W39798   7.854   4.698  16.486 -0.0745 -0.0525  0.1301
23725W        W39799   6.651  11.613   4.354 -0.2952 -0.1997 -0.0552
23726W        W39800  15.546   0.290   2.009  0.0920  0.1324  0.1385
23727W        W39801   7.620  17.350   1.428 -0.2209  0.1296  0.3521
23728W        W39802  15.426   5.322   0.845  0.1290 -0.0006 -0.1222
23729W        W39803  10.550  12.121   1.682  0.4391 -0.1111 -0.0713
23730W        W39804   3.528  13.029  16.351 -0.1340  0.1051  0.1893
23731W        W39805   6.503  14.507   2.378  0.0481  0.0323 -0.0961
23732W        W39806   2.869   3.614  12.205  0.3742  0.2184  0.0921
23733W        W39807   0.883  15.581  11.885 -0.0578  0.2077 -0.3168
23734W        W39808  13.338  14.570  17.125  0.2170  0.0452 -0.2330
23735W        W39809  14.013   9.723  13.914 -0.1406  0.0724  0.2374
23736W        W39810   7.139  17.348  13.301  0.1323  0.1664  0.2822
23737W        W39811  11.619   0.975  15.748 -0.1706 -0.0069  0.1748
23738W        W39812  12.063  15.081  13.391 -0.0705  0.1052  0.2996
23739W        W39813   2.767  11.817  13.313  0.2985  0.3973 -0.0716
23740W        W39814   9.953   8.098  15.764 -0.1186  0.0937 -0.2325
23741W        W39815  10.607   2.588  11.545 -0.0471 -0.3272  0.3395
23742W        W39816   1.996   8.660   6.394  0.1236  0.1885  0.0525
23743W        W39817   6.118  11.074  16.681  0.0013  0.1658 -0.1165
23744W        W39818   1.138   6.137  15.874  0.0408 -0.0418 -0.2466
23745W        W39819  17.385   1.255   0.263 -0.1227 -0.0079  0.0177
23746W        W39820  15.032   1.262   5.848  0.0240 -0.0422 -0.3485
23747W        W39821   3.020   7.885  12.962  0.0066  0.3183 -0.0775
23748W        W39822   5.440   1.575   3.342  0.1916  0.1436  0.3487
23749W        W39823   2.767   9.603   6.345  0.0561  0.1148  0.1105
23750W        W39824  12.683   3.808  12.132 -0.2044 -0.1414  0.2480
23751W        W39825  11.216   1.299   2.105  0.0901 -0.2047  0.2624
23752W        W39826   5.549   0.834  12.761  0.0595  0.2368  0.0014
23753W        W39827   6.396  13.873   1.060  0.0450 -0.0979 -0.3241
23754W        W39828   7.625   5.912   2.214 -0.0274 -0.1541 -0.1204
23755W        W39829  11.564  16.673  12.713  0.0357  0.2270  0.0632
23756W        W39830   6.218  13.478  12.661  0.2864 -0.1398 -0.2755
23757W        W39831   0.213  15.812  15.867  0.1272  0.1664 -0.0894
23758W        W39832   8.448   0.389  16.591 -0.2425  0.0587  0.0774
23759W        W39833  16.358   2.573   3.686 -0.0229 -0.2066 -0.1151
23760W        W39834  14.093  17.159  10.743 -0.1674  0.2132  0.1168
23761W        W39835  11.103  10.130   5.436  0.1700  0.0690 -0.0865
23762W        W39836   0.635   7.415   3.670 -0.0085 -0.1233 -0.0353
23763W        W39837   4.227  17.364   5.871  0.0531  0.2837  0.0052
23764W        W39838   6.528   6.565  16.568 -0.1738  0.0279  0.0596
23765W        W39839   6.010   7.341   3.816  0.0387 -0.1539 -0.0519
23766W        W39840   4.390   0.097   0.434  0.1292  0.1370 -0.0817
23767W        W39841  16.079   7.982   1.543  0.0439  0.0323 -0.2473
23768W        W39842  12.433   5.527   5.309 -0.1854 -0.1443 -0.0449
23769W        W39843   9.517   2.245   5.474  0.0158 -0.2830 -0.1088
23770W        W39844   0.487  14.055  16.562 -0.2514 -0.0171 -0.0343
23771W        W39845   1.241  14.019   3.268  0.2453  0.0372 -0.1046
23772W        W39846   3.365   8.892   0.195  0.1020  0.2260 -0.0350
23773W        W39847   2.919   2.510   5.652  0.2860 -0.0910  0.0602
23774W        W39848   1.443  14.672  11.932  0.1204  0.2538 -0.0964
23775W        W39849  16.525   6.399   4.707 -0.2074  0.0041  0.1576
23776W        W39850   0.597  15.768  16.877  0.2626  0.2966  0.1432
23777W        W39851   2.172   6.851   1.104  0.1171 -0.1573 -0.1068
23778W        W39852   8.204   7.758   0.321  0.2182  0.0996 -0.0466
23779W        W39853   8.243   5.422   2.733  0.0850  0.1804  0.0983
23780W        W39854  16.059   2.625   0.063 -0.2385  0.4393  0.0775
23781W        W39855   6.338  13.059   6.352  0.1733 -0.0268  0.0550
23782W        W39856   3.866  14.905   0.970 -0.3863 -0.1489 -0.2415
23783W        W39857  11.168   0.737  12.015  0.3267  0.0457 -0.0478
23784W        W39858  11.655   8.465  11.638 -0.0598  0.0806 -0.1497
23785W        W39859  17.599  16.727  15.536 -0.0564 -0.0344 -0.1289
23786W        W39860   8.987  17.319  14.716  0.0207 -0.2255 -0.0064
23787W        W39861  15.038  15.449  12.066 -0.1149  0.0542  0.0290
23788W        W39862   7.134   1.223   3.474  0.0107  0.1156 -0.1640
23789W        W39863  11.339  16.157   1.463  0.0120 -0.0647 -0.2638
23790W        W39864   6.883   3.227  13.317  0.0042 -0.2068  0.0953
23791W        W39865  11.356   6.998  11.721  0.2585  0.1858  0.1739
23792W        W39866   2.841   8.388   0.376 -0.0885  0.0996 -0.0523
23793W        W39867  14.745   7.234  13.946 -0.0460 -0.0812  0.2101
23794W        W39868  12.755   2.830   4.538 -0.0277  0.1594 -0.0698
23795W        W39869  16.714  16.316  16.395  0.0221  0.4284 -0.0115
23796W        W39870  14.027  15.475   4.753 -0.1320  0.0835  0.1055
23797W        W39871  16.583   1.764  15.410  0.0286  0.0860  0.4209
23798W        W39872   5.085   9.813  14.329  0.1987  0.1668  0.1774
23799W        W39873   7.878  10.820   3.284 -0.1032 -0.1579 -0.0715
23800W        W39874   2.730   9.522  15.045 -0.1762 -0.0730  0.1937
23801W        W39875   4.894  11.496   2.330  0.1086 -0.0685  0.1878
23802W        W39876   3.904   4.166  12.979 -0.1722 -0.0827  0.0647
23803W        W39877   2.229   1.392  13.913  0.1657  0.2967  0.0378
23804W        W39878   2.941   0.774   3.068  0.0361 -0.1975 -0.2346
23805W        W39879   7.835   6.113  16.690  0.0319 -0.1521 -0.0710
23806W        W39880  16.930   3.652   5.167  0.3216  0.1556  0.1559
23807W        W39881   5.376   1.139  15.160 -0.0401  0.2968  0.2782
23808W        W39882   2.666   8.302   3.057  0.0609  0.1120 -0.1622
23809W        W39883   0.030   1.141   0.850 -0.1643  0.0505 -0.2716
23810W        W39884   5.266  10.884   4.525 -0.3845  0.2315 -0.0237
23811W        W39885  17.114   5.088   4.135 -0.4483  0.0873 -0.0343
23812W        W39886  13.940   7.638  15.899  0.1916 -0.2896  0.0899
23813W        W39887  16.143  11.209  10.437  0.0669  0.2444  0.0655
23814W        W39888  13.787   8.894  15.494  0.1928  0.6512  0.3261
23815W        W39889   8.941   4.630  13.247 -0.3774  0.0670 -0.0916
23816W        W39890  14.543   0.159   6.763 -0.0436  0.0167  0.1183
23817W        W39891   5.751   9.698   2.242  0.0395 -0.2738  0.2405
23818W        W39892  13.215   9.288   1.636 -0.3049 -0.0920 -0.0071
23819W        W39893   5.206  16.013   1.571 -0.1523  0.1843 -0.2251
23820W        W39894   7.836  13.994  15.747 -0.0254  0.1725 -0.2282
23821W        W39895  12.300   0.216  12.613 -0.1465 -0.2100 -0.1479
23822W        W39896  16.946   9.916  12.809 -0.2188  0.0668  0.1853
23823W        W39897  11.918   7.083   4.162  0.1259 -0.2170  0.0027
23824W        W39898  14.177   8.157  13.920 -0.2879 -0.0181 -0.5861
23825W        W39899  11.824   2.318  16.682 -0.0714 -0.1692 -0.1361
23826W        W39900   9.083   6.559   4.698  0.0727 -0.1387  0.0974
23827W        W39901  15.205   9.690   4.958 -0.1638  0.2340 -0.1321
23828W        W39902  16.898  11.266   5.143  0.0977 -0.0023 -0.0576
23829W        W39903  11.676  15.180   5.952  0.2147 -0.0482 -0.0208
23830W        W39904  12.309  17.649  11.879  0.2468 -0.0612 -0.0073
23831W        W39905  11.758  12.709   1.818  0.0125 -0.0963 -0.1718
23832W        W39906   5.726   9.841  15.414  0.5434  0.0640  0.1719
23833W        W39907   0.000   9.076   5.955 -0.0283 -0.1789  0.4284
23834W        W39908   2.654  13.959  15.256  0.1360  0.0193 -0.3042
23835W        W39909   1.107  12.746  11.892  0.4159  0.1806 -0.0317
23836W        W39910  11.321  13.274   0.704  0.0348  0.1344  0.1408
23837W        W39911   1.382   0.668  15.302 -0.3280  0.1711  0.1826
23838W        W39912  15.864   3.781  12.382  0.2752 -0.0453  0.2646
23839W        W39913   4.216  11.437  12.995  0.2720 -0.1648 -0.3293
23840W        W39914  13.704  12.147  13.967 -0.0295 -0.1009  0.0260
23841W        W39915  12.800   7.278   2.478 -0.0185 -0.0232  0.0278
23842W        W39916  15.761   0.787  12.012  0.2697  0.3218 -0.0937
23843W        W39917  16.339   9.232   3.390 -0.1373 -0.1263 -0.0470
23844W        W39918  14.436  17.531  12.003 -0.0012  0.1620  0.0284
23845W        W39919   2.790   5.731   1.425  0.4194  0.1401  0.0966
23846W        W39920  10.582   2.051   0.654 -0.2633 -0.4243 -0.2724
23847W        W39921   1.943   3.379   5.427 -0.3794  0.0427  0.3095
23848W        W39922   5.640   3.020   1.091 -0.0103  0.0347  0.3325
23849W        W39923   2.647   2.740  16.779  0.1276  0.1355  0.1735
23850W        W39924   0.275  14.679   1.156  0.0744  0.1059 -0.1949
23851W        W39925   4.725  15.045   3.463  0.1425  0.2094 -0.1347
23852W        W39926  13.507  17.166  11.942 -0.1088 -0.0408  0.1223
23853W        W39927  11.015  14.074   1.309 -0.3039 -0.5433 -0.0853
23854W        W39928   6.107  17.556  14.013 -0.1105 -0.1466  0.1576
23855W        W39929  15.512   6.368   2.194  0.2709 -0.0632  0.0865
23856W        W39930   4.559  14.156   6.332 -0.1465  0.0001 -0.0960
23857W        W39931  17.353   8.955   5.136  0.1608 -0.0436 -0.1999
23858W        W39932   1.223   8.491   3.078  0.0679  0.1017  0.0008
23859W        W39933  13.938  16.698   3.483  0.0904 -0.1020  0.3312
23860W        W39934   4.800   6.544   4.622 -0.0687 -0.0907 -0.2809
23861W        W39935   5.994   8.458   0.926 -0.3604 -0.2609 -0.2653
23862W        W39936  11.537  17.028   2.898  0.0016 -0.1315 -0.1080
23863W        W39937   4.801  12.377  15.542 -0.2088  0.2803 -0.0188
23864W        W39938   0.961  17.661   1.280  0.1412  0.0639  0.0580
23865W        W39939   4.444  12.821   4.923  0.0326 -0.1655  0.1391
23866W        W39940   9.968   6.553  14.727 -0.0257 -0.2716  0.0049
23867W        W39941   7.460   4.456   5.247 -0.1742 -0.1032 -0.3523
23868W        W39942  10.388   0.012   2.745 -0.0776 -0.1995  0.3244
23869W        W39943  11.838   8.845  16.581  0.1209 -0.2979  0.1519
23870W        W39944   2.345   6.170  11.726  0.0487 -0.0640  0.2091
23871W        W39945   9.983   9.000   0.009 -0.1704 -0.2651 -0.0482
23872W        W39946  15.769  15.277  15.354  0.2026  0.0864  0.1909
23873W        W39947  10.935  14.916  12.803 -0.1304 -0.1235 -0.1345
23874W        W39948  17.173  14.718   3.972  0.1140 -0.1984 -0.0743
23875W        W39949   8.026  10.273   5.275 -0.0158 -0.2133  0.1541
23876W        W39950   4.531   1.044   4.140 -0.0655 -0.3429  0.3097
23877W        W39951   5.385   5.348  14.950  0.2612 -0.0476 -0.1852
23878W        W39952   0.348   3.217   4.507 -0.1222  0.0730  0.2661
23879W        W39953  13.121  12.819  14.906 -0.1446  0.1304 -0.0636
23880W        W39954  13.286  13.801  14.665  0.0003 -0.1535  0.1751
23881W        W39955   5.746   5.342   2.852 -0.1225 -0.1658  0.0752
23882W        W39956  12.735  15.518   4.662 -0.1419  0.1036  0.1303
23883W        W39957   7.687   6.988   1.328 -0.0795  0.1884  0.1661
23884W        W39958   3.469   8.172  14.194  0.0200 -0.0961  0.1011
23885W        W39959   7.541   3.552   2.162  0.1318  0.1717 -0.0188
23886W        W39960   7.706  15.184  13.868 -0.1399 -0.4544 -0.2930
23887W        W39961   4.146  13.694   0.303  0.0942 -0.0383 -0.1902
23888W        W39962  14.474  13.195  14.735 -0.0106  0.0883 -0.0323
23889W        W39963  14.951   8.941   5.354 -0.1392  0.0012  0.0485
23890W        W39964   1.030   5.767   4.873  0.2778  0.0071 -0.0020
23891W        W39965   0.601   7.745  10.852  0.3206  0.0566 -0.1409
23892W        W39966   8.073  13.396  12.420  0.3497  0.2019  0.2500
23893W        W39967  11.219   9.939  12.457  0.1234  0.2174  0.0181
23894W        W39968   1.347   6.117  11.506  0.3964  0.2286  0.3332
23895W        W39969   0.301   6.020   3.631  0.2923 -0.1469  0.2335
23896W        W39970  11.872  13.544   3.226 -0.0763 -0.3412 -0.0791
23897W        W39971  13.967  16.173   2.100 -0.0129  0.0868 -0.0570
23898W        W39972  12.841  11.141  12.185  0.5922 -0.0752  0.1637
23899W        W39973   6.095   8.348  12.195  0.0353  0.0307 -0.0570
23900W        W39974  16.191  11.677  13.947 -0.0799  0.1131 -0.0309
23901W        W39975  16.878   4.412  14.946  0.0982 -0.2203 -0.1870
23902W        W39976   9.300  17.607  13.626 -0.1117  0.0198  0.0267
23903W        W39977   4.917  13.804  13.387 -0.2994 -0.0488 -0.3147
23904W        W39978  10.482   7.509  14.949  0.3068 -0.1384 -0.0513
23905W        W39979   0.662   3.805  16.694 -0.2468 -0.4846  0.3434
23906W        W39980   3.157   3.372  14.660 -0.0277 -0.0356  0.1428
23907W        W39981  11.406   5.159  15.244 -0.1747  0.2153  0.1169
23908W        W39982  15.183  12.972   2.368  0.2394 -0.3296  0.3270
23909W        W39983  13.318  10.760  17.136 -0.2118 -0.2681  0.1757
23910W        W39984  14.873  10.797  11.620  0.2101  0.1176  0.3528
23911W        W39985  16.506   5.473   4.861  0.3203  0.0227 -0.0063
23912W        W39986   8.854  10.486   0.487 -0.0978 -0.2317 -0.0010
23913W        W39987   1.354  12.818   3.955  0.0719 -0.0355  0.2035
23914W        W39988  13.524   2.333  16.948  0.0147  0.3216 -0.2264
23915W        W39989   6.498   6.733  14.117  0.1720 -0.1566  0.0055
23916W        W39990   4.383   5.268   0.593 -0.3109 -0.0102 -0.0233
23917W        W39991   5.452   4.773   5.475 -0.1495  0.0887  0.1861
23918W        W39992   2.940   4.948   1.316 -0.2820 -0.1643 -0.1552
23919W        W39993   2.926  14.164   2.686 -0.0682 -0.1010 -0.1591
23920W        W39994   3.233  12.762  12.386 -0.3765  0.3228  0.1824
23921W        W39995   2.589  11.909   3.478 -0.2009 -0.2093 -0.1524
23922W        W39996  16.211   7.756   2.202 -0.0734  0.1512  0.0137
23923W        W39997  10.958   6.464  14.940  0.0496  0.0486 -0.1281
23924W        W39998   7.225  17.060  13.978 -0.0625  0.0545  0.1589
23925W        W39999   2.795  12.627   5.702  0.2724  0.0884 -0.2130
23926W        W40000   6.671   6.908   4.453 -0.2206 -0.0474  0.1697
23927W        W40001  15.564   8.103  14.603 -0.1767  0.0835  0.1662
23928W        W40002  16.648   2.365   0.896 -0.1191  0.2566  0.1042
23929W        W40003   7.320   8.785   2.657 -0.3404  0.1858  0.1901
23930W        W40004  14.741   1.027   6.223  0.1149 -0.0715 -0.1091
23931W        W40005   9.691  16.427   5.111 -0.1088 -0.1808 -0.1701
23932W        W40006   2.205  10.427   1.184  0.0959 -0.3044  0.0664
23933W        W40007  14.585   0.434  15.214 -0.2828 -0.1987 -0.0197
23934W        W40008   1.834  11.958   5.150 -0.0057 -0.1097  0.1798
23935W        W40009  17.007   6.455   0.326 -0.0016 -0.0777 -0.1318
23936W        W40010   2.064  16.446  14.762  0.0271 -0.2904  0.0993
23937W        W40011  11.041   1.655   3.794  0.0751  0.3650  0.0289
23938W        W40012   8.938  10.589  12.899  0.1922 -0.2230  0.0768
23939W        W40013  17.020   7.626  13.176 -0.4727  0.1419  0.0792
23940W        W40014   5.512  13.751  11.703 -0.0819  0.0221 -0.0501
23941W        W40015  11.070  17.150   5.067 -0.0601  0.2592 -0.0763
23942W        W40016  11.130   4.262  13.939 -0.2385  0.1094  0.0298
23943W        W40017   5.410   3.306  11.956 -0.1064 -0.0208  0.0833
23944W        W40018   0.774   0.790   6.315 -0.1748 -0.0364  0.2334
23945W        W40019   2.333  14.002   3.024 -0.1141 -0.0288  0.2533
23946W        W40020   8.401   5.398   4.664 -0.0484 -0.1495  0.2698
23947W        W40021   9.228  11.996  14.756  0.1592 -0.3646 -0.3199
23948W        W40022   5.700   6.719   2.041 -0.0464 -0.0899  0.1951
23949W        W40023  15.604  10.137   2.012 -0.2781  0.1477  0.2913
23950W        W40024  16.991   7.019  16.723 -0.2279  0.0888  0.1070
23951W        W40025   1.974   4.570   1.502  0.1018 -0.1677  0.2075
23952W        W40026   7.716  12.882  14.194  0.0377  0.1873  0.6934
23953W        W40027   2.182   5.451  12.795 -0.1799 -0.0906  0.0430
23954W        W40028   0.997   6.594   2.073 -0.1018  0.0015 -0.2468
23955W        W40029   0.851  10.229   1.059 -0.5308  0.3348  0.0839
23956W        W40030   9.381   7.558   5.069  0.0249 -0.0202  0.1369
23957W        W40031   1.020   6.247  14.765 -0.0943  0.1712 -0.0705
23958W        W40032   8.589  15.459  15.823  0.4299  0.1894 -0.2409
23959W        W40033  13.772  12.739   0.984 -0.1132 -0.2400 -0.1230
23960W        W40034  15.686  17.395   5.441  0.0069  0.0175 -0.0041
23961W        W40035  10.925   2.391   4.448 -0.2088  0.0449 -0.1124
23962W        W40036  16.961   4.078   0.960 -0.3586 -0.0515 -0.1335
23963W        W40037   4.988   0.220   4.058  0.1527 -0.0928 -0.1863
23964W        W40038   4.529   8.366   2.822  0.1728  0.1163  0.1608
23965W        W40039   3.693   5.115  16.329 -0.1730  0.1193 -0.2904
23966W        W40040   8.560   8.534  15.779  0.1113 -0.1200 -0.0048
23967W        W40041   6.128   7.341  16.180  0.0614  0.1764 -0.0112
23968W        W40042   9.568  12.448  16.495 -0.4731 -0.2404  0.1142
23969W        W40043   6.688  17.523  14.085 -0.1470  0.1101 -0.1029
23970W        W40044   7.438   9.456  16.031 -0.0390  0.0656 -0.0918
23971W        W40045   4.228  11.952  15.081 -0.4253 -0.1172 -0.0385
23972W        W40046  17.040   0.779  12.086  0.1930  0.0843  0.0491
23973W        W40047  13.554  15.571   5.648 -0.0669  0.1659  0.1308
23974W        W40048   9.410  10.175   5.317 -0.0855 -0.1849  0.0215
23975W        W40049   7.054  12.519  15.161  0.1572  0.1148  0.1791
23976W        W40050   8.257  16.411   2.148 -0.0276  0.0733 -0.5093
23977W        W40051   0.863   3.293   5.534  0.1509 -0.1922  0.2604
23978W        W40052   8.493  12.054   2.670 -0.3422  0.1330 -0.2182
23979W        W40053  17.197   2.780   0.268 -0.0264  0.1880  0.0544
23980W        W40054   0.101  12.129   3.611  0.1125 -0.0620  0.2167
23981W        W40055   5.759   0.159  13.629 -0.1726 -0.2581  0.1629
23982W        W40056   8.576   3.615  15.945 -0.2973 -0.4119 -0.0731
23983W        W40057   8.729   5.665  12.993 -0.1756 -0.1190  0.1138
23984W        W40058   7.386   7.375   0.056  0.2151  0.0578  0.2714
23985W        W40059   2.216   6.260   5.536  0.1500 -0.0687 -0.3060
23986W        W40060  13.709   4.163   0.713  0.0797  0.0712  0.0213
23987W        W40061   4.561   5.867  15.355 -0.0361 -0.0675 -0.1542
23988W        W40062   3.465   9.122  13.925  0.1413 -0.2452 -0.0122
23989W        W40063   6.361  13.140   0.017 -0.2477  0.1653 -0.0730
23990W        W40064  12.164   9.072  12.735 -0.0692 -0.1517 -0.1127
23991W        W40065   4.024  10.238  13.219  0.0981 -0.1120  0.1696
23992W        W40066   8.713   0.177   4.043 -0.0200  0.2683 -0.2656
23993W        W40067   5.511   2.676   0.727 -0.0174 -0.2226 -0.2355
23994W        W40068   3.427   5.576   2.093 -0.0345 -0.2978  0.0474
23995W        W40069  11.158   7.057  14.088 -0.3035  0.2353 -0.0583
23996W        W40070   7.558   0.994   1.723  0.0131  0.1867  0.1191
23997W        W40071   3.031   4.993  12.477 -0.1816 -0.1348  0.1111
23998W        W40072   6.999  10.837  14.332  0.3423 -0.2764 -0.2161
23999W        W40073  10.991  10.644   2.601 -0.0784  0.2341  0.2254
24000W        W40074  10.134   8.033  12.836  0.0998  0.2731 -0.2418
24001W        W40075  12.160  17.413  12.392  0.2148  0.1842 -0.0936
24002W        W40076   1.889   7.151  15.981  0.0325 -0.2022 -0.0785
24003W        W40077  13.477   8.564  15.891  0.0894  0.1594 -0.0310
24004W        W40078  11.081  15.325  12.536  0.1064 -0.0064  0.1571
24005W        W40079   2.330   8.302   0.517  0.0941 -0.0285  0.2547
24006W        W40080  10.233  15.460   4.641  0.0875 -0.0096 -0.1774
24007W        W40081  17.121   7.560   3.448 -0.1766  0.1934  0.1075
24008W        W40082   7.650  15.640  14.641 -0.0347 -0.0579 -0.3142
24009W        W40083  12.099   7.257  14.535  0.0174  0.0963 -0.0072
24010W        W40084   9.838  16.201  14.886  0.2395  0.1169 -0.2153
24011W        W40085  12.190   2.114  14.240 -0.1867 -0.2586  0.0539
24012W        W40086  11.979   6.739   0.473  0.0263  0.1482 -0.0177
24013W        W40087  13.446   5.752   1.667 -0.1201  0.0323 -0.1013
24014W        W40088   7.411   9.198  13.133  0.1223 -0.3528 -0.0936
24015W        W40089  15.953  17.105   3.990  0.2487 -0.0079  0.2084
24016W        W40090  15.038  13.907   4.527  0.4141 -0.3992  0.3236
24017W        W40091   2.664   6.577  16.233 -0.2267  0.0753  0.0203
24018W        W40092   6.348   4.368   5.100 -0.1135  0.1022 -0.0656
24019W        W40093   4.053   4.873  12.082  0.1032 -0.1106 -0.0868
24020W        W40094   7.192   5.645   2.849  0.1828 -0.4565  0.0454
24021W        W40095   8.903  11.518  11.922  0.0126 -0.0871  0.1543
24022W        W40096   6.776   6.601  17.027 -0.0657  0.1031  0.1954
24023W        W40097  16.133  13.997  13.137 -0.3420  0.0029 -0.0101
24024W        W40098   3.382  17.172   5.699  0.1089 -0.0154 -0.1126
24025W        W40099   2.416   5.391   4.687 -0.1662 -0.0618  0.0904
24026W        W40100   5.113   6.015  14.410  0.1372  0.2362  0.0643
24027W        W40101  15.375  11.555   4.295  0.2906  0.2247  0.0358
24028W        W40102   4.203  16.977  17.049  0.2723 -0.0096 -0.2308
24029W        W40103  15.285   0.692   1.886 -0.0589  0.1376 -0.2621
24030W        W40104   9.580   7.562   4.210  0.2154 -0.1763  0.0322
24031W        W40105  15.283   0.291   3.270  0.1947  0.0541 -0.1627
24032W        W40106  12.446   4.616   0.009 -0.0702  0.5159 -0.0806
24033W        W40107  11.729   7.010   5.434 -0.2332  0.2611 -0.0237
24034W        W40108   0.796   3.970   3.476  0.1341 -0.1177 -0.3412
24035W        W40109   8.353   0.924  15.923 -0.1077  0.0462  0.0393
24036W        W40110   7.201   1.094   4.776  0.3940  0.5367 -0.3012
24037W        W40111   0.997   9.630  13.084  0.0769 -0.0546 -0.0637
24038W        W40112   1.417  16.786  15.292 -0.3949  0.4204  0.2237
24039W        W40113   5.573   2.903   3.081 -0.0121 -0.1107  0.0704
24040W        W40114   8.962   6.328   2.527  0.4932  0.0901  0.3065
24041W        W40115  13.442   7.536   1.787 -0.4736  0.0666  0.2372
24042W        W40116   3.978   2.394   5.631 -0.2143 -0.0553  0.0971
24043W        W40117  10.852   4.770  15.825 -0.4017  0.0688  0.1133
24044W        W40118   7.888   7.529   0.011 -0.1717  0.0882 -0.0784
24045W        W40119  13.257   2.219  15.435  0.1162  0.0549  0.1801
24046W        W40120  10.648   6.886  12.918 -0.1649 -0.2285  0.0395
24047W        W40121  10.613   0.569   2.968  0.0844  0.0590  0.0790
24048W        W40122  11.968   4.408   5.742  0.0138 -0.0340 -0.4078
24049W        W40123   8.907   9.864   5.022 -0.0690  0.2258 -0.0266
24050W        W40124   2.609  10.161   2.226 -0.0283 -0.0175 -0.0950
24051W        W40125   4.062  12.076  13.647  0.0883 -0.0068  0.0785
24052W        W40126   3.716  13.672   3.224 -0.0661  0.1084 -0.1584
24053W        W40127   0.719   4.832   5.253  0.1624 -0.1665 -0.1548
24054W        W40128   5.619   8.336  12.515 -0.2048  0.0928  0.1038
24055W        W40129  13.932   3.002   4.580  0.3062  0.0123 -0.0726
24056W        W40130  12.678   8.887  12.738  0.1374 -0.2119  0.0683
24057W        W40131   5.190  11.071  15.285 -0.1170 -0.0857 -0.0877
24058W        W40132   6.134  10.302   0.264 -0.1328  0.1575 -0.2603
24059W        W40133   1.500  11.384   5.681 -0.0112  0.0928 -0.1540
24060W        W40134  16.365  13.893  11.772  0.2309 -0.1218  0.0648
24061W        W40135   6.541   9.154   1.796 -0.1272  0.1267 -0.1294
24062W        W40136   0.381   3.100   0.505  0.1874  0.1302  0.1523
24063W        W40137   1.839  11.994  16.302 -0.0571 -0.1133  0.2373
24064W        W40138  16.066   9.748   0.332  0.2349  0.1428 -0.2917
24065W        W40139   6.495  11.173  11.862 -0.2432 -0.0606  0.0662
24066W        W40140   8.598   9.250  12.806 -0.0699 -0.4722 -0.1566
24067W        W40141  12.874   3.899  13.435  0.0176  0.0385 -0.1598
24068W        W40142   7.729  10.570   6.069 -0.0401  0.0545  0.0218
24069W        W40143  11.658   8.795  13.892  0.0246  0.0336 -0.2241
24070W        W40144   1.397  15.648  12.717 -0.0201 -0.2790 -0.1415
24071W        W40145   9.087   2.974  12.585  0.0635  0.3322 -0.2514
24072W        W40146  12.337   5.121   0.946 -0.0617 -0.0917  0.0182
24073W        W40147   8.829   3.437  12.290  0.4964 -0.1878 -0.1994
24074W        W40148  17.743  14.850   3.494 -0.1494  0.0548  0.1401
24075W        W40149  14.507  13.384   1.415 -0.0728  0.1970 -0.1849
24076W        W40150   6.645   9.528   4.567  0.1685 -0.4203  0.2433
24077W        W40151   2.093   4.075   4.576 -0.0528 -0.1309  0.0663
24078W        W40152  13.931   4.924   1.474 -0.3156 -0.0554 -0.3169
24079W        W40153   2.288  15.793  15.526  0.1286 -0.0382  0.0539
24080W        W40154  10.736   7.980  16.950  0.0749  0.0033 -0.0637
24081W        W40155  14.523   6.807   2.582  0.1197 -0.1005 -0.0219
24082W        W40156  14.609  15.933   2.133  0.0105 -0.0970  0.0177
24083W        W40157  17.203   6.142  14.451 -0.0295  0.0044  0.0175
24084W        W40158  14.857   3.362  15.463 -0.0455  0.3253 -0.1018
24085W        W40159  17.643   5.337  16.711  0.1322  0.0643  0.1521
24086W        W40160   9.423  14.712   0.520  0.0170 -0.0970 -0.0650
24087W        W40161  11.411  12.911  14.764 -0.0436 -0.1106  0.0195
24088W        W40162  11.646  17.457   1.215  0.0951  0.1014  0.2139
24089W        W40163  15.442   7.274  14.456 -0.0833  0.0265  0.0674
24090W        W40164  13.235  13.952   4.119  0.1681  0.0619  0.2005
24091W        W40165  14.026   3.867  11.815 -0.0031  0.0580  0.1706
24092W        W40166   4.548   7.785  16.727 -0.2281  0.0523  0.0113
24093W        W40167  15.309   6.105  16.694  0.0148 -0.0888 -0.4320
24094W        W40168  14.255  11.884   3.404  0.0115  0.2807 -0.0738
24095W        W40169   5.016   3.483  16.634  0.1054  0.2020  0.2274
24096W        W40170   2.713  10.648   5.523  0.0979 -0.2429  0.1008
24097W        W40171   7.853  13.384  14.147  0.0169  0.1131 -0.0403
24098W        W40172   9.960   8.034   0.878  0.2066 -0.0097 -0.2569
24099W        W40173   1.813  11.984  11.671  0.0779 -0.1238  0.0869
24100W        W40174   6.135  10.943  12.142 -0.0284 -0.1105  0.0690
24101W        W40175   4.087  11.220   0.276  0.0552 -0.0634 -0.0542
24102W        W40176   6.973   3.602   0.789  0.2602 -0.1062 -0.0902
24103W        W40177  10.262   2.689   2.171  0.0800  0.1390  0.1966
24104W        W40178  11.408   3.649  11.952  0.0162  0.0256  0.2509
24105W        W40179   2.199   6.185  13.938  0.0816 -0.0613  0.0005
24106W        W40180  12.316   5.476   4.380 -0.0981  0.2595 -0.2684
24107W        W40181  13.084  15.053   1.017  0.0835 -0.3545 -0.1244
24108W        W40182  15.016   9.181  16.323  0.0424 -0.2381 -0.0090
24109W        W40183   4.221  11.681  15.504 -0.0253  0.0365 -0.1633
24110W        W40184   0.616   2.564  16.998  0.2677  0.0747 -0.0814
24111W        W40185   7.283  14.112   0.179  0.1384  0.0872  0.0403
24112W        W40186  10.003   2.811   5.204  0.1313  0.0201 -0.1027
24113W        W40187   8.509  13.088   4.364  0.1256 -0.1990  0.0405
24114W        W40188  12.478   6.775   0.700 -0.0833 -0.0474 -0.0233
24115W        W40189  13.403  16.302   3.062 -0.0159  0.3768 -0.0430
24116W        W40190   4.825   0.543  17.046 -0.1159 -0.2668 -0.3021
24117W        W40191  13.204   4.498   1.097 -0.0058  0.1179  0.1774
24118W        W40192  13.174   1.813  16.895 -0.0576  0.0336  0.0344
24119W        W40193   0.465  12.350   4.468 -0.0410 -0.2505 -0.2703
24120W        W40194  10.637   1.874  13.431 -0.1260  0.0428 -0.0638
24121W        W40195   8.436   4.395  16.983 -0.0644  0.2780 -0.0867
24122W        W40196  10.702   4.577  16.358  0.0205 -0.2218  0.2401
24123W        W40197  14.384  17.118  13.885 -0.2099  0.3074 -0.2254
24124W        W40198  15.859   2.626   3.519  0.0191 -0.2617  0.1676
24125W        W40199  15.177   4.638  15.301  0.4146  0.3711  0.2062
24126W        W40200   2.472  16.751   0.570 -0.0225  0.3290  0.3054
24127W        W40201   9.200   8.720   5.729 -0.0911  0.2585  0.1367
24128W        W40202  10.569   5.016  13.862  0.0476 -0.0454  0.1952
24129W        W40203   5.838   2.364  16.958 -0.0137  0.2569 -0.2509
24130W        W40204   1.856  15.151   1.204 -0.1836  0.0397  0.1770
24131W        W40205  10.893   6.650   2.398 -0.1017  0.2477 -0.2206
24132W        W40206   4.676   2.718   3.481  0.1415  0.1324 -0.3734
24133W        W40207  13.142  15.230  16.045  0.0866 -0.0941  0.1291
24134W        W40208   5.427   5.174   2.043 -0.0207 -0.0088  0.2472
24135W        W40209  10.227  16.748  12.803  0.0226  0.1990  0.0781
24136W        W40210   3.301   6.879  13.922 -0.1271  0.3771 -0.1712
24137W        W40211   9.380  12.963   2.077  0.0609  0.0547 -0.0209
24138W        W40212   4.592  15.170  16.837  0.0185  0.1376  0.0901
24139W        W40213  16.039   8.460   1.493 -0.0539  0.1278  0.0077
24140W        W40214  15.899  13.165   0.683 -0.1763 -0.1714 -0.1849
24141W        W40215  10.441  10.098  12.829 -0.0454 -0.1642  0.2774
24142W        W40216  13.011  11.481   4.094 -0.0701  0.1605  0.2890
24143W        W40217   6.409  14.277   2.829 -0.0396  0.1260 -0.0568
24144W        W40218  11.406  13.872  14.773 -0.0065 -0.0341  0.2234
24145W        W40219  16.670  12.137   5.214 -0.3359 -0.4133  0.0772
24146W        W40220   0.110   7.980  14.028  0.0582  0.0655  0.1448
24147W        W40221   8.460  15.188  12.840  0.0051  0.0226  0.1453
24148W        W40222  10.197   9.123  12.670  0.0013 -0.0153  0.2704
24149W        W40223  15.327   5.196   1.821  0.2676  0.0624  0.0873
24150W        W40224   0.716  10.106  15.015  0.2972 -0.0266 -0.0947
24151W        W40225  12.063  10.451   4.807  0.1375 -0.0060  0.0002
24152W        W40226  12.824   8.056   2.211  0.1645  0.3802  0.1071
24153W        W40227   2.699  15.539   4.131  0.0721 -0.0827 -0.1618
24154W        W40228   5.381  10.486   2.191 -0.0526  0.3431 -0.1513
24155W        W40229   7.999   8.668  12.241  0.0398  0.1502 -0.2068
24156W        W40230  11.816  16.706  12.065 -0.0126  0.1023 -0.0344
24157W        W40231  16.981  13.428  12.227  0.2914  0.3746  0.0810
24158W        W40232   5.646   6.488   5.112  0.0189 -0.1481 -0.1492
24159W        W40233  15.511   9.268  16.149  0.1577  0.3362  0.0026
24160W        W40234   2.716   6.175  12.593 -0.1073  0.0804 -0.2343
24161W        W40235  14.634  14.407   4.560  0.2725  0.1595  0.0247
24162W        W40236  16.969   6.494  16.056  0.1569  0.1624 -0.0509
24163W        W40237  14.551   8.129  13.502 -0.1894  0.1615 -0.0859
24164W        W40238   4.090   6.194   3.519  0.0932  0.0094  0.1696
24165W        W40239  13.469   9.266   4.075  0.1653  0.0109 -0.0612
24166W        W40240   1.115  12.064  16.956 -0.3108 -0.0337  0.1146
24167W        W40241  15.370  13.663  16.849 -0.0666 -0.0573  0.0472
24168W        W40242  13.297  16.767   4.793  0.2554 -0.0530 -0.1484
24169W        W40243  14.941   5.236  11.934  0.0070  0.0672 -0.2685
24170W        W40244   2.940  10.671   0.095 -0.1636  0.1824 -0.1197
24171W        W40245  11.555   0.941   6.043  0.2055 -0.1455  0.1324
24172W        W40246   9.515   8.148  14.088  0.0490  0.1245 -0.0083
24173W        W40247  14.401  15.609   1.275 -0.0985 -0.0671  0.0431
24174W        W40248   5.721  11.589  14.544  0.1204  0.0532 -0.0411
24175W        W40249  13.065   8.452   1.400 -0.0076  0.0949 -0.0486
24176W        W40250   1.342  15.075   1.283  0.2762  0.4729  0.2027
24177W        W40251  11.262  16.737   2.566 -0.0041 -0.2932  0.2393
24178W        W40252   4.093  11.955   5.878 -0.0176 -0.1455 -0.1145
24179W        W40253  14.493  12.114  12.185 -0.3791 -0.0387 -0.1857
24180W        W40254   0.468   1.048   3.265  0.2415  0.1139  0.1895
24181W        W40255   6.977   9.593   3.694  0.1186 -0.0222 -0.1361
24182W        W40256  10.692   9.420   0.622  0.0052  0.0342  0.3605
24183W        W40257  15.756  16.648   3.738 -0.0666  0.1747 -0.0148
24184W        W40258  10.989  10.029   2.638 -0.1861  0.1677 -0.5091
24185W        W40259   5.121   2.730  12.791 -0.1224  0.0667 -0.0640
24186W        W40260  10.107   0.913   0.558  0.0573  0.1582 -0.0822
24187W        W40261  14.924   6.559  13.423 -0.0498 -0.1132  0.2165
24188W        W40262  14.410   1.880   0.580 -0.1365 -0.0293  0.2919
24189W        W40263  10.333  16.559  16.131 -0.3186  0.1274  0.0963
24190W        W40264  14.970  10.398   5.781 -0.0233 -0.0159 -0.3003
24191W        W40265   9.932  16.753  12.380 -0.0680  0.1300 -0.2126
24192W        W40266  13.426   2.422   4.301  0.1896 -0.1293  0.2708
24193W        W40267  17.142  17.121  12.861 -0.1072  0.0732  0.5589
24194W        W40268  13.604   7.858   0.841  0.0376  0.1689 -0.0627
24195W        W40269  11.785  10.912  15.094 -0.1400  0.1134  0.2693
24196W        W40270   1.056   9.507   0.900  0.0557 -0.0173 -0.0329
24197W        W40271   5.806  15.332   0.101  0.0171  0.0084  0.1158
24198W        W40272  16.162  12.478   2.724  0.1785  0.0645  0.1939
24199W        W40273   8.974   6.780   2.251 -0.0099  0.2840 -0.3710
24200W        W40274  13.686   7.048   3.719 -0.0357  0.0973  0.1447
24201W        W40275   8.787   3.884   0.999 -0.0342  0.2609 -0.0254
24202W        W40276  13.793   4.150   5.067 -0.2721  0.0423  0.1568
24203W        W40277   2.894  15.504  12.798  0.0604  0.0374 -0.1297
24204W        W40278  12.454   2.865  12.156  0.1103 -0.2176  0.9050
24205W        W40279  16.300  15.536   3.943  0.5321 -0.2057  0.1080
24206W        W40280  16.979   6.696   1.026 -0.0682  0.0430 -0.4142
24207W        W40281  14.685   4.503   1.408 -0.1632 -0.0358  0.0895
24208W        W40282   8.093   5.801  15.098  0.0773  0.0531  0.2376
24209W        W40283  13.334   0.372  17.011  0.0684 -0.4683 -0.0738
24210W        W40284  17.522   4.522   0.300  0.0226 -0.0814  0.0483
24211W        W40285   6.730  14.664   3.806 -0.0705  0.1710 -0.0411
24212W        W40286  14.902  12.777   4.045 -0.0717  0.5157 -0.2553
24213W        W40287   9.962  15.792   0.935  0.2738  0.1866 -0.2115
24214W        W40288   6.038   3.948  15.812 -0.1279  0.1757  0.1045
24215W        W40289   7.054  10.860  16.217  0.2440 -0.1823  0.2528
24216W        W40290   1.681   7.840  15.546 -0.0661 -0.2230  0.0894
24217W        W40291   1.428   2.444   0.445  0.1505 -0.0540 -0.0580
24218W        W40292   9.099  10.182  15.425  0.0252 -0.0507 -0.0665
24219W        W40293  14.100   1.095   1.543  0.0426  0.1064  0.1016
24220W        W40294   4.709  17.537   4.347 -0.2643  0.2286  0.0850
24221W        W40295   6.754   2.055  12.571 -0.0722 -0.1273 -0.1693
24222W        W40296  16.561   0.069  15.587  0.4056  0.0237  0.0537
24223W        W40297   5.910  10.881  15.632  0.1206 -0.0525  0.2948
24224W        W40298   2.658   9.933  14.655 -0.0004  0.0628  0.0884
24225W        W40299   4.790   4.269   0.811  0.1787  0.1631 -0.1326
24226W        W40300   8.082   1.062   1.724  0.2606 -0.0419 -0.0854
24227W        W40301   8.013   8.156  13.733 -0.0547  0.1313 -0.0697
24228W        W40302   5.291  15.827  13.325  0.0448 -0.4950 -0.1238
24229W        W40303  17.217   8.115  12.006 -0.0139  0.1255 -0.0857
24230W        W40304   9.943   2.164   1.651  0.1016  0.2123  0.2298
24231W        W40305   3.158   1.485  14.592  0.1399 -0.1933 -0.0815
24232W        W40306   9.103   2.915   5.821 -0.3307  0.0572 -0.1583
24233W        W40307   8.528  14.488   0.733 -0.2441 -0.0462 -0.0371
24234W        W40308  10.333  14.246   5.384 -0.2133 -0.0010 -0.2012
24235W        W40309   2.043  12.563  12.455  0.0435 -0.0610 -0.1536
24236W        W40310  11.315   7.422   2.874 -0.2992  0.1353 -0.0408
24237W        W40311  13.250  11.459   3.232  0.1830  0.0623  0.0918
24238W        W40312   5.757   1.910   6.281  0.1396 -0.1390  0.4028
24239W        W40313   3.337   3.858   0.422 -0.0787 -0.4370 -0.1833
24240W        W40314   6.039  11.923  12.255  0.1719  0.1718  0.1048
24241W        W40315   1.892  15.719  16.356 -0.1917 -0.1076  0.0141
24242W        W40316  16.843  16.872   3.937 -0.0167  0.0145 -0.0123
24243W        W40317  15.303  13.594   6.408 -0.2112  0.0217  0.1361
24244W        W40318   0.061  16.077   0.506  0.2445 -0.1676 -0.1741
24245W        W40319  12.219   2.074  12.181 -0.0643  0.0160  0.0772
24246W        W40320  14.190  10.407   5.068 -0.1735  0.5197  0.1901
24247W        W40321   1.412   1.463  14.810 -0.3284 -0.4998  0.1898
24248W        W40322  15.950  13.137  16.130  0.0372  0.0857 -0.0849
24249W        W40323   1.094   5.983  15.264  0.0407 -0.0026  0.1512
24250W        W40324   9.670   5.230   3.755 -0.0939  0.0164 -0.3374
24251W        W40325  14.787  15.021   3.780  0.1776  0.0152 -0.1708
24252W        W40326   8.618  17.650  16.786 -0.0193  0.3016  0.1016
24253W        W40327  17.220  11.802  14.698  0.0380 -0.0419  0.1005
24254W        W40328   8.568   5.561   4.225 -0.0565  0.1437 -0.1657
24255W        W40329   1.037  12.873   6.286  0.1927  0.1166  0.1661
24256W        W40330   6.822  12.118   2.686  0.1062  0.1444  0.2627
24257W        W40331   3.457   7.587  11.474  0.0087 -0.1246  0.2443
24258W        W40332  12.391  16.858  15.069 -0.1100  0.0364  0.0548
24259W        W40333   0.043  12.590   0.037 -0.2421 -0.0223  0.2615
24260W        W40334  12.148  16.623   1.068 -0.1845 -0.1176 -0.0750
24261W        W40335   8.693   4.621   4.227 -0.0744 -0.4212 -0.0575
24262W        W40336  10.917   1.104   0.308 -0.2024 -0.3629  0.2090
24263W        W40337  15.971   0.406   5.754 -0.0009  0.0779 -0.1259
24264W        W40338   5.746  17.460   2.662  0.0667  0.4063 -0.0206
24265W        W40339  17.242   7.561  13.687 -0.3920  0.1525  0.3196
24266W        W40340   6.516  16.685  13.579 -0.0526  0.0772  0.0575
24267W        W40341   6.694   6.622   3.071 -0.0035 -0.0653  0.0773
24268W        W40342   2.085  10.975   0.662 -0.3249 -0.1145  0.0323
24269W        W40343  13.970   1.452   1.253  0.1103  0.1668  0.1337
24270W        W40344  15.245   7.034  12.196 -0.2872 -0.0562 -0.1417
24271W        W40345  10.774   8.559  15.673  0.0826 -0.2312  0.2300
24272W        W40346  14.336  14.358  12.196  0.3061 -0.0310 -0.2337
24273W        W40347   1.807  11.640  11.269  0.3058 -0.0872 -0.1747
24274W        W40348   4.500  17.304   2.147 -0.1581  0.0339  0.0979
24275W        W40349   0.705  16.837   1.981 -0.0051  0.0252  0.2814
24276W        W40350   9.822   4.906  13.443  0.3303  0.2080  0.1131
24277W        W40351   7.892  14.310  16.162 -0.2628 -0.1675 -0.1837
24278W        W40352   0.914   8.738   1.888  0.0489 -0.0203 -0.0963
24279W        W40353  16.803   1.873   5.942  0.2784  0.1517 -0.0236
24280W        W40354   8.659  10.936   0.470 -0.1273  0.1622  0.0449
24281W        W40355   6.441   4.624   3.146 -0.1021  0.1666  0.2304
24282W        W40356  12.832   6.817   2.251  0.1551 -0.1775  0.2830
24283W        W40357  14.133   7.752  13.633 -0.1388 -0.1753 -0.3486
24284W        W40358   3.652  11.245   6.434 -0.5496  0.1365  0.1499
24285W        W40359  10.428  16.960   2.827  0.0891  0.1442  0.2050
24286W        W40360  15.296  12.680   0.346  0.0230  0.0181 -0.1287
24287W        W40361   0.685   2.695   2.762  0.1163 -0.4222 -0.1468
24288W        W40362   9.296   8.731  13.072  0.0894 -0.0775  0.2379
24289W        W40363   3.859   1.583   4.407  0.1154 -0.1456  0.2434
24290W        W40364  15.150  14.166   3.295  0.2886  0.0392  0.1138
24291W        W40365   0.494  13.002  12.523 -0.0146 -0.1106  0.2459
24292W        W40366   4.136  16.171   5.140  0.0136 -0.0753  0.1719
24293W        W40367  11.841  17.602   3.949 -0.3168 -0.1074 -0.1376
24294W        W40368   0.480   9.711  14.412  0.1747  0.1439  0.1301
24295W        W40369   7.918  14.793   3.064 -0.0977  0.4571  0.2253
24296W        W40370  14.039   2.491  12.377  0.0239  0.2332  0.0245
24297W        W40371  11.920   3.731  11.960 -0.1575  0.0216  0.1641
24298W        W40372   9.829  11.406   1.700  0.0917 -0.1857 -0.0257
24299W        W40373   5.860   2.421   4.036 -0.1941 -0.1755  0.0394
24300W        W40374   8.401   1.910   4.703  0.0881 -0.0635 -0.0786
24301W        W40375  15.318  16.188  12.315  0.2065 -0.1988  0.0201
24302W        W40376  14.241  12.816  13.741  0.2581  0.0626 -0.1446
24303W        W40377   6.568   9.242   4.163  0.1847 -0.1867  0.2262
24304W        W40378   0.972  16.434  13.392 -0.2476 -0.0314 -0.2819
24305W        W40379   2.767   5.859   3.187  0.1268  0.0921 -0.1105
24306W        W40380   8.878   3.068   4.286 -0.1343 -0.2555 -0.3659
24307W        W40381   9.804  11.285  16.041  0.2787 -0.4850 -0.0562
24308W        W40382  15.875  15.699   0.138 -0.1537 -0.0011  0.2991
24309W        W40383   7.713  14.212   3.756 -0.0456 -0.1878 -0.0158
24310W        W40384   7.991   1.625   3.255 -0.0839 -0.1472  0.0686
24311W        W40385   6.329  10.086  12.871  0.1862  0.2002  0.2978
24312W        W40386   1.892   1.122   2.139  0.0493  0.0275  0.2695
24313W        W40387  12.741   0.410   0.637 -0.4976 -0.0200 -0.0923
24314W        W40388  12.590   1.292   0.924 -0.0333  0.0574 -0.0819
24315W        W40389   2.241   1.398  16.384  0.1898  0.0978 -0.1891
24316W        W40390   3.050   9.889  13.332 -0.0926 -0.3981  0.1677
24317W        W40391  15.408   0.551   0.520  0.2774  0.1667 -0.2012
24318W        W40392   8.313   8.827  11.872 -0.0317 -0.2682 -0.0018
24319W        W40393  15.010  14.548  12.840 -0.2786 -0.2973  0.3102
24320W        W40394  14.510  12.139   2.273 -0.1324 -0.0176  0.0797
24321W        W40395  12.974   7.695   4.796 -0.3233  0.1358  0.1562
24322W        W40396   7.136   9.786   2.444 -0.0685  0.2628 -0.1559
24323W        W40397   5.958   3.032  12.696 -0.0539  0.0772 -0.1009
24324W        W40398   3.439  13.382   0.842 -0.3479  0.1650 -0.0736
24325W        W40399   5.002  13.105   3.204 -0.0882 -0.2570  0.1549
24326W        W40400   4.248  13.873   4.851  0.0929  0.1327 -0.2186
24327W        W40401  16.411  11.073   3.742  0.1783 -0.0806  0.0598
24328W        W40402   1.538   0.767   2.011 -0.0208 -0.0160  0.1454
24329W        W40403  16.589   8.132   3.838  0.0272  0.1961  0.0308
24330W        W40404   8.836   7.324  15.319 -0.1714  0.1757  0.0036
24331W        W40405   7.020   3.430   4.280 -0.1664 -0.2983  0.2053
24332W        W40406   9.864   8.476  12.547 -0.2205 -0.2106 -0.1766
24333W        W40407   8.667  12.035  12.654 -0.1063  0.0308  0.0181
24334W        W40408   2.451   1.267  15.172  0.0554  0.3211 -0.0306
24335W        W40409   0.937   3.637  13.099 -0.1808  0.1399  0.2961
24336W        W40410  12.216  12.293   0.279  0.0666  0.1067 -0.3108
24337W        W40411  15.671  13.730   1.572 -0.4515 -0.2195  0.0657
24338W        W40412   0.493  16.722   5.879  0.0997 -0.0671  0.1024
24339W        W40413  13.855  14.921  12.015 -0.0636 -0.2951 -0.2007
24340W        W40414  12.430  10.666  12.882 -0.0599 -0.2202 -0.0862
24341W        W40415  12.947   5.265  12.070  0.0820 -0.2253  0.1697
24342W        W40416   3.281  15.507  16.862 -0.0718 -0.3150  0.1834
24343W        W40417   5.685   8.944   5.715 -0.1238 -0.1214 -0.0134
24344W        W40418  12.997   7.699  12.047  0.1265  0.2031  0.1510
24345W        W40419   0.492   3.381   5.208  0.1926 -0.1597 -0.1631
24346W        W40420   3.220  17.095  16.793 -0.3747  0.4135  0.0443
24347W        W40421  17.317   4.722   3.218  0.1158 -0.0509 -0.1061
24348W        W40422   7.578  11.705  14.011 -0.1537 -0.1048 -0.0388
24349W        W40423   3.245  13.878   0.812  0.0448 -0.1259 -0.2098
24350W        W40424   2.103   9.631   0.347 -0.0007 -0.1500 -0.0232
24351W        W40425  14.219   1.427   5.402 -0.0279  0.0251 -0.0988
24352W        W40426  12.054   9.549   0.438 -0.3903  0.1888  0.0437
24353W        W40427  12.409  11.313   2.698  0.0768  0.2674  0.2075
24354W        W40428  16.399  11.242  16.230 -0.2250 -0.0092 -0.0654
24355W        W40429   1.020   2.898   3.453 -0.0220  0.3536  0.2822
24356W        W40430  16.756  15.020   3.728  0.2191 -0.0009  0.0723
24357W        W40431   1.947  12.145   4.039 -0.1498 -0.0343 -0.2003
24358W        W40432   7.797  16.287  14.305 -0.2947  0.2314 -0.1438
24359W        W40433  10.239   0.944   3.035  0.2309  0.0227 -0.0952
24360W        W40434   1.012   7.481  15.042  0.3073  0.1690 -0.0942
24361W        W40435  16.285  12.630   4.255 -0.0551  0.3814  0.3079
24362W        W40436   6.359   3.861   3.684  0.0547 -0.2079 -0.0667
24363W        W40437  17.479  13.841   0.932 -0.0791 -0.1498 -0.1855
24364W        W40438  13.208  15.240  12.976 -0.1313  0.1360  0.0142
24365W        W40439   5.832   7.536  11.986  0.1925  0.0455 -0.3919
24366W        W40440  14.015  13.170   0.101  0.0302  0.0350 -0.0391
24367W        W40441  13.867   7.420  14.988 -0.1840 -0.0736  0.2751
24368W        W40442   1.734   3.743  15.728 -0.0120 -0.1300 -0.0710
24369W        W40443   4.015   0.620   2.958 -0.0299 -0.2202  0.2715
24370W        W40444  10.424  12.437  11.756  0.2527 -0.0662 -0.0309
24371W        W40445   6.077   9.456  12.095  0.0067 -0.1237  0.1769
24372W        W40446   7.893  16.274  11.950 -0.2788 -0.0216  0.1573
24373W        W40447   5.866   8.976   1.160  0.1419  0.1863  0.1170
24374W        W40448   2.218   6.596  15.996 -0.0170 -0.2617 -0.1468
24375W        W40449   6.421  10.075   6.182 -0.2423  0.0337 -0.1934
24376W        W40450  15.837   7.342   1.494  0.1900  0.2190 -0.0218
24377W        W40451  10.577  10.575  12.728  0.0978 -0.1280 -0.0463
24378W        W40452  10.051   1.243   1.479 -0.0805 -0.2556  0.1812
24379W        W40453   7.090   4.521  12.739  0.1954 -0.2504  0.1266
24380W        W40454   0.710   6.600   5.533  0.0900 -0.1377 -0.0373
24381W        W40455  16.720  16.919  12.648 -0.0927 -0.0131 -0.0427
24382W        W40456  11.245   3.914   4.407 -0.0762  0.1634 -0.0123
24383W        W40457   2.227  13.153   1.912 -0.0838 -0.1300 -0.1422
24384W        W40458   0.354   3.687   3.842  0.1410  0.0034  0.3324
24385W        W40459   3.673   0.693  14.877 -0.0020 -0.0051  0.0482
24386W        W40460   9.157   6.495  16.369  0.0627 -0.0558 -0.1511
24387W        W40461   7.046   7.331  12.051  0.0767  0.4466  0.3803
24388W        W40462   0.027   9.535  14.657  0.1033  0.1768  0.0852
24389W        W40463   5.810   1.260   1.255  0.2061 -0.1182 -0.2005
24390W        W40464  14.892  13.143  16.025  0.1002  0.0933  0.2220
24391W        W40465   5.554   6.431  15.062  0.1820  0.3306  0.2388
24392W        W40466  16.141   4.666  12.689  0.2639 -0.1226 -0.1616
24393W        W40467   2.520  12.561   1.767  0.1881  0.0760 -0.2558
24394W        W40468  15.565   1.110  11.673  0.0942 -0.2579 -0.3732
24395W        W40469   7.368  13.307   2.399 -0.0786  0.0616  0.0764
24396W        W40470  17.260   0.944   2.370  0.0683  0.2411 -0.2293
24397W        W40471   9.937   8.740  14.977  0.0977  0.0452  0.4760
24398W        W40472   8.268   0.269  14.536 -0.2716  0.2535  0.1613
24399W        W40473  15.607   1.659   1.928 -0.0451 -0.1791  0.2849
24400W        W40474   0.155  17.572  15.324  0.1566 -0.0174 -0.0487
24401W        W40475   8.085  17.713   6.163  0.1387  0.1617  0.0939
24402W        W40476   1.408  12.887  13.186  0.0518  0.1909 -0.1937
24403W        W40477   1.759   8.913  14.356 -0.0676 -0.0204  0.0700
24404W        W40478   4.060  12.922   4.164  0.1759  0.2507  0.1433
24405W        W40479  16.422  12.192  14.342  0.1930 -0.1892  0.1424
24406W        W40480   1.582   6.423   3.751  0.0528  0.2512  0.2372
24407W        W40481  11.437   2.878  16.064 -0.3163  0.0268  0.4082
24408W        W40482   4.696   5.719   3.310  0.2046  0.0958 -0.0175
24409W        W40483   1.162  13.866   2.261  0.0081 -0.3573 -0.3540
24410W        W40484  11.320   4.218   3.437 -0.1497  0.2758 -0.2477
24411W        W40485  16.727  10.761   2.742 -0.1134  0.1922 -0.2267
24412W        W40486   5.237  10.710  13.548 -0.1089 -0.1890  0.0590
24413W        W40487  12.359  11.869   0.683 -0.0026 -0.0794  0.0112
24414W        W40488  10.884   5.195  14.574  0.0738  0.1719 -0.2857
24415W        W40489   2.294  14.302   3.904 -0.0826 -0.3642 -0.0914
24416W        W40490   2.792   5.717  13.499 -0.1054  0.1572  0.2443
24417W        W40491   9.571  11.668   0.806 -0.0058  0.0720  0.1559
24418W        W40492   6.840   3.340   3.316 -0.3861  0.1755 -0.1707
24419W        W40493  10.783  13.202  13.925  0.2022 -0.2411 -0.1688
24420W        W40494  10.173  16.471  13.475  0.0696 -0.0908  0.3484
24421W        W40495  14.228  12.009   1.184  0.0825  0.2878  0.1180
24422W        W40496  15.679  17.261  12.884 -0.0167  0.0800 -0.0964
24423W        W40497  13.320   5.650   4.864  0.2101 -0.1042 -0.1180
24424W        W40498  16.636  11.850  14.080  0.2431  0.0672 -0.5243
24425W        W40499  10.990  11.638   3.871  0.1005  0.2637  0.3755
24426W        W40500   0.827   8.331   2.788 -0.1914  0.0413 -0.2172
24427W        W40501  14.060   6.538   1.776  0.0757 -0.0435 -0.3289
24428W        W40502   7.129  10.351  16.272 -0.0839 -0.2086 -0.1220
24429W        W40503  16.748   7.779   4.209 -0.1666 -0.0781  0.0992
24430W        W40504  14.747  12.867  15.489 -0.3197  0.3216 -0.0649
24431W        W40505  14.835   6.374  15.692  0.0228  0.1357  0.0192
24432W        W40506   6.898   1.117  15.429  0.0466 -0.1056  0.0805
24433W        W40507   7.798   5.416   5.566 -0.4299  0.1384 -0.2719
24434W        W40508  16.270  16.827  15.739 -0.1911  0.1390  0.0598
24435W        W40509   0.057   1.443   0.435 -0.1231 -0.2153  0.1452
24436W        W40510  10.288   8.747   4.433 -0.3332 -0.0163  0.0523
24437W        W40511  10.405  12.357  15.556 -0.1176 -0.0501 -0.0878
24438W        W40512  14.128  15.820  15.147 -0.1195 -0.0714 -0.1701
24439W        W40513  14.864   8.380   1.219  0.4485  0.1507 -0.2871
24440W        W40514   7.783   7.142   2.201  0.1376  0.1756 -0.3010
24441W        W40515   8.905  15.504  12.124  0.0943  0.0497  0.1339
24442W        W40516  13.913   6.620  15.687 -0.2925 -0.1022  0.0646
24443W        W40517  13.981   0.178   4.588  0.2290  0.0595  0.0121
24444W        W40518   7.764   7.140  13.932  0.1637  0.0143 -0.4276
24445W        W40519   9.072  15.255  15.717 -0.1326  0.1263 -0.0912
24446W        W40520   3.420   0.350  12.362  0.2530 -0.0162 -0.2368
24447W        W40521   8.526   9.545   1.547  0.0024  0.0392  0.1358
24448W        W40522  15.150   5.824   4.235  0.2208  0.0395  0.1495
24449W        W40523  13.412  17.271  14.565 -0.0503 -0.0492  0.2116
24450W        W40524   9.813  15.074   0.641 -0.1337 -0.4052 -0.0546
24451W        W40525   3.191   1.757   0.299  0.1901  0.3160  0.0241
24452W        W40526  11.317   5.732  14.763  0.0979  0.3271 -0.4263
24453W        W40527   7.496   2.300  15.443  0.0534 -0.0155  0.0134
24454W        W40528   0.544   2.422  12.692 -0.2384 -0.0897  0.0287
24455W        W40529   2.670   5.134  11.320  0.0337  0.0582  0.1325
24456W        W40530   0.805  12.811   5.211 -0.2776  0.2398  0.1222
24457W        W40531   7.986   4.644  12.946  0.0390  0.0412 -0.1499
24458W        W40532  11.987  14.027   3.061 -0.1501  0.1923  0.0811
24459W        W40533   2.375   9.893  17.046 -0.0744  0.0940 -0.1096
24460W        W40534   3.678   0.978  15.815 -0.0224 -0.1815 -0.0049
24461W        W40535  15.963   3.549  16.500  0.0658  0.1168 -0.3649
24462W        W40536  13.153  11.072  12.922  0.2944  0.2631  0.2524
24463W        W40537   3.140   7.425  14.788  0.1227  0.1197  0.4071
24464W        W40538   0.236   7.136  13.900 -0.2998 -0.2059 -0.0917
24465W        W40539  17.256   7.097  13.146  0.1550 -0.0449 -0.1204
24466W        W40540   0.875   8.401   3.677 -0.3378 -0.1245  0.1737
24467W        W40541  15.093  10.041   3.503  0.2640 -0.0092 -0.1285
24468W        W40542  11.054   5.810   0.384  0.2385 -0.0063  0.2398
24469W        W40543   2.409   2.919  14.984  0.3930 -0.2959  0.4533
24470W        W40544  17.472   6.210   4.116  0.0685 -0.1450 -0.1739
24471W        W40545   9.794  10.262   3.449  0.2943  0.0074  0.2587
24472W        W40546  13.025  14.962  15.045  0.4654 -0.0582 -0.0386
24473W        W40547   4.227  11.542   1.195 -0.0478  0.0048  0.3629
24474W        W40548   2.671   5.491  11.670 -0.1193  0.1863 -0.1796
24475W        W40549   6.439  15.339   0.577  0.4287  0.0969 -0.1161
24476W        W40550  17.426   5.275  12.290 -0.0489  0.1145 -0.0289
24477W        W40551   7.441  10.089   2.673 -0.3220 -0.2330  0.1869
24478W        W40552   7.768  13.146   6.328 -0.1399  0.0649  0.0723
24479W        W40553   0.741   7.912   3.335  0.1900 -0.0603  0.1259
24480W        W40554   4.674  13.935   0.098  0.1925 -0.0591 -0.0542
24481W        W40555  14.245  12.677  14.767  0.1824  0.2322 -0.1607
24482W        W40556   4.163   4.856   4.831  0.0637  0.1203 -0.2289
24483W        W40557   3.422  14.179   4.310  0.2078  0.1217  0.3169
24484W        W40558  11.567  16.015  12.175 -0.1510  0.0541 -0.1716
24485W        W40559  17.270  16.560   1.571  0.2062 -0.1949  0.1639
24486W        W40560   4.797  15.583  17.114  0.0958  0.0055  0.0663
24487W        W40561  15.228   3.151   3.980  0.0503  0.2649  0.1427
24488W        W40562   0.942   4.048   5.557  0.0339 -0.3423  0.2766
24489W        W40563   2.752   8.162   5.026  0.1787 -0.0988 -0.0014
24490W        W40564   3.169  14.044   0.000 -0.1185  0.0303  0.0283
24491W        W40565  12.719   1.813  14.579  0.1261 -0.2058 -0.0102
24492W        W40566   8.785  10.523  15.060 -0.1348  0.0715 -0.0487
24493W        W40567   9.138  11.961   3.785  0.0735 -0.2441  0.2569
24494W        W40568   7.345   1.239   1.300  0.1336  0.1968  0.0551
24495W        W40569  13.944  15.858   0.439 -0.2131 -0.5072 -0.1343
24496W        W40570   4.427   0.379  12.386 -0.3278 -0.1397 -0.1218
24497W        W40571   3.097  12.549  11.590 -0.1971  0.1394 -0.2055
24498W        W40572  11.202  14.068   0.039  0.2426  0.1633  0.0927
24499W        W40573   4.187   1.839  15.678 -0.1835  0.1546  0.1133
24500W        W40574  14.363   8.903  14.479  0.0144  0.2051 -0.3538
24501W        W40575   5.259  17.433   0.638 -0.1462 -0.3146 -0.0495
24502W        W40576   7.063   6.671  16.464 -0.0814 -0.3859  0.0007
24503W        W40577  14.425   6.402  11.863 -0.0871  0.1429 -0.2111
24504W        W40578   2.219   1.974  13.894 -0.0529  0.1827  0.1119
24505W        W40579  11.439  11.632  12.697 -0.2016  0.0712  0.0135
24506W        W40580   1.876   5.113   1.622  0.2666  0.0659  0.0213
24507W        W40581  15.999   0.883  14.578  0.1657 -0.1113  0.1926
24508W        W40582  14.813   8.623   0.149 -0.0431  0.0011  0.2254
24509W        W40583   9.714   3.190  12.216  0.1584 -0.0187 -0.1687
24510W        W40584  11.266   1.312  15.858  0.0542 -0.0284 -0.1433
24511W        W40585  14.072  14.737  14.018 -0.0350  0.0099 -0.0048
24512W        W40586   1.002   3.044   3.922 -0.2385 -0.1889 -0.3680
24513W        W40587  13.329  12.878   0.834  0.0173  0.1640 -0.0264
24514W        W40588   5.385  16.724  13.218  0.0508 -0.0370 -0.0162
24515W        W40589   1.166   2.806  14.160  0.0718 -0.2583 -0.2325
24516W        W40590  11.653   1.871  13.189 -0.1252  0.1404  0.0908
24517W        W40591  15.549   4.179  12.155 -0.1052  0.0206  0.1590
24518W        W40592  13.901   3.695   3.005 -0.1274  0.3422 -0.0347
24519W        W40593   0.240   9.226   0.028  0.1367  0.1171 -0.1301
24520W        W40594   8.081   0.082  14.105  0.0860 -0.2288  0.2300
24521W        W40595  12.633   3.472  13.697 -0.3355  0.2074 -0.1396
24522W        W40596   8.280   1.926  11.961  0.2353  0.2342  0.0169
24523W        W40597  14.137  17.004  16.585 -0.0151  0.2247  0.0386
24524W        W40598   2.292  14.574  13.911 -0.0055  0.3203 -0.0332
24525W        W40599  10.386  14.273   6.027  0.0265 -0.1284  0.3607
24526W        W40600  13.621   3.806   4.226 -0.0301 -0.2214  0.3233
24527W        W40601   0.888  14.816   4.175 -0.1696  0.0583  0.1025
24528W        W40602  15.835  17.216   2.573 -0.1008 -0.1694 -0.0768
24529W        W40603   9.735  17.588   3.221  0.2819  0.2624  0.0389
24530W        W40604  14.861   0.749  12.464  0.3153 -0.2194 -0.0815
24531W        W40605   9.557   7.960   0.512  0.3668 -0.0519 -0.0142
24532W        W40606   3.385   6.804   2.012 -0.0314  0.1193  0.3416
24533W        W40607   5.440   6.345  15.702  0.2861 -0.0021  0.1979
24534W        W40608  14.250   9.466  14.312  0.1757 -0.0110 -0.1895
24535W        W40609   0.151   4.569  13.191  0.0445  0.1920  0.1257
24536W        W40610  16.683   3.535  12.434  0.0908 -0.0605  0.2332
24537W        W40611   8.676   3.841   3.920 -0.1681  0.0025 -0.0702
24538W        W40612   0.083  15.516  12.336 -0.2100  0.4919  0.1864
24539W        W40613   6.526   4.290  15.197 -0.0284 -0.0994 -0.0406
24540W        W40614   8.002   6.912   5.657  0.3727 -0.3725  0.0143
24541W        W40615   1.310   2.853  13.674  0.1601 -0.1816 -0.2712
24542W        W40616   8.766   3.188   2.788 -0.0945  0.0640  0.0415
24543W        W40617   3.243  10.206   3.723 -0.0781 -0.0837 -0.3106
24544W        W40618   7.377   8.159  13.971  0.0627  0.0359  0.1636
24545W        W40619   9.789  11.477   2.721 -0.0387 -0.2091 -0.1232
24546W        W40620   3.807   2.102   1.167  0.0283  0.1145  0.1359
24547W        W40621  10.144  10.917  13.577  0.2824  0.0003 -0.2460
24548W        W40622   2.425   1.070  16.730  0.0204  0.1259  0.2954
24549W        W40623  13.627  13.243   1.128  0.2002 -0.4578 -0.3000
24550W        W40624  13.869  14.851  14.461 -0.1539  0.4125  0.1121
24551W        W40625  12.098   5.498  12.250 -0.1846  0.0905  0.2530
24552W        W40626   9.405  10.612   2.770 -0.0588 -0.0497 -0.3039
24553W        W40627  11.263   1.369  16.953  0.3444 -0.0875 -0.2115
24554W        W40628  14.737   5.209   0.790  0.0451  0.0169  0.1636
24555W        W40629  14.253  14.244   1.120  0.0420  0.0351  0.0114
24556W        W40630   8.542   1.649  12.281  0.1377  0.0460  0.5342
24557W        W40631   9.261   4.581   5.444 -0.0951 -0.1521 -0.2497
24558W        W40632  14.380   2.468  16.020 -0.1286  0.1251  0.0991
24559W        W40633  16.715   7.275   3.643  0.0839 -0.1445  0.0403
24560W        W40634   9.844  16.868   4.838 -0.0859 -0.0350 -0.1224
24561W        W40635   4.027  10.884   5.089 -0.0894 -0.0433 -0.1816
24562W        W40636  15.113  15.158  15.868 -0.0689  0.0404 -0.2787
24563W        W40637   1.776   3.220  15.546 -0.1617  0.2047  0.0657
24564W        W40638   3.815   2.200   1.689 -0.1357  0.0144  0.2733
24565W        W40639  14.000  10.624   1.227 -0.0213  0.2236 -0.0945
24566W        W40640   3.248  14.070  15.358  0.2726 -0.2682 -0.1314
24567W        W40641  16.447   9.130  13.649  0.2288 -0.0263 -0.1471
24568W        W40642  17.663   1.681   3.992 -0.1939  0.0564 -0.1747
24569W        W40643   0.412  13.479   6.718 -0.1274 -0.1134 -0.1887
24570W        W40644  17.353   0.765  14.785  0.0396  0.0250  0.1385
24571W        W40645  14.509  12.726   5.234 -0.1984 -0.0297  0.0564
24572W        W40646  10.733   1.014  13.599  0.0796  0.3331 -0.1235
24573W        W40647  13.896   0.918   2.966  0.1382  0.2627  0.1741
24574W        W40648   9.631   2.736   3.581 -0.2755  0.3085 -0.0124
24575W        W40649  16.813  10.657   3.854  0.3091  0.3283 -0.1478
24576W        W40650  12.925  17.394  12.211  0.0218 -0.2572 -0.2990
24577W        W40651   5.155   2.847   1.995  0.1854  0.2322  0.2076
24578W        W40652   8.997   6.842  15.054 -0.1142 -0.0176  0.1121
24579W        W40653  13.265   1.881   3.571  0.0746 -0.2359 -0.0468
24580W        W40654   0.008   1.881   5.691  0.1415 -0.1324  0.2723
24581W        W40655  11.711  16.342  14.031  0.0425  0.1022 -0.1307
24582W        W40656  12.083  10.594   3.477  0.1204  0.2129 -0.3882
24583W        W40657  10.462  15.730  11.989 -0.0384 -0.1447 -0.0929
24584W        W40658  16.393  15.618  12.338  0.1195 -0.0480 -0.2946
24585W        W40659   3.955  13.376  11.933 -0.0782  0.0135  0.4338
24586W        W40660   3.183  10.396  12.551  0.0308  0.1266 -0.1602
24587W        W40661  16.042   9.352   1.976 -0.0889  0.0665 -0.3556
24588W        W40662   1.403   1.145   0.533  0.0441  0.1057  0.3676
24589W        W40663   9.338   7.750  12.301 -0.0719 -0.1546  0.3148
24590W        W40664  14.331  16.250  14.913  0.1353 -0.1339 -0.1231
24591W        W40665   8.655   3.481  13.673  0.1429  0.0699  0.1212
24592W        W40666   4.338   3.944   4.712  0.0811  0.1072  0.0538
24593W        W40667  15.120  14.285  14.537  0.1239 -0.1542  0.0280
24594W        W40668  12.888  14.456  15.484  0.2688  0.3115 -0.1982
24595W        W40669   5.390  12.598   3.781 -0.2428 -0.2405 -0.0201
24596W        W40670   8.001  10.510  16.399 -0.2062 -0.0135 -0.0738
24597W        W40671  10.167   5.227   4.736 -0.3428  0.3418  0.0509
24598W        W40672  14.506   1.333  13.243 -0.0862 -0.3501 -0.1536
24599W        W40673  15.817   3.156   0.149 -0.1786 -0.0734 -0.0427
24600W        W40674   5.209   4.710   2.106  0.0246  0.3709 -0.2311
24601W        W40675   5.636  13.141   0.913 -0.2781 -0.0095 -0.2270
24602W        W40676  12.372  13.839  15.412 -0.2609 -0.3539 -0.3961
24603W        W40677   3.771  10.591   1.151  0.1194  0.2820 -0.2158
24604W        W40678  11.667   2.383   3.674 -0.2878  0.2898  0.0218
24605W        W40679   7.191   3.385  16.651  0.0090  0.0368 -0.0288
24606W        W40680  11.001   0.113   0.688 -0.0093 -0.1765  0.0183
24607W        W40681   8.758   4.943  13.849  0.1634  0.1827 -0.4100
24608W        W40682   9.451  10.930   4.222 -0.3569 -0.0458 -0.3168
24609W        W40683   6.555  17.666  15.536 -0.1800  0.1323  0.2032
24610W        W40684   2.883   9.407   5.171  0.1186  0.2093  0.0522
24611W        W40685   1.325  12.784  14.383 -0.3948 -0.3310 -0.1857
24612W        W40686  17.660   1.409   1.314 -0.0726  0.1982  0.1976
24613W        W40687  13.054   8.409   2.997 -0.2907 -0.1641 -0.0699
24614W        W40688   9.513  16.074  11.928  0.0303  0.0317  0.0588
24615W        W40689   9.549  13.725  14.369 -0.1752  0.0545 -0.0565
24616W        W40690  12.129  17.626   1.793  0.0221 -0.1848  0.1442
24617W        W40691  13.928  15.901   0.956 -0.0312  0.1871  0.1496
24618W        W40692  16.325   4.067   2.516  0.2113 -0.1088 -0.0374
24619W        W40693   4.175   6.611   3.193  0.0049 -0.0119 -0.0988
24620W        W40694   1.803  17.523   1.987 -0.0906  0.3331 -0.0057
24621W        W40695   9.789  11.314   4.184 -0.1376  0.0201  0.1793
24622W        W40696  14.494   5.790  12.537 -0.2808 -0.1189  0.0414
24623W        W40697  10.920   5.001  12.537  0.1995  0.0236 -0.1576
24624W        W40698  10.043  16.585   2.146  0.0922 -0.1138  0.0839
24625W        W40699   2.676  11.527  16.964 -0.0748 -0.0313  0.1003
24626W        W40700   5.232   3.390   5.049  0.3888  0.1880  0.2598
24627W        W40701   7.464   1.920   0.585  0.0341  0.2676 -0.0748
24628W        W40702   7.125  11.134   5.688  0.1147 -0.4038  0.2624
24629W        W40703  11.895   3.043   1.290 -0.2586  0.1460  0.0975
24630W        W40704   5.389   9.557  15.094 -0.0973 -0.3854  0.1045
24631W        W40705  14.532   6.986   5.736 -0.0252 -0.1473 -0.1677
24632W        W40706   5.053  13.715  14.761  0.3122 -0.2530 -0.0269
24633W        W40707   3.530  11.388  16.889 -0.2718 -0.1519  0.0151
24634W        W40708   7.891   7.214   4.004 -0.1402 -0.2688 -0.2626
24635W        W40709   7.799   3.666  12.643  0.0336 -0.0140 -0.1824
24636W        W40710   5.160   9.551   5.656  0.1323 -0.2520  0.0422
24637W        W40711  11.519  12.474  14.487 -0.2840  0.0632 -0.2914
24638W        W40712  15.757   2.775  16.874 -0.1363  0.1185 -0.1053
24639W        W40713   8.460  14.243  16.326 -0.0924 -0.0796 -0.2865
24640W        W40714   1.589   9.607   6.099  0.0156 -0.0120 -0.3668
24641W        W40715  14.527   4.811  14.363 -0.0077 -0.0422  0.0431
24642W        W40716  13.051   2.336  16.769  0.0540  0.1300 -0.1920
24643W        W40717  14.234   2.792   3.256  0.1620  0.1554  0.1806
24644W        W40718   3.736  10.650   0.008  0.1109 -0.1348  0.0740
24645W        W40719  10.191   4.670   5.869  0.0735  0.3999  0.3264
24646W        W40720  17.288   8.040  11.481 -0.2007  0.3669  0.1384
24647W        W40721  11.111   7.897  16.180 -0.1648  0.1925 -0.0513
24648W        W40722   7.023  11.918   3.433 -0.0528 -0.0133 -0.1967
24649W        W40723  16.164  10.238   2.137 -0.1028  0.2287  0.2727
24650W        W40724   3.471   1.417   3.556  0.0567  0.0386  0.0291
24651W        W40725  14.911   6.335   5.083  0.4366  0.3003 -0.1692
24652W        W40726  14.901   8.773  16.833 -0.1799 -0.2493  0.2516
24653W        W40727  11.796  11.012   3.369  0.1714  0.1851  0.1840
24654W        W40728  11.351   8.132  12.164 -0.2753  0.1412  0.0911
24655W        W40729   9.309  10.449  14.973  0.1060  0.0617 -0.1244
24656W        W40730   7.988  11.895   5.554  0.0763  0.2397 -0.1766
24657W        W40731  13.150   9.175   0.703  0.2360  0.1290  0.0776
24658W        W40732   8.080   2.923   0.906  0.1865 -0.3751  0.3556
24659W        W40733   8.624   9.831   1.963  0.1598  0.1001 -0.1322
24660W        W40734   3.306   7.332   3.810  0.0980 -0.2030 -0.1075
24661W        W40735   3.633  12.289  13.192  0.2162  0.0613 -0.3718
24662W        W40736   6.774   1.797   6.336 -0.2532 -0.3367 -0.0756
24663W        W40737   6.810  17.134  15.821 -0.1680 -0.1848  0.0290
24664W        W40738  14.485  10.456   4.246 -0.1673  0.2548 -0.3200
24665W        W40739   2.547  17.649  13.747  0.0129 -0.0597 -0.0340
24666W        W40740  15.978   5.444  15.555  0.0764  0.0672  0.0918
24667W        W40741  14.370   4.905  12.186 -0.1254 -0.3729 -0.0975
24668W        W40742  13.770   1.408   2.722 -0.0235 -0.0816  0.0719
24669W        W40743  10.574   3.755   2.840  0.0740  0.1701  0.2344
24670W        W40744   6.084  10.944  16.199  0.0987 -0.0746 -0.0274
24671W        W40745   6.172  11.023   2.236  0.2197 -0.3110 -0.1757
24672W        W40746   9.220  12.845  15.388  0.0422 -0.0666 -0.0103
24673W        W40747   0.351  15.322  16.733 -0.0660 -0.2127  0.2149
24674W        W40748   5.787  15.124  16.319 -0.1602  0.1209  0.5050
24675W        W40749  15.855  16.314  16.135  0.3432  0.0008  0.1591
24676W        W40750   6.178   8.131  16.776 -0.4221  0.0405 -0.2062
24677W        W40751  13.621   1.425  14.621 -0.1691 -0.2076  0.1059
24678W        W40752  15.173   4.988   1.151 -0.1672  0.2837  0.4733
24679W        W40753   3.800  13.855  14.166  0.0661 -0.0461 -0.1689
24680W        W40754  11.281   5.525  15.748 -0.3020 -0.1003  0.0815
24681W        W40755  14.338   9.163  11.626 -0.1245  0.0939 -0.0548
24682W        W40756  16.567   0.014  11.618 -0.0155 -0.3987  0.2461
24683W        W40757  13.075  10.098   1.296 -0.2030 -0.1253  0.0855
24684W        W40758   5.026   9.985   1.082  0.0893  0.1147 -0.0756
24685W        W40759  15.670   4.549   1.118 -0.0511 -0.0106 -0.2886
24686W        W40760  13.415  13.256  16.720 -0.3205 -0.1046  0.0457
24687W        W40761  16.223  17.115  12.883 -0.0053 -0.3031  0.0110
24688W        W40762   0.203   5.918  16.219  0.1135 -0.0869  0.1217
24689W        W40763   9.120   8.634   1.397 -0.1893  0.2851  0.0091
24690W        W40764  16.916  16.264   1.290  0.1754 -0.2509  0.1237
24691W        W40765  16.979   2.696   5.426  0.0533 -0.0835  0.1118
24692W        W40766  14.498   8.188  14.349 -0.0857 -0.2620  0.2104
24693W        W40767  11.369  11.173  13.645  0.1551 -0.0297  0.1437
24694W        W40768   6.399  13.262   4.485 -0.3116 -0.1343  0.0803
24695W        W40769   9.763   4.228  13.478 -0.0082  0.1553 -0.1407
24696W        W40770   8.999  15.314  12.695 -0.2500  0.2196  0.0083
24697W        W40771  10.970  17.447   6.402  0.1722  0.4203  0.0007
24698W        W40772   1.771   3.011   3.578  0.3225  0.0439 -0.4148
24699W        W40773   5.973  13.804   4.653 -0.1164  0.1660 -0.1879
24700W        W40774  15.278  10.151  11.209 -0.1176  0.2404  0.1493
24701W        W40775  14.401   7.675   1.460 -0.2021 -0.4037  0.1675
24702W        W40776   5.284   4.667  13.105  0.1582  0.0611  0.0432
24703W        W40777   1.870  16.685   0.854 -0.0410 -0.1332  0.0322
24704W        W40778  11.020  11.040   5.512  0.0944  0.2439  0.1351
24705W        W40779   5.902  15.363   5.725 -0.0603  0.0658  0.0843
24706W        W40780  14.920  13.057   0.278  0.1736 -0.0539  0.0688
24707W        W40781  10.192   5.909   3.198 -0.2353 -0.0987 -0.0414
24708W        W40782  12.261   7.121   0.222 -0.0228 -0.0778  0.2851
24709W        W40783  17.341  14.789   2.356  0.1000  0.1702 -0.1562
24710W        W40784   9.048  10.853   0.821  0.0722  0.2048 -0.1135
24711W        W40785  11.377   5.828   1.654 -0.1499  0.0681  0.1992
24712W        W40786   1.956  16.893  12.370  0.0544  0.0534 -0.1209
24713W        W40787   5.440   8.855  12.462  0.4169 -0.0364  0.3689
24714W        W40788   8.512  10.738   2.200 -0.1088 -0.0218 -0.2793
24715W        W40789   5.246  12.670  15.269  0.1771  0.1667  0.2380
24716W        W40790   0.811  11.097  11.715 -0.0053  0.3066  0.2541
24717W        W40791  11.463  13.238  16.299  0.0578 -0.1840  0.0427
24718W        W40792  13.419  17.207  12.985 -0.1498 -0.1377  0.0731
24719W        W40793   3.274   6.062   2.091 -0.0580  0.1249  0.1787
24720W        W40794   7.040   7.397   2.638 -0.3732 -0.0436 -0.1384
24721W        W40795   2.469   0.536   4.584 -0.1962 -0.1552 -0.1638
24722W        W40796  13.313  16.233  11.669 -0.1352 -0.1942 -0.2282
24723W        W40797  11.392   8.173   0.855 -0.0523 -0.0058 -0.1036
24724W        W40798   2.739   6.341   2.952 -0.4837 -0.1062  0.1288
24725W        W40799  16.398  13.166   4.401 -0.2710  0.0250 -0.1188
24726W        W40800   9.953   5.146   1.225 -0.1550 -0.0129 -0.1287
24727W        W40801   0.974  16.439  13.918  0.3068  0.2782 -0.1781
24728W        W40802   8.383   2.265   3.998 -0.1991  0.2460 -0.2688
24729W        W40803  15.816  14.914   0.072  0.4643  0.2154  0.2898
24730W        W40804   9.779  10.399  14.857  0.3037 -0.0854 -0.0035
24731W        W40805  15.119   2.558   6.007 -0.2045 -0.1846 -0.0048
24732W        W40806  13.248   6.213  12.317  0.0369  0.0459 -0.0955
24733W        W40807   6.126   7.748   2.900 -0.1018  0.2611 -0.1561
24734W        W40808   6.992  16.044   4.194 -0.0135  0.0715 -0.2706
24735W        W40809   6.450   9.886   0.907  0.0155 -0.2100 -0.1754
24736W        W40810   5.405  17.273  14.001 -0.1065 -0.2494  0.1595
24737W        W40811   3.319   3.071   0.372  0.0396  0.3126 -0.3363
24738W        W40812   8.487  12.349   4.814  0.3995 -0.3464  0.3118
24739W        W40813   1.220   5.639   3.912 -0.0849  0.0628  0.0345
24740W        W40814   3.815   0.508  15.868 -0.0076 -0.0397  0.2648
24741W        W40815  11.135   7.129  16.747  0.0093  0.2861 -0.1254
24742W        W40816  12.946   5.912  13.441 -0.0964 -0.0897  0.2853
24743W        W40817   8.552   5.979   4.493 -0.0193 -0.0370  0.0569
24744W        W40818   8.900  12.862  15.770 -0.4074 -0.1289  0.0448
24745W        W40819   5.779  10.479  12.027 -0.0308 -0.1177 -0.0761
24746W        W40820  14.797   0.475   3.176 -0.2284 -0.0753 -0.0898
24747W        W40821   4.441  11.734  16.506 -0.1185  0.1239  0.0848
24748W        W40822   0.513   0.350  12.265  0.0524  0.3130 -0.0350
24749W        W40823  14.314  11.713  12.611 -0.1096 -0.0801 -0.0757
24750W        W40824  13.361   4.399   2.920 -0.0741  0.0970  0.1016
24751W        W40825   1.666   0.275   6.337  0.0849 -0.1304 -0.1125
24752W        W40826  16.917  16.902   3.465 -0.0185 -0.1847 -0.1313
24753W        W40827   0.632   5.763  11.772 -0.1334  0.0671  0.2525
24754W        W40828   7.216  12.319  14.745 -0.0688 -0.0889 -0.1408
24755W        W40829  17.188  10.158  12.394 -0.1362  0.0414 -0.2704
24756W        W40830  17.345   5.765   3.018  0.0230  0.2331 -0.0127
24757W        W40831   2.301  16.979   4.366  0.3970  0.0644  0.1796
24758W        W40832  11.283   8.396  13.694 -0.2951 -0.1415 -0.0987
24759W        W40833  15.782   5.300  15.123  0.1358  0.1367 -0.2098
24760W        W40834  15.832   9.403  12.293  0.0530  0.2150  0.1969
24761W        W40835   5.902   5.639  14.256 -0.1345  0.0147  0.1103
24762W        W40836   7.752   6.218   3.945 -0.0290  0.2503 -0.0383
24763W        W40837   6.031   1.459   2.607 -0.1775 -0.1790 -0.1009
24764W        W40838   7.392  13.640   1.055  0.0482  0.1090  0.0334
24765W        W40839  11.655  15.864   5.516  0.0036  0.0207  0.1071
24766W        W40840   7.636  10.958   2.531 -0.0523  0.0469 -0.2184
24767W        W40841  17.231   8.716   3.348 -0.0511 -0.2082  0.0142
24768W        W40842   8.277  16.812  12.780  0.2098 -0.0627 -0.1428
24769W        W40843  10.434  12.829   2.407  0.0722  0.2979  0.2003
24770W        W40844  10.376  11.209   0.508 -0.0169 -0.2240  0.5066
24771W        W40845  14.716  12.653  14.952  0.0217  0.1260 -0.0165
24772W        W40846   4.034  15.770  10.760  0.0607  0.1122 -0.0023
24773W        W40847   0.465   0.182  16.155 -0.0495 -0.0721 -0.3162
24774W        W40848   2.754   4.265   5.846  0.1031  0.0172  0.2088
24775W        W40849   6.467  17.167  13.302 -0.0683 -0.2598 -0.0711
24776W        W40850   5.797   4.689   3.285  0.0788  0.1179 -0.0877
24777W        W40851  15.408   2.780   0.060  0.0936  0.1998  0.0411
24778W        W40852  14.720   5.561   3.156  0.1176 -0.0936 -0.0398
24779W        W40853  16.811   2.200  12.104  0.0670 -0.1378  0.0822
24780W        W40854   3.658  13.775   6.023  0.1196 -0.1405  0.0527
24781W        W40855   0.677   0.927  15.197 -0.1864  0.0416  0.2716
24782W        W40856   9.065  10.108   4.424 -0.1238  0.0410  0.1832
24783W        W40857   0.902   7.116  17.119 -0.3022 -0.2620  0.0035
24784W        W40858  12.095   3.794   4.786  0.3771  0.0574 -0.0702
24785W        W40859   5.186   4.373   1.261 -0.1386  0.2885 -0.0584
24786W        W40860   8.008   2.883   4.553 -0.0137  0.1129 -0.2601
24787W        W40861   9.405   9.934  16.611 -0.1258  0.0763 -0.4158
24788W        W40862   9.822  14.663  13.404  0.1574  0.4803 -0.1153
24789W        W40863  13.288   9.962  11.926  0.3110 -0.2490  0.2242
24790W        W40864   4.126   1.118   0.428 -0.2486  0.1665 -0.1463
24791W        W40865   5.508   2.480  16.419 -0.1873 -0.1523  0.3104
24792W        W40866  12.032  12.304   1.604 -0.0032  0.1372  0.3124
24793W        W40867  13.667  11.394   1.487 -0.3221  0.0850  0.2422
24794W        W40868  15.387   1.624   2.416 -0.2884  0.1986  0.1244
24795W        W40869   2.296  11.113   2.440  0.0073  0.1822 -0.2572
24796W        W40870  10.270  13.309   2.288 -0.0221 -0.1154  0.3884
24797W        W40871  17.328   0.269  14.825  0.0582  0.2855 -0.1802
24798W        W40872   3.932   0.664   5.716 -0.3486 -0.0011 -0.1827
24799W        W40873  14.292  13.484  13.761 -0.0951 -0.1961  0.0903
24800W        W40874  13.786   8.906   3.136 -0.2189 -0.1905  0.0695
24801W        W40875   8.576   8.040   6.359  0.1367 -0.0029  0.0106
24802W        W40876   8.438   0.234  13.687  0.0392 -0.0386  0.1879
24803W        W40877   0.473   5.967   4.135 -0.0367  0.2439 -0.0271
24804W        W40878   7.308   6.937   2.182  0.3098  0.1545  0.1197
24805W        W40879   1.653  14.541  14.966 -0.4763  0.2396  0.0713
24806W        W40880   7.540  10.738  16.918  0.1624 -0.1438  0.1271
24807W        W40881  10.618   8.631  11.918 -0.0511  0.0416  0.4544
24808W        W40882  17.478  16.675   3.171  0.0926  0.0241 -0.1396
24809W        W40883   7.674   2.522  16.563 -0.0068  0.1467 -0.0497
24810W        W40884   2.375   3.193  13.412  0.4286  0.1045  0.0387
24811W        W40885   4.883   6.882   2.098  0.2526 -0.1812 -0.0518
24812W        W40886   7.136   4.277   5.829 -0.0229  0.0249 -0.0622
24813W        W40887  11.227   2.784   4.671 -0.6098  0.0421  0.1818
24814W        W40888   1.797   4.286  13.298 -0.0751 -0.0064  0.0048
24815W        W40889   5.517   0.906   1.428  0.1537 -0.2037  0.0393
24816W        W40890  13.233   3.473   4.892  0.2503  0.1297 -0.1491
24817W        W40891   7.763   9.859   3.095 -0.3043 -0.0764  0.0812
24818W        W40892   9.933   9.927   4.107 -0.0099 -0.0859  0.4158
24819W        W40893   6.094   7.707  15.317  0.1303  0.1252  0.0683
24820W        W40894  10.911  11.057   0.406 -0.0020 -0.1123 -0.0480
24821W        W40895   5.973  16.985  15.866 -0.2611  0.0133  0.2552
24822W        W40896  10.410  11.679  15.533  0.0119 -0.1134  0.1587
24823W        W40897   0.377  14.392  13.174 -0.1071  0.0612  0.1333
24824W        W40898   6.226   4.905   6.200 -0.2703  0.1023 -0.0726
24825W        W40899  12.651   5.142   1.361  0.4639 -0.0180 -0.2067
24826W        W40900  11.927   9.249   4.583 -0.0079  0.0486  0.1745
24827W        W40901  11.656   6.703   5.044 -0.1622  0.0104 -0.1222
24828W        W40902   3.929   1.330   1.762 -0.2283  0.3091 -0.1414
24829W        W40903  10.135  13.965  15.231 -0.2163  0.1989 -0.3509
24830W        W40904   9.475  12.294   3.646 -0.0264 -0.0994  0.0656
24831W        W40905  12.718  12.976  15.100  0.0605 -0.2194 -0.1888
24832W        W40906   2.380   3.607   3.222 -0.0902  0.0959 -0.1468
24833W        W40907   3.301  15.931  12.035 -0.2051  0.0995  0.2048
24834W        W40908  11.539  11.814  13.163 -0.2444 -0.3331 -0.0131
24835W        W40909   2.619  14.116  12.444 -0.0146  0.4951  0.1010
24836W        W40910  11.303   7.927   0.397  0.3702 -0.0905 -0.1350
24837W        W40911  11.465   7.941  13.010 -0.1058 -0.2924  0.0118
24838W        W40912  14.370  17.541   1.218  0.1744 -0.1142 -0.0951
24839W        W40913   6.669   8.049  13.619  0.2468  0.0980  0.0514
24840W        W40914   2.328  14.239   5.611 -0.1439  0.0394  0.0210
24841W        W40915   6.669   3.003  13.766 -0.3206 -0.1581  0.0167
24842W        W40916  13.750  15.387   2.363 -0.0994  0.1687  0.0024
24843W        W40917  17.320   2.321   1.708 -0.1314  0.0335 -0.0443
24844W        W40918   8.896   6.369  12.861 -0.0081 -0.0144  0.1612
24845W        W40919   8.949  16.012  11.840 -0.1129  0.1087  0.0139
24846W        W40920   9.400  15.837  13.710  0.0925  0.4309 -0.1409
24847W        W40921   2.405   3.587   3.961 -0.0230 -0.1107 -0.0115
24848W        W40922  12.715  12.736  16.875 -0.0740  0.0085 -0.0371
24849W        W40923   8.289   2.018  14.867  0.1245 -0.0290 -0.2674
24850W        W40924  10.911   9.410  13.776  0.0118 -0.0760  0.0430
24851W        W40925   5.611   5.576   6.396 -0.0331 -0.3675 -0.1268
24852W        W40926   9.662  14.306   4.859  0.0218 -0.1806  0.0961
24853W        W40927   6.957   5.483  14.971 -0.0665 -0.3307  0.1919
24854W        W40928   9.915  11.626   2.182  0.2525  0.0725 -0.1810
24855W        W40929   3.605  14.835   1.957 -0.2862 -0.2925  0.1402
24856W        W40930   7.633  14.077  16.953  0.0081 -0.1678  0.1744
24857W        W40931   9.859   1.209  15.900 -0.1559 -0.3220 -0.1579
24858W        W40932   0.664  10.957  16.640 -0.1675  0.0189 -0.1227
24859W        W40933  10.357   1.328  14.607  0.2016 -0.1554  0.0910
24860W        W40934  14.534  11.234  16.501  0.0988 -0.1825 -0.1033
24861W        W40935  13.926  10.657   3.654  0.2073 -0.0378 -0.4899
24862W        W40936   0.069   8.635   4.005 -0.0016 -0.0175  0.2255
24863W        W40937   5.107   4.945   4.324 -0.1757 -0.1172  0.1316
24864W        W40938   4.108   1.522   4.999 -0.1194 -0.1897  0.0268
24865W        W40939   8.062   6.777  15.304 -0.0234  0.0739  0.3413
24866W        W40940  11.106   7.156   2.483  0.0483  0.3541  0.0385
24867W        W40941  11.619  13.394   4.777 -0.0208  0.4066 -0.0161
24868W        W40942  16.839  12.694  14.530 -0.3415  0.0153  0.2965
24869W        W40943   3.918  14.570   2.604 -0.0953 -0.2272  0.1793
24870W        W40944  12.328   8.584  14.754  0.0871 -0.0149 -0.0743
24871W        W40945  12.077  13.944  13.825  0.0417 -0.1129 -0.3346
24872W        W40946   3.412   7.575   4.224  0.1172  0.0591  0.1233
24873W        W40947   1.266   6.676   3.284  0.0534  0.0223 -0.0031
24874W        W40948   9.670   8.010   6.169 -0.0095 -0.0246 -0.0244
24875W        W40949  12.440  13.063  16.525  0.1926 -0.1918 -0.1047
24876W        W40950   7.385   1.605  14.306 -0.0771  0.0312 -0.1281
24877W        W40951   8.744   0.706   5.518 -0.1620 -0.0810  0.0890
24878W        W40952  14.530   6.174   0.654  0.1348 -0.5076 -0.1066
24879W        W40953   7.528  11.945  11.831 -0.2370  0.0027  0.1445
24880W        W40954   8.893   1.095   5.125  0.1179  0.1565  0.0892
24881W        W40955  17.742   4.471  12.725 -0.1112  0.1958  0.1118
24882W        W40956  15.357   5.295  13.636  0.0276  0.3148  0.0090
24883W        W40957   5.539  17.080   3.944  0.0419 -0.0597 -0.0520
24884W        W40958   4.982   3.424  12.275 -0.1202 -0.0288  0.0876
24885W        W40959  14.709   1.961  13.741  0.2261  0.1945 -0.0865
24886W        W40960   5.254   1.477   4.876 -0.0334 -0.0643 -0.1434
24887W        W40961   2.943   4.706   6.605  0.1607  0.1197  0.0059
24888W        W40962   3.955  12.782   1.533  0.0349 -0.2040  0.2055
24889W        W40963   1.179   1.523  13.304 -0.2259  0.1635 -0.0938
24890W        W40964   5.658  10.921  12.892 -0.0936  0.0722  0.1550
24891W        W40965   2.259   0.357  12.867  0.3989  0.3025 -0.1650
24892W        W40966   2.443  14.107   2.494 -0.1543 -0.1671  0.3073
24893W        W40967   1.581  11.965   4.634  0.0531 -0.2311 -0.0675
24894W        W40968  16.772   7.810  17.100  0.0810 -0.1615  0.1415
24895W        W40969   1.196   3.092   0.046  0.1509 -0.1838  0.1005
24896W        W40970  15.821  14.966   4.620 -0.0517  0.3442 -0.0482
24897W        W40971   3.664   4.183   1.267  0.1358  0.0330  0.4177
24898W        W40972  17.044   0.086   0.793  0.1284 -0.0278 -0.1514
24899W        W40973  15.812  14.930   5.612 -0.0108 -0.2007 -0.1800
24900W        W40974   4.409   9.255   1.927  0.1437 -0.1906 -0.0141
24901W        W40975   4.563  14.681  13.156  0.3715 -0.2255 -0.2350
24902W        W40976   3.427   2.980  17.045  0.0473  0.0792 -0.3042
24903W        W40977   2.659   4.668  14.516 -0.6575  0.3291 -0.0275
24904W        W40978  13.127  14.783   5.290 -0.1492  0.0579  0.0515
24905W        W40979  15.227   7.898   1.682  0.1145 -0.0736  0.3301
24906W        W40980   8.451  14.930  15.004  0.2876 -0.1744  0.2282
24907W        W40981  16.970   5.715  14.462  0.0266  0.2446 -0.1003
24908W        W40982  16.269   4.488  15.728  0.0047  0.2656 -0.0659
24909W        W40983   3.228  12.935   4.468  0.1181  0.1060 -0.3347
24910W        W40984   0.886  14.449  12.908  0.3629  0.0431 -0.1171
24911W        W40985   0.832   9.599   4.316  0.0196 -0.3483  0.0023
24912W        W40986  13.808   8.055  14.994  0.2249 -0.1609  0.1054
24913W        W40987   2.121   9.405   2.124  0.1184  0.0532  0.0256
24914W        W40988  17.354   8.263   1.550  0.0409 -0.0878 -0.4743
24915W        W40989   7.235   4.735   4.048  0.1444  0.1681 -0.0278
24916W        W40990   4.752   4.857   3.077  0.0461 -0.1324  0.1920
24917W        W40991  10.806   0.053  16.456 -0.1880  0.0368 -0.1905
24918W        W40992  12.711  15.458  16.393 -0.0115 -0.0952  0.2052
24919W        W40993  17.327   9.579   3.827  0.1921 -0.1610 -0.0520
24920W        W40994   0.331  12.745  16.718  0.0015  0.4476  0.0855
24921W        W40995  16.325   7.852  13.784  0.3070  0.1270 -0.0483
24922W        W40996   0.682   0.701   1.622 -0.0601  0.0678  0.2606
24923W        W40997  15.758   1.928   4.137  0.1967 -0.2428  0.2459
24924W        W40998   2.122   2.669   5.160  0.1152 -0.0856  0.0679
24925W        W40999  11.661   3.345  14.770 -0.4112 -0.0172 -0.0421
24926W        W41000   1.113   1.918   5.056  0.0967 -0.1140 -0.1463
24927W        W41001   1.790   9.002   2.058  0.0917  0.0008 -0.0830
24928W        W41002   5.894   4.922  15.572  0.1370 -0.2745  0.4113
24929W        W41003  16.162  10.720   4.730 -0.0510 -0.0079  0.1591
24930W        W41004   5.017   4.638  11.952 -0.0505 -0.0297  0.2141
24931W        W41005  10.861  17.708  13.602 -0.1112  0.0233 -0.0509
24932W        W41006   5.158  10.950  11.935  0.2490  0.0555  0.1609
24933W        W41007   4.153  15.937   2.465 -0.1031 -0.2354  0.2105
24934W        W41008   5.823   6.898  16.505  0.0547 -0.0197  0.1119
24935W        W41009  14.292   7.980   5.346 -0.0009  0.0884  0.4146
24936W        W41010   9.707   7.803  16.303 -0.0374 -0.0472  0.1165
24937W        W41011   1.190   5.028  14.019 -0.1976  0.0101  0.1581
24938W        W41012   6.892  11.916  11.864 -0.0306 -0.1412 -0.2554
24939W        W41013   4.231  11.904   0.714 -0.0960  0.5729 -0.1517
24940W        W41014   2.583   9.620   4.905  0.0144  0.1107  0.2209
24941W        W41015   4.717  11.910  14.531 -0.3320 -0.0435 -0.1617
24942W        W41016  11.837   9.636  12.653  0.0432 -0.0106  0.0682
24943W        W41017   9.996  14.538   2.486  0.0813 -0.1627  0.0342
24944W        W41018  10.639   1.291  12.282 -0.0647 -0.0991 -0.0117
24945W        W41019  13.748  11.981  14.983 -0.1221 -0.0612 -0.0596
24946W        W41020   7.339  15.091  14.235  0.0534 -0.1928  0.0408
24947W        W41021   8.589   5.322  16.544 -0.0488  0.0147 -0.0104
24948W        W41022  13.331   9.570  14.463  0.0152  0.1383  0.0687
24949W        W41023   0.100   8.615  16.622  0.0395 -0.0555  0.1461
24950W        W41024   1.422   1.999   2.127 -0.1310 -0.1989 -0.0256
24951W        W41025  12.288   8.669  12.452  0.0076 -0.1548 -0.0441
24952W        W41026  13.278   1.903   0.935  0.0377 -0.0750  0.0718
24953W        W41027   6.356   7.241   5.112 -0.0564 -0.0668  0.0748
24954W        W41028  13.460   7.218  17.130  0.1604  0.3186  0.1670
24955W        W41029   1.203  14.060  15.286 -0.1301 -0.1120 -0.1238
24956W        W41030   4.598   4.061   2.498 -0.1905  0.0854  0.2282
24957W        W41031  17.616   2.713   5.338 -0.0430  0.1093 -0.0612
24958W        W41032   1.285   3.353   4.219 -0.1563  0.0500  0.0301
24959W        W41033   7.885  11.233   3.949 -0.1101 -0.1295  0.0780
24960W        W41034  10.513  16.699  13.806  0.1258  0.1981 -0.0907
24961W        W41035  12.056   9.214  15.113 -0.2870  0.2530 -0.0095
24962W        W41036   7.837   2.141  16.953  0.0189  0.1813 -0.2313
24963W        W41037   3.758   7.701  12.622 -0.0386  0.2396  0.1386
24964W        W41038  11.656   5.588  14.380 -0.1173 -0.0124  0.1170
24965W        W41039  14.978   3.764   3.820 -0.1370  0.0479 -0.0585
24966W        W41040   4.213  11.963   6.426 -0.1239 -0.1220 -0.0526
24967W        W41041   2.595  15.755  11.011 -0.0319 -0.1706  0.0025
24968W        W41042  16.463  16.317  11.125 -0.2074  0.1903 -0.0951
24969W        W41043  15.679  10.981  14.078  0.0387  0.0458 -0.1575
24970W        W41044   9.146  17.024  15.475  0.2586 -0.1743  0.0907
24971W        W41045   6.197   6.120   6.058 -0.2959  0.0907 -0.0870
24972W        W41046  14.135  16.723   5.757 -0.1333  0.0568  0.0134
24973W        W41047  14.789   2.815  15.726  0.1157 -0.0997 -0.0883
24974W        W41048  14.652   9.199   4.448 -0.0033 -0.1665  0.2458
24975W        W41049   4.073  15.772   5.461  0.1203  0.2841 -0.3517
24976W        W41050  13.978   8.175  12.144 -0.1554  0.0136 -0.2821
24977W        W41051   3.780  12.334   1.284  0.0050 -0.0977  0.2065
24978W        W41052   5.048   0.922   4.903  0.0133 -0.2038 -0.0571
24979W        W41053   0.944   4.455  15.196 -0.0398  0.0466  0.1223
24980W        W41054  17.429   7.217  12.710 -0.1101  0.0216  0.1858
24981W        W41055   3.373   1.338  15.619  0.0842 -0.1531 -0.2406
24982W        W41056  13.606  13.797  12.146  0.1183  0.1742 -0.1096
24983W        W41057   5.337   7.569   1.697 -0.1380  0.0940 -0.2011
24984W        W41058  13.460   4.619  13.110 -0.4948  0.1565  0.0851
24985W        W41059   8.871   0.656  12.379  0.2730  0.1021  0.0430
24986W        W41060   5.684   5.096  11.739 -0.0617  0.2018 -0.2600
24987W        W41061  13.642   2.788  12.568  0.0931 -0.3068  0.0414
24988W        W41062  15.615   0.859  12.562 -0.0196  0.0837 -0.1694
24989W        W41063   7.526  14.943  11.939  0.2817 -0.1211  0.2197
24990W        W41064  16.633   9.094   2.506  0.3495 -0.0342 -0.0194
24991W        W41065   5.474  12.835   5.974 -0.0142  0.5376  0.2449
24992W        W41066   5.304   6.074  12.781  0.1893 -0.2268 -0.1965
24993W        W41067   9.702  10.544   0.209  0.1764  0.0847  0.1521
24994W        W41068   3.604   0.560  12.736 -0.2602 -0.1160 -0.1609
24995W        W41069   1.116   2.889   0.558  0.1441 -0.1054  0.2226
24996W        W41070   4.406   2.933  11.608  0.0831  0.1452 -0.5056
24997W        W41071  11.899   9.413  11.481  0.2575 -0.3149  0.0835
24998W        W41072  14.381  13.287  15.613 -0.0781 -0.0825  0.0531
24999W        W41073   9.088   8.813   4.775  0.1674 -0.2944 -0.3926
25000W        W41074  12.732  17.717  15.475  0.1371 -0.1475  0.0158
25001W        W41075  13.327  12.827  13.013  0.1189  0.1812 -0.3408
25002W        W41076   3.081   7.930  11.773  0.4212  0.0303  0.3604
25003W        W41077  17.336   7.882   1.167  0.1458  0.1600 -0.1246
25004W        W41078  16.979  13.667   0.686 -0.0332 -0.1306 -0.1824
25005W        W41079   9.047   3.559   4.388 -0.0606 -0.0101  0.0289
25006W        W41080  15.092  14.964   1.207  0.1994 -0.1479  0.2601
25007W        W41081   6.702  11.340   1.599 -0.1067  0.0791  0.0507
25008W        W41082   2.812  16.579  16.019  0.1675 -0.0726  0.0405
25009W        W41083  14.121   4.686   4.262  0.0734  0.0191  0.4753
25010W        W41084   5.590   9.902  13.257  0.1779 -0.3344 -0.0106
25011W        W41085   7.802   3.174   1.296  0.1897 -0.0751 -0.1393
25012W        W41086   7.259   4.664  11.920 -0.1406  0.1328  0.0203
25013W        W41087  11.076   3.286   3.599  0.0776  0.2160 -0.0012
25014W        W41088   3.442  16.996   2.599 -0.2750  0.1036 -0.2247
25015W        W41089   8.963   1.211  16.397 -0.0382  0.0258  0.1664
25016W        W41090   5.231   7.400  12.600 -0.0400  0.0623 -0.1645
25017W        W41091  10.769   1.743   4.761 -0.0399  0.0820  0.0079
25018W        W41092   9.353  11.580   4.013 -0.2959 -0.2264  0.1459
25019W        W41093  10.609   3.305  11.944 -0.0534  0.0351 -0.0968
25020W        W41094   4.715   4.771  13.209  0.1304 -0.0362  0.0920
25021W        W41095   3.596   0.964  16.942  0.3864 -0.3436 -0.1333
25022W        W41096  10.133  17.166   1.524  0.1258  0.1910  0.2371
25023W        W41097   0.862   8.882   1.354  0.0400 -0.1397  0.0491
25024W        W41098   2.611   7.298   0.294 -0.0477  0.1296  0.1176
25025W        W41099   0.231  12.246  16.791  0.0506 -0.0097 -0.3092
25026W        W41100  14.704  17.035   5.669  0.2278  0.2577 -0.1014
25027W        W41101   3.335  16.333  12.797 -0.1531  0.0184  0.2424
25028W        W41102   3.529  11.020   3.086  0.2181  0.2126  0.0886
25029W        W41103   6.114   4.846  16.960 -0.1718  0.0489 -0.2213
25030W        W41104   5.767   3.525  13.146 -0.1440  0.4381 -0.0072
25031W        W41105   6.056   6.940  13.756  0.2439 -0.1937  0.0471
25032W        W41106   1.442  13.854  16.103  0.0455  0.2560 -0.0640
25033W        W41107   6.434   7.033   3.212 -0.1269 -0.1584 -0.2561
25034W        W41108  13.208  16.665   1.854  0.0111  0.1612  0.3102
25035W        W41109   4.500   0.029  11.954  0.3268  0.0836 -0.2618
25036W        W41110  13.106  17.294   2.237 -0.0610 -0.0661  0.0255
25037W        W41111   6.009   2.814   0.562 -0.0271  0.0229 -0.1569
25038W        W41112  15.479  16.336   2.942  0.3648 -0.1655  0.1468
25039W        W41113   1.018   9.715   3.730  0.2953  0.1711  0.1575
25040W        W41114   0.655   4.945  13.897  0.1021  0.0074  0.2366
25041W        W41115  16.475   4.593   3.565 -0.1796 -0.0317  0.3312
25042W        W41116   0.402   6.728  14.720 -0.1688  0.1525 -0.4162
25043W        W41117   9.880   7.721   5.176 -0.2241  0.2615 -0.2521
25044W        W41118  11.750  12.910   0.001 -0.0100 -0.0273 -0.1245
25045W        W41119  13.956  17.372   6.019 -0.0908  0.1074 -0.1290
25046W        W41120   9.073   5.091   6.150  0.0346 -0.0297  0.0657
25047W        W41121  12.191  11.259  12.655 -0.4132 -0.3615 -0.0521
25048W        W41122   2.878   8.605  15.361 -0.0393 -0.1240  0.0949
25049W        W41123   7.693   3.756   0.483  0.0153 -0.0438 -0.1033
25050W        W41124  10.471   0.941   2.545  0.2448  0.0274  0.1157
25051W        W41125   0.986   9.334   0.451 -0.0708  0.1469 -0.1510
25052W        W41126  16.010   5.197  12.838 -0.0399  0.2986 -0.1709
25053W        W41127  14.608   9.261   5.434 -0.1318  0.0256  0.1131
25054W        W41128   4.161   0.681  15.078 -0.3040 -0.1770 -0.1029
25055W        W41129   4.489   3.001   3.110 -0.2609 -0.0193 -0.1526
25056W        W41130   6.273  13.555  16.976  0.2708 -0.0956  0.0455
25057W        W41131   4.366  15.584  13.114  0.0867  0.0393 -0.0365
25058W        W41132  10.661   0.189   0.038  0.2778  0.0532  0.0435
25059W        W41133   2.734  15.957  15.306 -0.0007 -0.1040 -0.1470
25060W        W41134   3.017   7.728  12.454  0.1367 -0.0855 -0.0986
25061W        W41135  10.710   9.902   4.756  0.1849  0.0280 -0.0920
25062W        W41136   2.931   0.219   3.734  0.2231  0.1715 -0.0419
25063W        W41137   3.689   9.124  14.915 -0.1272 -0.1019 -0.0695
25064W        W41138   1.618   6.038  15.016 -0.3017  0.3489  0.3442
25065W        W41139  13.764   0.543  16.926  0.2241 -0.1530 -0.0964
25066W        W41140   3.753  16.604   2.918  0.0832 -0.1079  0.0242
25067W        W41141  12.798  15.470  16.939 -0.2428  0.0391 -0.0191
25068W        W41142   7.571   9.903  16.250 -0.2047 -0.4806 -0.2133
25069W        W41143   4.320   5.754   1.577 -0.0482  0.3646  0.2683
25070W        W41144   0.225  11.784   1.137 -0.3568  0.0409 -0.0119
25071W        W41145  15.994   5.661  13.067 -0.2076 -0.2208 -0.1033
25072W        W41146  17.284   5.824   5.760 -0.1174 -0.1098  0.1839
25073W        W41147   8.122   8.991   1.610  0.0916 -0.1562 -0.0942
25074W        W41148   0.505   9.698  15.327 -0.1174 -0.2985 -0.1451
25075W        W41149   9.333  12.637   4.587  0.3110 -0.0478  0.1302
25076W        W41150  15.838   6.731   5.338 -0.1526 -0.0106  0.1009
25077W        W41151   3.336   1.338  12.649  0.2876  0.1694  0.3924
25078W        W41152  11.995  13.364  12.637  0.0046  0.0659  0.2575
25079W        W41153   2.277  10.272  13.084  0.2042  0.0139  0.1115
25080W        W41154  12.393   8.657   0.709 -0.2623 -0.0707  0.0737
25081W        W41155   7.143  12.569   3.076 -0.1234  0.1110  0.0462
25082W        W41156  15.231   6.850  12.693  0.1943  0.2049  0.1146
25083W        W41157  10.567   4.329   5.749 -0.3652 -0.0929 -0.4745
25084W        W41158   5.596  17.033   0.368 -0.0513  0.1251  0.0781
25085W        W41159  17.196  10.304  16.172 -0.0592 -0.1166  0.2270
25086W        W41160   7.622   9.332  15.467 -0.2496 -0.0483 -0.1452
25087W        W41161  11.851   2.781  16.530  0.0228  0.3477  0.2299
25088W        W41162  13.132   8.744   5.258  0.0108 -0.0402  0.0339
25089W        W41163  16.984   8.938  11.837 -0.2233 -0.0412 -0.1349
25090W        W41164   5.203  12.976  11.603 -0.0868 -0.2293  0.0417
25091W        W41165   8.522  15.901  15.575  0.1941 -0.4664 -0.0217
25092W        W41166  15.612   4.894  12.951  0.0185  0.2044 -0.2944
25093W        W41167   8.771   8.465   4.950  0.0945 -0.0611 -0.0231
25094W        W41168   1.248   8.203  12.007  0.4839  0.1795  0.2006
25095W        W41169   4.294   8.403   5.924 -0.1063 -0.0836  0.1439
25096W        W41170  15.583   1.274  14.622  0.0971  0.0657  0.4006
25097W        W41171  16.925  12.462   3.677  0.1614 -0.0745  0.2699
25098W        W41172  16.731  12.143   1.085  0.4493 -0.0760 -0.1984
25099W        W41173   7.014   0.008   4.189  0.3143  0.1555 -0.1552
25100W        W41174   7.330  15.258   3.993 -0.3489  0.1607 -0.0145
25101W        W41175   3.323   9.523  13.574  0.0647 -0.0672 -0.0570
25102W        W41176   2.841  12.159  12.820  0.1201  0.1618  0.5247
25103W        W41177  13.386   8.758   4.171  0.0081  0.0418  0.0520
25104W        W41178   5.177   5.014   3.832 -0.2530 -0.2678 -0.0497
25105W        W41179   2.783   2.892  15.493 -0.0334 -0.2176 -0.0175
25106W        W41180  15.538   6.797   0.616 -0.0527 -0.0960  0.2971
25107W        W41181   6.042  11.338  15.863  0.2255 -0.1337 -0.1090
25108W        W41182   1.273  13.169  14.891  0.2865  0.1293  0.0029
25109W        W41183   3.471   2.195   4.923 -0.3621 -0.0676 -0.1101
25110W        W41184  11.460   0.071   4.939 -0.0897 -0.1642 -0.4253
25111W        W41185   9.431  12.715  14.030 -0.3722 -0.0322  0.0041
25112W        W41186   9.606  15.918   0.056 -0.1458  0.0575  0.0038
25113W        W41187  17.287  14.946   3.158  0.0246  0.0646 -0.0328
25114W        W41188  13.035   9.093   4.220 -0.2536  0.0660  0.0326
25115W        W41189  12.471   0.776   0.954 -0.1537 -0.1730 -0.0956
25116W        W41190  10.066   8.172   6.467 -0.2444 -0.0861  0.1803
25117W        W41191  15.171   9.057   3.608  0.0992  0.0863  0.0091
25118W        W41192  14.542  11.485   4.323 -0.2577  0.1060  0.2008
25119W        W41193   6.716   5.870   2.617  0.0565  0.2128  0.0096
25120W        W41194   7.450  12.756   2.115 -0.1919 -0.0396  0.3063
25121W        W41195  13.457   7.764  15.757 -0.0498  0.1727  0.0769
25122W        W41196   6.136  15.956   3.519  0.0828 -0.0722 -0.1612
25123W        W41197  16.288   8.106  12.624 -0.0768 -0.1422  0.1313
25124W        W41198   0.356   1.018   4.671  0.0756  0.0098  0.1385
25125W        W41199  17.735  17.460   0.393 -0.0882  0.0107 -0.0167
25126W        W41200   6.019   2.713   4.871  0.1100  0.1517 -0.1450
25127W        W41201  10.389   8.312   1.072  0.0979  0.0689 -0.3228
25128W        W41202  10.659  11.421   1.080 -0.1616 -0.1629 -0.1477
25129W        W41203   7.825   4.282   5.520 -0.0133 -0.1941  0.1169
25130W        W41204  17.140   9.032  13.480  0.1211  0.1703  0.1963
25131W        W41205  11.648  11.362   0.598  0.0004 -0.1808 -0.1564
25132W        W41206   5.568   7.346   0.147 -0.0762  0.1760 -0.1151
25133W        W41207   7.691   8.012  16.108 -0.1831 -0.1331 -0.3367
25134W        W41208   1.492  16.806   1.414  0.0973 -0.1569 -0.1028
25135W        W41209   7.690   0.749  14.097 -0.0242  0.1092  0.1999
25136W        W41210   6.300  11.578   2.159 -0.0506 -0.0289  0.1863
25137W        W41211   2.889  11.040   1.341  0.1674  0.2085 -0.2193
25138W        W41212   1.495   2.808   3.227 -0.0253  0.2907 -0.4584
25139W        W41213  12.082   1.752   5.238  0.0502 -0.0502  0.4242
25140W        W41214  12.654   6.207  12.022 -0.1569  0.0989 -0.1710
25141W        W41215  13.368   7.087  16.161 -0.2315 -0.3765 -0.1397
25142W        W41216   0.863   6.526   1.523  0.1862  0.0330  0.0659
25143W        W41217  15.690   3.211  15.509 -0.1699 -0.1302  0.2135
25144W        W41218   8.682  16.735  14.562 -0.0933  0.0662  0.2981
25145W        W41219   5.220   5.176  15.884 -0.0695 -0.1151  0.2838
25146W        W41220  14.071  12.603   0.054  0.0007 -0.0284  0.0346
25147W        W41221  13.812   7.024   0.346 -0.0677 -0.2761 -0.0596
25148W        W41222   1.598   4.000   5.413 -0.4542 -0.1525 -0.2095
25149W        W41223  16.624  12.002   4.655 -0.2297 -0.0062 -0.0191
25150W        W41224   4.729  11.577  13.611  0.1231 -0.0033 -0.0575
25151W        W41225   7.075   3.641   2.575 -0.1038  0.0222  0.0276
25152W        W41226  16.869   4.204  13.255  0.0276  0.1473  0.2142
25153W        W41227  17.695  11.010  12.290  0.2983  0.0241  0.2158
25154W        W41228   5.263   1.580  16.248 -0.0003  0.1941 -0.2441
25155W        W41229  15.765   0.346  14.736 -0.1478  0.1019 -0.2732
25156W        W41230   5.051  15.638  14.300  0.0678  0.0836  0.3339
25157W        W41231   1.415   1.223   4.517 -0.0904 -0.1230 -0.0440
25158W        W41232   7.108   2.940   1.393  0.0735  0.2389 -0.0511
25159W        W41233   0.262   7.690  12.972  0.2033 -0.3920  0.1129
25160W        W41234   0.852  16.669  16.946 -0.1907  0.0707  0.0308
25161W        W41235  11.335   4.417  12.413  0.1550 -0.0581 -0.3161
25162W        W41236   5.675   1.428  14.046 -0.1736 -0.1414 -0.0818
25163W        W41237   4.712  13.429  13.049 -0.0606 -0.0177  0.0571
25164W        W41238   8.265   9.972  17.113  0.3732 -0.0728  0.3184
25165W        W41239  15.333  13.805   3.014 -0.1660  0.0701 -0.1417
25166W        W41240   5.274   4.606   0.750  0.2029  0.2691 -0.2461
25167W        W41241   9.162  14.439  11.548 -0.0013 -0.0878 -0.1940
25168W        W41242  13.436   9.560   0.701  0.0993 -0.1128 -0.3426
25169W        W41243   4.917   2.515  14.037 -0.0961  0.1408  0.1449
25170W        W41244   5.763  17.464   3.537 -0.1045  0.1540  0.1219
25171W        W41245  12.223   7.002  11.875  0.0225  0.0746 -0.0087
25172W        W41246   2.608   5.234  12.536 -0.0243  0.3352  0.1100
25173W        W41247   0.983  13.347   0.607  0.0122  0.0825 -0.0219
25174W        W41248   9.853   5.024  16.523  0.2095  0.0917  0.1171
25175W        W41249   1.671  16.414   3.675  0.1562  0.3122  0.0257
25176W        W41250  17.028   1.500   2.350 -0.1163 -0.0950 -0.0076
25177W        W41251   4.290   8.479  12.745  0.0431  0.2071 -0.3107
25178W        W41252   1.642  14.872  15.348 -0.3937 -0.0754 -0.1347
25179W        W41253  13.476  12.319   2.699  0.1561  0.2288 -0.0740
25180W        W41254  13.245   9.644  13.162  0.0497  0.1232  0.0411
25181W        W41255  10.533  15.685  12.918  0.5410  0.2157  0.1598
25182W        W41256  10.257  16.690   0.602  0.0649 -0.0910 -0.3189
25183W        W41257   2.710   0.781  11.955  0.2562  0.2033 -0.0946
25184W        W41258  14.247  12.315  16.807 -0.2199  0.1192 -0.0307
25185W        W41259   7.772  11.036   4.821 -0.0790  0.0394  0.0379
25186W        W41260  17.450   6.883   1.612  0.0130  0.0007  0.0426
25187W        W41261   0.460  12.134  13.690 -0.2524 -0.2184  0.0502
25188W        W41262  10.905   2.099  15.978  0.0901  0.2349 -0.3236
25189W        W41263   6.661  10.616   4.427  0.0882 -0.0781 -0.0311
25190W        W41264   2.923  16.702  12.551 -0.2248 -0.1663 -0.0539
25191W        W41265  17.578  14.701   6.293  0.1155  0.2958  0.0024
25192W        W41266   3.449  10.067  12.211 -0.1035  0.2019 -0.2468
25193W        W41267   2.970  17.048  15.802  0.2116  0.1701  0.4547
25194W        W41268   3.440   0.201  13.616  0.2394  0.2280 -0.0464
25195W        W41269  14.035   4.194   6.468 -0.4526 -0.1018 -0.0667
25196W        W41270   8.887   9.672  16.664  0.1307 -0.3047 -0.1383
25197W        W41271   3.199   2.761  12.328  0.2628  0.2822  0.0821
25198W        W41272   7.644   8.886  16.712  0.0724 -0.1202  0.0161
25199W        W41273   9.384  16.857   5.230 -0.1109 -0.1304  0.0646
25200W        W41274  14.381   5.109   4.612 -0.1316 -0.0571  0.1076
25201W        W41275  15.732  11.985   1.399  0.2184  0.0952 -0.1313
25202W        W41276  14.647   3.007  12.879 -0.1931  0.2114  0.1626
25203W        W41277   4.289   7.946   5.591 -0.3797  0.1142 -0.3124
25204W        W41278   2.246   7.292  13.929  0.0729 -0.0794 -0.0902
25205W        W41279   4.537   6.526  14.425 -0.0592  0.1813 -0.2039
25206W        W41280   0.218   3.947  13.998 -0.0377 -0.3154 -0.2455
25207W        W41281   4.440  10.911  11.648 -0.1317  0.1429  0.2340
25208W        W41282   2.647   2.627  13.301 -0.1213 -0.0129 -0.0152
25209W        W41283  15.829  15.970   2.959 -0.0410 -0.0545  0.1113
25210W        W41284  12.615  15.389   3.126  0.2576 -0.1164  0.2011
25211W        W41285   0.215  14.727  15.785 -0.3994 -0.0642  0.0921
25212W        W41286   3.112   8.100   2.828  0.0757  0.1082  0.1502
25213W        W41287   8.677   6.126   2.180  0.0607  0.2739  0.3399
25214W        W41288  13.296   3.896  16.400 -0.0715  0.1647  0.1585
25215W        W41289  16.384   2.280   6.625 -0.1243  0.0074 -0.1129
25216W        W41290   1.033  14.374   4.380  0.0423 -0.0298 -0.0255
25217W        W41291   8.181  14.512  14.634  0.1472  0.2015  0.0399
25218W        W41292   5.430   3.271   1.931 -0.1213 -0.0106  0.0214
25219W        W41293  12.818   5.717  12.789 -0.0691 -0.1405 -0.2198
25220W        W41294  10.943  15.910   0.788 -0.0798 -0.1257  0.3504
25221W        W41295  16.517  14.340   3.378  0.1353  0.0412 -0.1418
25222W        W41296   4.699   1.334  16.813  0.0958 -0.3514 -0.2246
25223W        W41297  10.797  12.510   5.595 -0.1733  0.1099  0.1148
25224W        W41298   7.889  15.609   5.937  0.0152  0.1330  0.3099
25225W        W41299  12.825  16.257   1.971  0.1643 -0.0517 -0.1012
25226W        W41300   8.032  14.704   0.776  0.2195  0.1613 -0.1267
25227W        W41301   0.863  15.940   4.723 -0.0899 -0.1393 -0.3131
25228W        W41302   8.185  17.341   4.670 -0.0253 -0.3243 -0.1232
25229W        W41303   5.733  12.079  14.518 -0.0909 -0.2150  0.2988
25230W        W41304  11.214  17.708   1.183  0.4623  0.1188 -0.2225
25231W        W41305   9.927  14.138  16.419  0.1130 -0.1232 -0.0479
25232W        W41306  15.900  15.776  15.467 -0.3383  0.3256  0.0673
25233W        W41307   0.113  17.614  17.102 -0.2760 -0.3389 -0.0725
25234W        W41308  17.663   4.226   4.947 -0.5294 -0.0956  0.0868
25235W        W41309  15.446  14.485  14.231  0.1364 -0.0997 -0.1095
25236W        W41310  14.900   4.995  13.503 -0.3247 -0.1196 -0.0365
25237W        W41311   1.706   0.554  12.941  0.0170  0.1546  0.0098
25238W        W41312   9.767   0.810  16.993 -0.1515  0.0956 -0.2361
25239W        W41313   5.768  17.637  16.725  0.1437 -0.0579  0.0433
25240W        W41314   8.590  10.626   2.686 -0.0250 -0.1124 -0.1501
25241W        W41315   6.064   2.939   1.352 -0.0094  0.0544 -0.1995
25242W        W41316   9.870   6.459  17.107 -0.0740 -0.3871 -0.3747
25243W        W41317   4.261   2.214  13.019  0.0180 -0.1719 -0.2574
25244W        W41318  15.052  16.788   3.513 -0.1891 -0.0945 -0.2583
25245W        W41319   8.688  16.659   2.228  0.4181 -0.0718  0.0985
25246W        W41320   3.193  15.989   1.417 -0.0749  0.1761 -0.0984
25247W        W41321  17.623   3.653   2.577 -0.0086  0.0787 -0.4276
25248W        W41322   2.030  11.829   4.476  0.0744 -0.1830  0.1533
25249W        W41323   1.248  16.210  14.232 -0.0353  0.0403  0.2845
25250W        W41324  17.341  14.368  16.571  0.0541 -0.2747  0.0209
25251W        W41325   5.856   7.896   3.927  0.2756 -0.1054 -0.3317
25252W        W41326  13.082  10.607   5.544  0.3196  0.3990 -0.1061
25253W        W41327   8.234   4.050  11.852  0.1562  0.0669 -0.2456
25254W        W41328  12.818   1.640   2.228 -0.4241 -0.1321  0.3542
25255W        W41329   8.192   5.738  15.600 -0.1670 -0.3038 -0.1125
25256W        W41330  15.722   9.447  13.335 -0.0072  0.1366 -0.1358
25257W        W41331  14.325   0.498   1.434 -0.0800 -0.2714 -0.1651
25258W        W41332  13.591   2.605  15.393  0.1279 -0.1805  0.1527
25259W        W41333   4.466   4.068   3.303 -0.2937  0.0723  0.0185
25260W        W41334  13.008  14.546  16.563 -0.0959 -0.3702  0.0302
25261W        W41335  11.504  10.908   0.362  0.3624 -0.0446 -0.3599
25262W        W41336  15.094   1.051   1.584  0.1471  0.0279 -0.0877
25263W        W41337  17.668  11.577  13.420  0.2994 -0.0880  0.0146
25264W        W41338  16.950  15.248  11.986 -0.1335 -0.3741  0.0850
25265W        W41339  12.371   3.366  16.469 -0.0038 -0.1542 -0.2075
25266W        W41340  17.736   9.979   2.111  0.0638 -0.0664  0.5294
25267W        W41341   8.787   4.547  16.027 -0.1908  0.0662 -0.2374
25268W        W41342   2.476   1.297   2.456 -0.0995  0.1817  0.0997
25269W        W41343  14.235  16.615   0.216  0.0112  0.9863  0.0600
25270W        W41344   8.979  12.074  11.856 -0.2648 -0.1972  0.0334
25271W        W41345   8.255   5.724   3.462 -0.0667 -0.4250  0.0752
25272W        W41346   0.961   5.240   5.041  0.0454 -0.1044 -0.0427
25273W        W41347   1.293  10.619  14.635  0.1459 -0.0035  0.0726
25274W        W41348   0.116  14.415  12.724 -0.2054 -0.0514 -0.1956
25275W        W41349  16.591  12.352   1.531 -0.1191 -0.1934 -0.1519
25276W        W41350  17.667   0.284  15.396 -0.0251 -0.0227 -0.0327
25277W        W41351  11.866  12.650   5.294  0.1492 -0.0994  0.1051
25278W        W41352   7.340  10.059   5.423 -0.1341 -0.0190  0.0899
25279W        W41353   6.221   3.159  12.268  0.0808  0.1609 -0.0188
25280W        W41354  16.128   6.096  16.009 -0.3159 -0.2178 -0.2846
25281W        W41355   2.014  15.282   0.778 -0.0678 -0.1587  0.4136
25282W        W41356   9.452   5.808  15.572  0.0215  0.0697  0.0760
25283W        W41357   4.449   1.846   3.644 -0.1285  0.0482 -0.0532
25284W        W41358   5.902   5.895   2.271 -0.0587 -0.2931 -0.0088
25285W        W41359   8.568  12.296  14.595 -0.0596  0.0973  0.0345
25286W        W41360  15.260   5.238  14.485 -0.1396  0.0569 -0.1361
25287W        W41361   7.221   2.204   5.567 -0.0265 -0.1515  0.1701
25288W        W41362   9.202  15.418   2.107 -0.1690  0.1631  0.1293
25289W        W41363   2.675  17.599  12.204 -0.2536  0.0881  0.4261
25290W        W41364   0.136   3.482  12.861 -0.0134  0.0670  0.1224
25291W        W41365   1.000  11.136   1.358  0.2729 -0.1242  0.1656
25292W        W41366  16.984   6.838  13.537 -0.0281 -0.0973 -0.0595
25293W        W41367   0.698  17.693  13.189 -0.1109 -0.0657 -0.1962
25294W        W41368  13.970   5.218   6.368  0.0885 -0.1313  0.1315
25295W        W41369   8.869  17.408   5.802  0.0144  0.0998  0.1080
25296W        W41370   7.092   6.152  13.170 -0.0064 -0.2468  0.2032
25297W        W41371  14.626  12.252   4.056 -0.2251 -0.0266  0.1995
25298W        W41372   7.213  10.271   3.053  0.0301 -0.2354 -0.1231
25299W        W41373   7.181   9.171  14.050 -0.0368 -0.0639 -0.3147
25300W        W41374  17.445  10.513  12.090 -0.2173  0.1203 -0.2592
25301W        W41375   1.038   5.363   1.930 -0.1718 -0.1239  0.2968
25302W        W41376   7.964  16.425  14.839  0.2564 -0.1437  0.0171
25303W        W41377  15.008   2.776   0.478 -0.0574 -0.1522 -0.4400
25304W        W41378   3.394   3.687   0.906 -0.4103 -0.1355 -0.2064
25305W        W41379   4.941   4.193   4.730  0.0254  0.1564 -0.2143
25306W        W41380  15.233  11.422   0.773  0.1675  0.1126 -0.0902
25307W        W41381   5.908   2.353   0.752  0.2278 -0.0119 -0.2984
25308W        W41382   1.434  11.215   2.742  0.0654 -0.0404 -0.1775
25309W        W41383   3.076  14.621   2.747  0.3013 -0.0484 -0.1306
25310W        W41384   9.979  15.169   5.256 -0.1229  0.0387 -0.1238
25311W        W41385   1.197   1.414  15.634  0.0683 -0.1730 -0.0644
25312W        W41386   4.068  12.917  16.240 -0.2272  0.0673 -0.0097
25313W        W41387  12.750   0.917  15.648  0.2379  0.0990  0.1667
25314W        W41388   0.198   2.056  12.696 -0.0866  0.0553  0.2737
25315W        W41389   4.008   8.011   4.553 -0.2098  0.1145 -0.0944
25316W        W41390  16.237  17.648   3.958 -0.1645 -0.1658  0.0314
25317W        W41391   5.752   7.390  14.569 -0.2453  0.1106  0.0393
25318W        W41392  14.816  12.042   2.632 -0.2087  0.0315  0.0140
25319W        W41393  12.645   9.146   3.961 -0.0996  0.0013  0.3173
25320W        W41394  13.886   6.315   2.973  0.1406 -0.0387  0.0867
25321W        W41395   3.401   5.027   1.412  0.1768  0.1101  0.1422
25322W        W41396  17.586  14.811  15.203  0.1883  0.1141 -0.0177
25323W        W41397   5.237  14.642   2.990  0.1102  0.0206  0.1976
25324W        W41398   2.824  10.893   6.451 -0.1303  0.3085  0.0103
25325W        W41399   4.091  13.689   1.473 -0.4150  0.0050 -0.0031
25326W        W41400   1.870   3.348   0.230  0.1069  0.2135 -0.1184
25327W        W41401   4.641   5.002   5.489 -0.0473  0.2533 -0.1956
25328W        W41402   5.583   4.441  15.091 -0.1984  0.0453 -0.1217
25329W        W41403  10.012   7.960  16.656  0.0381 -0.0027 -0.0744
25330W        W41404   8.036  15.337  15.641  0.1671  0.1529  0.1374
25331W        W41405  16.766  15.805   1.159 -0.0610  0.0735 -0.0533
25332W        W41406  17.040   1.424   6.758  0.1306  0.2592 -0.5441
25333W        W41407   0.047  14.235  16.675 -0.1260 -0.0528  0.1270
25334W        W41408   2.181  15.551   4.348 -0.2327 -0.1042  0.1426
25335W        W41409  16.048   4.905  15.431 -0.0541  0.0839 -0.0071
25336W        W41410  14.631  14.046  11.676 -0.0307  0.0307  0.0327
25337W        W41411   4.408   3.525  13.238 -0.1112 -0.0535 -0.1922
25338W        W41412  10.185  12.830  15.813 -0.1342  0.0950 -0.1427
25339W        W41413   1.427  14.196   5.160 -0.0677 -0.0626  0.0078
25340W        W41414  10.584   6.959  14.435  0.0617  0.1923  0.0589
25341W        W41415   8.278  10.012  12.654  0.2850 -0.1567 -0.0627
25342W        W41416   8.709   3.707  14.950  0.0195 -0.3286 -0.0194
25343W        W41417  15.398   6.367  12.812 -0.0739 -0.1013 -0.0794
25344W        W41418  10.351   7.758   1.949 -0.1545  0.1661 -0.1419
25345W        W41419   4.120   4.522  14.063 -0.1912 -0.0505  0.3056
25346W        W41420  15.175   0.969  12.798  0.2945 -0.3407 -0.0328
25347W        W41421  14.471  12.998   2.232 -0.3883 -0.2598 -0.1596
25348W        W41422   7.811  12.196   3.265 -0.3495  0.1549 -0.4183
25349W        W41423   7.756   1.545  15.711 -0.0565  0.0455 -0.1933
25350W        W41424   3.246   5.160   5.210  0.0315  0.3599 -0.0318
25351W        W41425  11.976   9.333  16.480  0.0529  0.0526  0.1294
25352W        W41426  16.483   6.687   0.999 -0.0308 -0.1126 -0.1387
25353W        W41427   4.186   6.743   2.689  0.0358 -0.0502  0.2209
25354W        W41428   2.524   6.746   3.818  0.2268  0.0206  0.1012
25355W        W41429  12.285   7.145  13.718  0.1695 -0.0680  0.1435
25356W        W41430   3.383   2.173  16.727 -0.1367  0.1397 -0.2679
25357W        W41431   9.878   0.993  15.239  0.0041  0.0435 -0.0733
25358W        W41432   9.240  13.817  12.365  0.0601  0.2296 -0.2558
25359W        W41433   0.035  15.068   2.196 -0.0587 -0.2576  0.0304
25360W        W41434   7.220   9.313   2.621  0.0054  0.0858  0.1399
25361W        W41435  10.461   0.267   0.573  0.2980 -0.3328  0.0868
25362W        W41436   1.115  15.760  16.890 -0.0075  0.0804  0.2513
25363W        W41437  15.659  12.008   0.010 -0.0138 -0.1570  0.0097
25364W        W41438  17.251  17.106  14.555  0.2402  0.0514  0.0938
25365W        W41439   9.222   3.208   5.399 -0.0155  0.2271 -0.0550
25366W        W41440   6.151   2.571  15.581 -0.0017 -0.1169 -0.0094
25367W        W41441   3.901  12.232  16.423  0.1720  0.1419 -0.1750
25368W        W41442   4.732  14.487   5.934  0.0030  0.2847 -0.3541
25369W        W41443  13.257   8.677   0.771  0.0500  0.3689  0.0091
25370W        W41444  17.549  15.822   3.153 -0.0590 -0.0826 -0.4320
25371W        W41445  17.440  10.011  13.269 -0.0100 -0.0695 -0.0033
25372W        W41446  11.003  11.107  15.920  0.0620  0.3375 -0.0428
25373W        W41447   1.863  11.336   3.608 -0.1051 -0.0286 -0.0751
25374W        W41448  16.180   5.870   4.116  0.0087  0.0404 -0.1388
25375W        W41449   4.027   3.652  12.969 -0.1445  0.2867  0.1296
25376W        W41450   8.864  10.440   1.890  0.3054  0.2223 -0.2410
25377W        W41451   2.368  11.144   6.137  0.1355  0.0370  0.0092
25378W        W41452   1.481  10.347   0.614 -0.2584 -0.0505  0.1464
25379W        W41453   4.545   2.205   0.615 -0.1641 -0.3124  0.0597
25380W        W41454  16.721   8.299   3.369 -0.0295  0.0269  0.0390
25381W        W41455   9.690   5.432   4.654 -0.1633  0.0655  0.2227
25382W        W41456   0.396   2.120  12.195  0.2052 -0.0162 -0.0621
25383W        W41457   5.718  13.895   1.962 -0.1744 -0.2971 -0.1736
25384W        W41458  16.536  13.625  13.101  0.0012 -0.1611 -0.0839
25385W        W41459  15.509   8.670   1.677 -0.3046  0.2005 -0.3088
25386W        W41460   5.763  11.179   3.944 -0.1416  0.1474  0.0280
25387W        W41461  11.058  12.957   1.972  0.1350  0.0383  0.0792
25388W        W41462   0.633  10.118  11.553 -0.0308 -0.3005  0.2071
25389W        W41463   5.791  14.346   2.104  0.0844  0.0875  0.1858
25390W        W41464  10.196   5.123   3.784 -0.2022  0.1683 -0.2671
25391W        W41465   3.899   2.924  15.239  0.0311 -0.0859  0.0185
25392W        W41466  12.063   5.608  16.310  0.2369 -0.0734 -0.0696
25393W        W41467   2.104  11.561   6.229  0.1521  0.0872  0.0067
25394W        W41468   8.406   3.499  15.420  0.1332  0.2761 -0.0436
25395W        W41469   5.988   2.331  16.477 -0.1974 -0.1707  0.0230
25396W        W41470  16.545   3.326  17.094  0.2074 -0.1345  0.0562
25397W        W41471  10.492   1.812  14.707 -0.3668  0.1300 -0.0585
25398W        W41472  17.129  13.635   5.659 -0.1568 -0.1135  0.2174
25399W        W41473   0.171  11.891   4.053 -0.1855 -0.3023 -0.3172
25400W        W41474   5.009   7.794   0.309 -0.0731 -0.2803 -0.1529
25401W        W41475   9.798   1.966   5.821 -0.1526 -0.1473  0.1417
25402W        W41476   4.421   8.948   5.461 -0.0814 -0.0149 -0.1768
25403W        W41477   6.912  14.156   2.886 -0.0768  0.0550 -0.0348
25404W        W41478   1.024   8.654  12.797  0.1803 -0.2389 -0.1229
25405W        W41479   5.556   9.790   5.912  0.1403  0.2576 -0.1155
25406W        W41480   4.064   7.870  15.999 -0.1247  0.2210  0.1348
25407W        W41481   4.609   9.439   5.486  0.1574  0.1070 -0.0324
25408W        W41482  13.606   2.878   4.160  0.0901 -0.1646  0.0950
25409W        W41483   2.417   4.657   0.622  0.3872  0.0135  0.0302
25410W        W41484   0.990  15.301   0.190  0.0992 -0.1879  0.0601
25411W        W41485  16.853  16.703   1.907 -0.1538  0.2432  0.1188
25412W        W41486   5.546   3.840   5.922  0.0410  0.0457 -0.1681
25413W        W41487  11.788  14.686   0.266  0.2894 -0.2923 -0.0578
25414W        W41488  14.147   2.625   6.122  0.1221  0.0127 -0.1457
25415W        W41489  12.393  11.094   4.087  0.1017 -0.1637 -0.3250
25416W        W41490   1.494   8.217   0.633 -0.1010 -0.2143  0.3567
25417W        W41491   6.013   9.854   1.136 -0.1603  0.0043  0.3118
25418W        W41492   6.201  14.304   0.856 -0.0451 -0.0945 -0.2996
25419W        W41493   9.665  13.222  14.157 -0.1919 -0.0552  0.2622
25420W        W41494   1.765  16.444  15.197 -0.3165  0.0989  0.0266
25421W        W41495   8.071  10.232   0.419  0.2458  0.1452 -0.1153
25422W        W41496  11.159   8.366  13.084  0.1260  0.3095 -0.1339
25423W        W41497   3.018   4.839   4.910  0.0360  0.0827  0.2170
25424W        W41498   7.217  17.373   0.383 -0.4028  0.1497 -0.2674
25425W        W41499   4.938   9.545  11.183 -0.0591 -0.0354  0.0712
25426W        W41500  15.292   8.863   5.730  0.0192 -0.2704  0.4764
25427W        W41501   7.732   0.957   4.787 -0.0239  0.0719 -0.1119
25428W        W41502   1.469   0.954   2.999 -0.2159 -0.0938 -0.1792
25429W        W41503   2.459  16.267  12.405 -0.0876  0.0849  0.0669
25430W        W41504   9.863  15.769  13.973  0.0419 -0.1085  0.0359
25431W        W41505  10.481   0.406  13.126  0.0110 -0.2675 -0.2788
25432W        W41506   7.032   3.793  12.235 -0.2497 -0.1190 -0.0795
25433W        W41507  13.929   3.191  14.841  0.2350  0.2854 -0.0447
25434W        W41508  15.321  15.325   5.347 -0.1425 -0.1901 -0.1812
25435W        W41509   0.522  11.040  14.218 -0.2721 -0.3177 -0.1109
25436W        W41510   4.660  14.156   4.014 -0.3684 -0.3030 -0.2415
25437W        W41511   1.793   7.767   0.980 -0.0645  0.0841 -0.1710
25438W        W41512  10.872  10.779   3.127  0.1106  0.4622  0.3011
25439W        W41513   3.031   6.438   1.369  0.1070 -0.1593 -0.0666
25440W        W41514  10.585  10.853  15.681  0.1194 -0.1057  0.1246
25441W        W41515  11.922  16.799   3.813 -0.2383  0.1356  0.0498
25442W        W41516  13.889   4.681   1.913  0.0858  0.1213 -0.1596
25443W        W41517   6.951  15.051   2.523  0.0282  0.0359  0.2348
25444W        W41518  13.529   8.732   2.192  0.0427 -0.2645 -0.2094
25445W        W41519  14.397  11.177  13.673 -0.1936 -0.0278  0.2836
25446W        W41520  15.933   1.354  15.620 -0.0402 -0.3172  0.0604
25447W        W41521  13.065   1.102   4.256  0.1202  0.0960  0.2921
25448W        W41522  12.241   4.128  12.139 -0.0308 -0.0075 -0.1816
25449W        W41523   4.696   7.393   6.190 -0.0614 -0.1033  0.1532
25450W        W41524  14.509   3.761  12.616  0.0433 -0.1952 -0.0624
25451W        W41525   2.741   8.150  15.137 -0.0895 -0.2138 -0.0344
25452W        W41526  16.097   5.515   5.213 -0.0219  0.0670  0.0666
25453W        W41527   6.550  11.862  14.035 -0.1427 -0.2074 -0.0744
25454W        W41528   1.372   5.282  12.822  0.0458  0.0599  0.1247
25455W        W41529  12.794   4.171  16.399 -0.1283 -0.0315 -0.1262
25456W        W41530   1.832  16.883   4.372  0.3039 -0.2216 -0.4063
25457W        W41531   4.229  10.068   1.426  0.2613  0.0240  0.1279
25458W        W41532   5.082   1.347  13.849 -0.0081 -0.0494  0.1900
25459W        W41533  15.708   8.517  15.415  0.0759 -0.1300 -0.0013
25460W        W41534   1.228   2.277  15.401  0.5227 -0.1581  0.2391
25461W        W41535   5.130  17.304  16.343 -0.0513 -0.1439 -0.0499
25462W        W41536   9.079   9.907   1.693 -0.0552  0.1124  0.0064
25463W        W41537  12.333  12.593  11.964 -0.0370 -0.0261  0.1714
25464W        W41538  15.903  12.866   4.664 -0.0508 -0.2846  0.1248
25465W        W41539  12.930   9.736  14.664  0.2379  0.0875 -0.2613
25466W        W41540   4.989   0.899   0.305  0.1255 -0.0739 -0.1200
25467W        W41541   9.236  17.676   4.748 -0.0956 -0.0315  0.1072
25468W        W41542  17.255  14.271  14.985 -0.3773 -0.1342 -0.0764
25469W        W41543  13.949   0.501   2.216 -0.0204 -0.0581 -0.1923
25470W        W41544   5.929   5.443  14.759 -0.0211  0.0312 -0.0268
25471W        W41545   7.913   2.054   2.860 -0.4142  0.1329  0.1864
25472W        W41546   7.376   6.658  15.956 -0.0746  0.0002 -0.0596
25473W        W41547  12.698   8.956   5.353 -0.0782  0.3228 -0.0149
25474W        W41548  10.615   4.453  13.266  0.0272  0.1253 -0.1905
25475W        W41549   6.840   4.453  14.807 -0.0850  0.1800  0.1083
25476W        W41550  15.266  17.609   2.302  0.0341  0.1135  0.0353
25477W        W41551   6.839   4.070  16.167  0.0951 -0.1588 -0.1434
25478W        W41552   9.977   1.972  11.685  0.2252 -0.0039  0.0670
25479W        W41553  16.832   5.825   2.143  0.0853 -0.1148 -0.1387
25480W        W41554  16.538  13.545  14.119 -0.0707  0.4580  0.2923
25481W        W41555  15.202  11.674  12.651  0.0179 -0.1058  0.3429
25482W        W41556  15.097   8.736   4.040  0.1717 -0.0914  0.1456
25483W        W41557   3.491  12.106  16.118  0.0475  0.1891  0.2402
25484W        W41558   2.635   2.537   3.985  0.0106  0.4101 -0.0999
25485W        W41559   8.037   4.389   0.725  0.0303  0.0752  0.1610
25486W        W41560  10.539  15.329   6.498 -0.2912  0.0011  0.2277
25487W        W41561   4.682  12.594  12.847 -0.2520 -0.0387 -0.0690
25488W        W41562   5.926   8.157  15.135  0.2294  0.0921 -0.0029
25489W        W41563   3.924   8.507  15.550 -0.3196 -0.0523 -0.0850
25490W        W41564  12.138   1.509   0.887  0.1091  0.1758 -0.0474
25491W        W41565  16.739   3.996  12.297  0.0162 -0.1620 -0.1694
25492W        W41566   4.108   7.973  16.857  0.2672 -0.0192  0.1295
25493W        W41567   4.381   0.664  16.850  0.4398  0.0902  0.1211
25494W        W41568   9.746   1.333  16.871  0.2473 -0.0161 -0.0556
25495W        W41569   4.688   9.975   4.327 -0.1302  0.1427 -0.0056
25496W        W41570   2.571   0.718   1.832  0.0346  0.0217  0.1661
25497W        W41571  16.621   6.333   4.222 -0.0733 -0.0309 -0.0203
25498W        W41572  15.178  10.122  11.958 -0.0684 -0.2618 -0.0463
25499W        W41573   5.788   0.567   0.794  0.3727 -0.0330 -0.2683
25500W        W41574   5.340   8.920   2.083 -0.0527  0.2707 -0.2572
25501W        W41575   5.522   2.091   3.767  0.1003  0.2517 -0.0976
25502W        W41576  17.410  10.334  15.722  0.0679 -0.0283 -0.0065
25503W        W41577   0.678   2.883   5.243  0.0002 -0.1944 -0.0962
25504W        W41578   6.521   4.265   0.321 -0.2675 -0.0116 -0.0289
25505W        W41579   5.529   3.758  12.120  0.2599  0.3558 -0.0178
25506W        W41580   2.368  12.119  12.456 -0.1912  0.3411 -0.1167
25507W        W41581   3.070  16.984   1.418  0.0622 -0.1136 -0.0828
25508W        W41582  14.563   0.272  11.944 -0.1712  0.3044 -0.1028
25509W        W41583  15.890  11.949   3.519 -0.0613  0.1462  0.1387
25510W        W41584  13.524   6.646   0.509  0.0574 -0.1543 -0.1506
25511W        W41585   3.817  11.238  15.952  0.1533  0.1426  0.1569
25512W        W41586   6.631  12.601   4.392  0.0175 -0.1957  0.0229
25513W        W41587   1.032   8.123  16.826  0.0423 -0.2066  0.0791
25514W        W41588   7.068   5.966  14.169 -0.1176  0.1429 -0.1585
25515W        W41589  15.807  10.225  15.528 -0.0368 -0.0387  0.0383
25516W        W41590   3.019   4.570   6.072 -0.0295 -0.0314 -0.0001
25517W        W41591   4.651  14.840   0.539  0.1539 -0.2922  0.0136
25518W        W41592  14.991   3.925   4.368  0.2512 -0.1677  0.1380
25519W        W41593  10.132  15.496   0.560 -0.0757  0.1261 -0.1162
25520W        W41594   9.889  14.669   4.632  0.0750 -0.0890  0.2102
25521W        W41595  13.779   5.440  13.957 -0.0443 -0.0030 -0.2856
25522W        W41596  10.583   4.229   1.817 -0.1863  0.2382 -0.0706
25523W        W41597  14.834   6.753  13.909  0.1683  0.2845  0.0847
25524W        W41598   8.228   8.601  15.441  0.2810  0.0088 -0.2073
25525W        W41599  15.077   4.494  16.945 -0.1417  0.2332 -0.2468
25526W        W41600   3.981   0.845  12.663 -0.3700  0.0621 -0.0077
25527W        W41601  10.754  17.599   4.777  0.1791 -0.3510  0.1266
25528W        W41602  15.321   0.850   5.090 -0.0488 -0.1290 -0.1804
25529W        W41603   7.900  15.932   1.614 -0.2037  0.2258 -0.0850
25530W        W41604   0.968  12.440   3.232 -0.1487 -0.1613 -0.1033
25531W        W41605   3.797  13.381  14.022  0.1608  0.2302 -0.0033
25532W        W41606   6.273   3.807  13.507 -0.0714  0.2573 -0.1693
25533W        W41607   6.997   4.935   2.357  0.0711  0.0889 -0.1211
25534W        W41608   3.143   9.749   0.414 -0.1129  0.3662  0.2495
25535W        W41609   4.420  16.727   1.393 -0.1511 -0.2567  0.1471
25536W        W41610  10.872   9.043  15.581 -0.1687  0.0499 -0.1267
25537W        W41611  13.303  16.060   0.309  0.4569 -0.1592  0.2290
25538W        W41612  15.000   3.970  13.470  0.1429 -0.1370 -0.0771
25539W        W41613   5.895   4.053   4.922 -0.0646 -0.0972  0.0825
25540W        W41614  11.956   3.220   4.850  0.0202  0.0909  0.1455
25541W        W41615  15.752   6.770  12.871  0.0372  0.0764  0.3026
25542W        W41616  12.749   6.038   1.360 -0.0695 -0.0936  0.0335
25543W        W41617  14.596   3.007   0.316 -0.3025 -0.2167  0.2141
25544W        W41618  16.502  14.510  14.413  0.1661 -0.0353  0.1783
25545W        W41619   9.691  13.977  15.478  0.0250  0.1541 -0.0830
25546W        W41620  10.431  10.466  14.840  0.1744  0.2188 -0.1028
25547W        W41621  11.761   5.850  13.581 -0.1467  0.1446 -0.2016
25548W        W41622   1.345  16.151   6.313 -0.0247  0.1181 -0.0184
25549W        W41623   2.255   6.814   2.887  0.0778 -0.1367 -0.4301
25550W        W41624   0.069  14.275  15.386  0.0714 -0.1125  0.0267
25551W        W41625   7.792   7.044   6.241 -0.1634 -0.1466 -0.3439
25552W        W41626   3.196  11.725   4.267 -0.2102 -0.3246 -0.3231
25553W        W41627  15.334   9.370  12.387  0.1657 -0.1896 -0.0949
25554W        W41628   5.687   2.111   5.808  0.0869  0.1385  0.0130
25555W        W41629  13.278  17.680  14.249 -0.0746 -0.1488  0.1460
25556W        W41630  14.980   0.493  16.904 -0.0970  0.3467 -0.2289
25557W        W41631   4.828   4.223  13.633  0.1058 -0.2276  0.1207
25558W        W41632   4.985  15.905   1.074  0.0241 -0.4232  0.1397
25559W        W41633  16.995   4.367   0.168  0.1791  0.0736 -0.1357
25560W        W41634   6.023  10.519  12.831  0.3289 -0.0400 -0.2859
25561W        W41635  12.481   1.929   3.105  0.0157  0.0826 -0.1469
25562W        W41636  16.904   4.876   5.909 -0.4131  0.0686 -0.3556
25563W        W41637  12.141  12.999  12.335  0.1961  0.4232 -0.2289
25564W        W41638  12.479   2.915  15.597  0.1197  0.0469 -0.0443
25565W        W41639  12.556   6.252  15.935  0.1279  0.1221  0.0352
25566W        W41640  15.865  10.169   5.395 -0.0490  0.1748  0.0792
25567W        W41641  10.356   8.536   1.551  0.4867 -0.3516 -0.0467
25568W        W41642   7.941  13.376  16.827 -0.0294  0.0962 -0.0153
25569W        W41643  14.143  15.715  13.616 -0.1493 -0.2109  0.1158
25570W        W41644   6.373  12.410   1.434  0.4265  0.1564  0.3932
25571W        W41645   2.334  10.754   0.158 -0.1807 -0.1034  0.2653
25572W        W41646   5.102  10.312   1.726  0.0401 -0.1695  0.0632
25573W        W41647   0.111   9.127   1.616 -0.0054  0.1143  0.0797
25574W        W41648   9.655   0.150   2.479  0.0165 -0.2714  0.1776
25575W        W41649   1.483  15.036  11.599  0.0141  0.0457  0.0748
25576W        W41650  11.417   2.284   2.719 -0.0114  0.3385  0.0081
25577W        W41651   6.838  12.830  14.825  0.2552 -0.2130 -0.0256
25578W        W41652  15.207  14.587  15.939 -0.0279 -0.1006 -0.1166
25579W        W41653   6.125   0.999   0.002  0.4198  0.0565  0.0301
25580W        W41654   1.715  15.702   0.654  0.0149  0.1335  0.0567
25581W        W41655   8.886   6.927   4.339 -0.0422  0.0518  0.1782
25582W        W41656   4.093   1.448  14.355  0.0585  0.1111  0.1276
25583W        W41657   3.252   8.040   1.810  0.1376 -0.1685 -0.0399
25584W        W41658  13.884   5.500   0.813  0.0207  0.2916 -0.1722
25585W        W41659   4.695  12.944  13.253  0.1955  0.1120 -0.0233
25586W        W41660  11.371   1.872  15.761  0.0212 -0.2340 -0.3115
25587W        W41661  12.860   7.492  15.151 -0.3788  0.2566 -0.1055
25588W        W41662   4.092   3.335  14.962  0.0221 -0.0077 -0.1149
25589W        W41663   7.822  15.456   2.373  0.1460 -0.2136 -0.1984
25590W        W41664   1.806  10.130  11.824  0.0727 -0.0137 -0.1278
25591W        W41665   3.764   8.985  14.353  0.3844  0.1441  0.2852
25592W        W41666  13.157   4.197   2.432 -0.3450 -0.1308 -0.1682
25593W        W41667  14.334   0.849  14.359  0.2118 -0.2513  0.0628
25594W        W41668   4.235   8.513  15.953  0.1797 -0.4695 -0.0013
25595W        W41669   3.928  11.450   2.597  0.0046  0.1218 -0.0666
25596W        W41670  12.485   1.286   2.535  0.1702 -0.0039  0.0547
25597W        W41671   1.306   5.529   5.277  0.0953  0.1271 -0.1230
25598W        W41672  17.056   0.680   2.844  0.0082 -0.2299 -0.1909
25599W        W41673   8.737   1.998  13.077 -0.3257  0.0825  0.2235
25600W        W41674   7.713   3.844  15.798  0.4122  0.2640  0.4042
25601W        W41675   9.786  13.053  11.754  0.4676  0.3515 -0.1713
25602W        W41676  10.667  11.235   1.769  0.0170 -0.5634 -0.1001
25603W        W41677   3.083  17.005  16.284 -0.1191 -0.0486  0.1585
25604W        W41678   0.987  14.900  14.587 -0.0104  0.0277 -0.0188
25605W        W41679   6.513   7.269   3.684 -0.1042  0.1180 -0.0738
25606W        W41680   5.673   9.261  14.350  0.2322  0.0749 -0.1290
25607W        W41681   6.049   1.902   0.211  0.0794 -0.0151 -0.0140
25608W        W41682   5.661   0.280  16.985 -0.2796 -0.0159  0.2912
25609W        W41683   0.007  11.914  15.111 -0.2156 -0.1878 -0.0755
25610W        W41684  10.288   1.173  15.494 -0.1657 -0.0850 -0.0364
25611W        W41685  16.669   3.217  14.445 -0.2082  0.1072 -0.1879
25612W        W41686   7.050  14.831  11.825 -0.0746 -0.0055  0.0735
25613W        W41687   8.105   7.855  15.847 -0.0577 -0.1621  0.1049
25614W        W41688  12.927   3.063  15.773  0.1167  0.2962 -0.0885
25615W        W41689   9.704  15.220  15.120 -0.1882  0.0281  0.1244
25616W        W41690   7.387   0.042  14.564 -0.3317  0.0139 -0.3176
25617W        W41691  14.989   1.398   1.247  0.1804 -0.5211  0.1267
25618W        W41692  11.951   9.999   0.600 -0.2569 -0.4311 -0.0858
25619W        W41693   5.025   6.512  13.571 -0.2232  0.1536  0.1336
25620W        W41694  11.802   3.194  16.190  0.2826 -0.2177  0.0064
25621W        W41695  15.215  17.339   4.610 -0.0998 -0.2356  0.1905
25622W        W41696   2.423   6.785  15.285  0.1251 -0.3230  0.3635
25623W        W41697  13.596  13.403  14.725 -0.1893 -0.5223  0.2964
25624W        W41698   7.890   7.868   0.756  0.0679 -0.0097 -0.2190
25625W        W41699  14.768   0.837   4.986  0.4395 -0.0238  0.3188
25626W        W41700  13.989  14.605   3.327  0.1484  0.1538  0.3126
25627W        W41701   9.650   0.047   1.947 -0.1115 -0.1562 -0.0570
25628W        W41702   7.801  10.728   5.163 -0.0330 -0.1716  0.0334
25629W        W41703   6.895  15.331   0.439 -0.0717  0.0341  0.0065
25630W        W41704   2.830   2.638  14.995 -0.3021 -0.1618 -0.0882
25631W        W41705  14.308   5.474   0.024  0.1013 -0.2143 -0.0430
25632W        W41706   5.350   5.153  15.424  0.0119 -0.4173  0.0576
25633W        W41707  16.512   3.096  12.591  0.2501 -0.0772  0.0178
25634W        W41708  17.714   1.868  17.084 -0.2342  0.2846  0.3872
25635W        W41709   3.156   3.694   3.499 -0.1099 -0.1849  0.0128
25636W        W41710  14.445   3.889   2.061 -0.0745 -0.1458 -0.0401
25637W        W41711   0.508  10.621   0.855  0.0073 -0.2727  0.1127
25638W        W41712  13.491  15.565  11.102  0.0919  0.2556  0.0367
25639W        W41713   2.836  13.888  13.020  0.1496 -0.1189  0.0517
25640W        W41714  10.821   3.532  13.915  0.2133 -0.1111  0.2454
25641W        W41715  17.186  11.126   1.451 -0.1346 -0.0253 -0.2389
25642W        W41716   1.400   5.286  14.429 -0.2483 -0.3131  0.1223
25643W        W41717   7.979  17.620  15.235  0.1616 -0.1440  0.1673
25644W        W41718   0.634  12.737   2.581  0.1842  0.2005 -0.0423
25645W        W41719   8.266  16.372   0.860 -0.0831 -0.1825 -0.0656
25646W        W41720   7.115   4.684  16.966  0.1372 -0.2437 -0.1207
25647W        W41721   2.759   6.603  14.289 -0.3590 -0.1232  0.2756
25648W        W41722  17.611   4.800  11.831  0.5493 -0.1193 -0.0415
25649W        W41723  10.991  13.017   3.420 -0.1106  0.0363  0.1643
25650W        W41724  13.322   8.153  11.958  0.0533 -0.0944 -0.1514
25651W        W41725   0.898  16.072   5.178  0.2822  0.3294  0.0317
25652W        W41726   6.618  14.413   0.506  0.1825 -0.0214  0.1115
25653W        W41727   4.731   3.662  13.600 -0.2324  0.1732  0.3580
25654W        W41728  14.814  14.899  16.164 -0.2543  0.0425  0.2063
25655W        W41729   7.476   9.625  14.699 -0.1871  0.0864 -0.1780
25656W        W41730  15.481  13.113  15.147 -0.0064 -0.0298  0.1524
25657W        W41731  17.428   4.068  16.693 -0.1457  0.0687  0.0304
25658W        W41732  10.952  13.272   1.060 -0.0384 -0.0691 -0.2992
25659W        W41733  17.478  16.892   0.283 -0.0437 -0.0963  0.2300
25660W        W41734  10.951  16.722  16.573  0.1360 -0.1237  0.0284
25661W        W41735   7.637  14.787  16.162 -0.0625  0.0310  0.3275
25662W        W41736  11.342  14.406   1.098 -0.1184  0.2843  0.1138
25663W        W41737  13.396  14.778  12.886 -0.0711  0.5815 -0.2952
25664W        W41738   2.894   5.172   0.730 -0.0498 -0.1324  0.2074
25665W        W41739   4.766   1.593   4.603 -0.1401  0.0644 -0.0151
25666W        W41740  11.481   3.277  14.298 -0.1422  0.0003  0.1544
25667W        W41741   7.265   1.491  11.953 -0.2286  0.0289  0.0738
25668W        W41742  10.711  15.527   0.497 -0.2804 -0.1311  0.2309
25669W        W41743  16.750   1.522  14.220 -0.1137 -0.1682 -0.3202
25670W        W41744  14.479  10.736   1.559 -0.2442 -0.1275 -0.0818
25671W        W41745   8.695  15.356  14.913  0.2063 -0.1193 -0.0818
25672W        W41746  16.990   5.155  12.518  0.3532 -0.0637 -0.2131
25673W        W41747   3.999  11.994   0.158  0.1863 -0.2504  0.1393
25674W        W41748   5.940  13.460   4.274  0.0564 -0.0152 -0.1313
25675W        W41749   2.000   3.802   1.865 -0.3315  0.3387  0.2181
25676W        W41750  11.494   2.876   2.195 -0.1605 -0.1087  0.2047
25677W        W41751  13.829  13.596   1.932  0.5198  0.1102 -0.0517
25678W        W41752   9.713   7.012   3.986 -0.3662  0.2234 -0.1054
25679W        W41753   2.049  15.110   4.558  0.0266 -0.0272 -0.0833
25680W        W41754  16.262  13.588   6.255  0.0523  0.0989  0.1040
25681W        W41755   5.742  10.737  16.488  0.0395 -0.1683  0.1789
25682W        W41756   0.964   5.431  16.630 -0.0351  0.1252  0.2205
25683W        W41757   9.145  15.083   4.020  0.1359 -0.1441 -0.0087
25684W        W41758  10.731   6.370   1.068 -0.1649  0.1317 -0.1025
25685W        W41759   2.169   3.115   0.582 -0.1444 -0.0802 -0.2357
25686W        W41760   7.799   5.137   2.787  0.0692 -0.1213  0.1282
25687W        W41761   8.393   5.288   5.133  0.2409  0.0327  0.1988
25688W        W41762  11.534   9.233  15.140 -0.0322  0.0739  0.2082
25689W        W41763   2.547   6.721  12.312  0.0432 -0.0863 -0.0708
25690W        W41764  15.519  14.516   4.926  0.0625 -0.0964 -0.3117
25691W        W41765  17.520   2.755  16.994 -0.0777 -0.3034  0.0568
25692W        W41766   0.812   6.224  11.586  0.0874  0.0461 -0.0717
25693W        W41767   6.973  17.701   0.744 -0.1162  0.1460  0.0326
25694W        W41768   3.430  15.152   4.706 -0.0391 -0.0951 -0.0894
25695W        W41769   0.831  10.686  14.422 -0.2232  0.0868 -0.2714
25696W        W41770   9.491  15.446  16.987  0.0856 -0.3866 -0.0074
25697W        W41771   5.407  11.505  15.110  0.0627  0.0433 -0.0410
25698W        W41772   3.376   0.292   5.166 -0.0995  0.0095 -0.2553
25699W        W41773   3.646   3.364  12.844  0.2547 -0.1676 -0.0308
25700W        W41774   0.558  15.098   5.448  0.1764  0.0325  0.2400
25701W        W41775   4.800   7.183  12.310  0.0891 -0.0480 -0.1502
25702W        W41776  15.505   5.654  14.259  0.1055  0.2312 -0.1005
25703W        W41777   5.303  14.641  13.582 -0.2898 -0.1602 -0.2996
25704W        W41778  10.403   3.253  14.101 -0.0729  0.2529  0.2995
25705W        W41779   0.971   2.005   3.692 -0.1328 -0.2964  0.2275
25706W        W41780   7.512  11.187   5.257  0.0405  0.1722 -0.1124
25707W        W41781  14.864  13.833  15.491  0.0449 -0.1340  0.1311
25708W        W41782   2.634   4.646  15.234 -0.0480  0.0597 -0.0027
25709W        W41783  17.129   6.501  13.167  0.0397  0.0664  0.1258
25710W        W41784   4.060  13.072   0.216 -0.3951  0.0727  0.0608
25711W        W41785  14.876   1.619  17.023  0.0633 -0.0428  0.0896
25712W        W41786   7.881   0.535   1.628 -0.0986 -0.0193 -0.0760
25713W        W41787   0.068  13.058   3.327 -0.2394 -0.0501  0.1581
25714W        W41788   0.433   6.054   5.309  0.1309  0.2525  0.1416
25715W        W41789  13.359   8.962  12.261 -0.2633  0.3128 -0.1755
25716W        W41790  17.116   1.430  13.202 -0.0127 -0.0601  0.1530
25717W        W41791   4.902  15.066  12.225  0.1282 -0.1713 -0.1160
25718W        W41792   8.271   3.117  14.980 -0.1972  0.0091 -0.1163
25719W        W41793  10.781  16.595   5.300  0.1749  0.0893 -0.1612
25720W        W41794   9.486  13.744   2.045 -0.1595 -0.1150 -0.1799
25721W        W41795   5.948   5.425   3.722 -0.2434  0.1686  0.0363
25722W        W41796   1.661   5.851   0.885 -0.0586 -0.0685 -0.0700
25723W        W41797  14.835   6.779  15.414 -0.2623 -0.0080  0.2209
25724W        W41798  14.732  11.977   0.275 -0.3300 -0.2317  0.0139
25725W        W41799  12.344   1.207   5.411 -0.0013  0.0224 -0.0916
25726W        W41800   8.945  15.375  14.495 -0.0045 -0.1566  0.0448
25727W        W41801   5.474  16.464   4.992  0.3145 -0.2948  0.1516
25728W        W41802  15.242  15.838  14.630  0.0602 -0.0433  0.0808
25729W        W41803   2.610   8.548  14.812  0.0074  0.1691 -0.2579
25730W        W41804   0.845  16.773   3.806 -0.1850 -0.1242 -0.3091
25731W        W41805  16.753   4.421  15.452  0.2874  0.0226 -0.0537
25732W        W41806  15.934   7.440   3.873 -0.3140  0.1655 -0.0026
25733W        W41807  10.300  11.896  11.796  0.3942  0.1382  0.0909
25734W        W41808   7.857   6.529  11.883  0.1364  0.0508 -0.0671
25735W        W41809   9.884   4.350   0.125  0.0712  0.3138 -0.0003
25736W        W41810  13.386   9.977   4.870 -0.2132  0.0554 -0.2824
25737W        W41811  16.263   7.541  16.385 -0.1373 -0.3460 -0.0012
25738W        W41812   6.549  16.109   3.344 -0.2877  0.1954 -0.0855
25739W        W41813  10.486  11.783   0.244 -0.3062  0.0962 -0.1060
25740W        W41814   5.248   5.617   5.492 -0.1123 -0.1064  0.0462
25741W        W41815  10.701   7.093  16.106 -0.0470  0.1059  0.0844
25742W        W41816  17.100  13.528  15.502  0.0842  0.3254 -0.2192
25743W        W41817  10.187   2.730   6.177  0.1003  0.0274  0.2629
25744W        W41818  12.701   7.932   5.271  0.1196  0.3627  0.0771
25745W        W41819  13.582   9.579   2.710  0.1996 -0.2313 -0.0414
25746W        W41820   7.677  15.081   3.739  0.0975 -0.2201 -0.2833
25747W        W41821  15.461  14.774   0.778 -0.1325 -0.0610 -0.1630
25748W        W41822   7.994   4.597   5.121  0.0006  0.2496 -0.0834
25749W        W41823  16.153   0.794   3.392  0.2099  0.0653  0.0129
25750W        W41824   1.095  15.976  13.783 -0.1987 -0.2075  0.0008
25751W        W41825   1.858  14.552  12.280 -0.1446 -0.0335  0.2385
25752W        W41826  16.731   8.712  13.684 -0.0277 -0.0217  0.1850
25753W        W41827   8.120  15.750  14.398  0.0777 -0.1518  0.0360
25754W        W41828   4.856   9.054   2.118  0.0597  0.0412  0.2038
25755W        W41829   5.284   7.637  14.733 -0.0466  0.3233  0.0168
25756W        W41830   2.724  15.639  15.808 -0.1350  0.2070 -0.2003
25757W        W41831  15.207   0.087  13.035 -0.0396  0.1165  0.0148
25758W        W41832   5.425  14.935  14.897  0.0153  0.1239  0.1818
25759W        W41833  13.044   1.031   5.083 -0.1344 -0.2524  0.0289
25760W        W41834   4.416   6.318  16.743  0.1304 -0.2224  0.2453
25761W        W41835   1.646   1.772   0.778  0.0507  0.0870 -0.1416
25762W        W41836   5.356  11.839  12.684 -0.0276  0.1791  0.1063
25763W        W41837   9.105   1.592  14.992 -0.0689 -0.2496  0.2501
25764W        W41838   8.724   7.644   3.307 -0.2529  0.0229 -0.0290
25765W        W41839   2.111  12.314  16.661  0.0212 -0.0021  0.2388
25766W        W41840   6.272  11.803  13.639 -0.1054  0.1970  0.3184
25767W        W41841   6.423   2.746   5.276 -0.0101 -0.2409  0.2957
25768W        W41842  10.677  12.245   0.128  0.2272 -0.0834  0.0020
25769W        W41843   1.040  13.720  16.396 -0.0408  0.0533  0.2068
25770W        W41844  10.321   2.237   3.747  0.0464 -0.1593 -0.1615
25771W        W41845  12.641  15.357  15.184 -0.2317 -0.1997 -0.2407
25772W        W41846   8.958  12.314  12.303  0.2279 -0.2629  0.1200
25773W        W41847   5.768   8.933   0.658  0.0639  0.0786  0.2207
25774W        W41848   8.608   1.488   4.993 -0.1442 -0.1303  0.1431
25775W        W41849  10.896  17.560  14.135  0.3791  0.0197  0.0934
25776W        W41850  12.246  15.540  13.434  0.0434  0.0559 -0.0066
25777W        W41851  16.686   6.190   1.821 -0.0348 -0.1304 -0.0792
25778W        W41852   3.627   8.139   2.944 -0.4295  0.0515 -0.1641
25779W        W41853   6.179   6.586   1.861  0.1242 -0.2363  0.2003
25780W        W41854  17.058   4.902  15.535  0.1972  0.0326  0.1524
25781W        W41855  11.954  10.803  12.878 -0.0804  0.1055  0.2769
25782W        W41856   3.793  15.877  16.015  0.2768  0.0996  0.1272
25783W        W41857  16.237  12.606  12.927 -0.1550 -0.0221  0.0693
25784W        W41858   8.833   1.860   2.838 -0.1337 -0.1124  0.2753
25785W        W41859  15.965   6.288   2.417 -0.2514  0.1483 -0.1877
25786W        W41860   8.600   2.540   2.164  0.1393  0.0300  0.2613
25787W        W41861  16.012  16.804   0.478  0.0017  0.6873 -0.1852
25788W        W41862  15.620  11.755   5.587  0.2889  0.1763  0.1350
25789W        W41863   7.538  13.959   5.886 -0.0755 -0.1021  0.1236
25790W        W41864   0.040   1.190   5.135 -0.1061 -0.0575  0.0050
25791W        W41865  14.562  16.278   4.238  0.0052  0.0247  0.0083
25792W        W41866  15.035  15.768   2.421  0.2502  0.0230 -0.0503
25793W        W41867   8.419   4.787  13.411 -0.0391 -0.1235 -0.2479
25794W        W41868  17.004   9.790  16.032 -0.1141 -0.1326 -0.0771
25795W        W41869   3.638  17.129   3.048  0.1867  0.0378  0.1977
25796W        W41870  17.486   3.412  12.189  0.0807 -0.0461 -0.1698
25797W        W41871   7.725   5.835  12.169 -0.0724 -0.3229  0.0142
25798W        W41872  12.676  10.683  12.040 -0.0613  0.1564  0.1096
25799W        W41873   6.998   7.861   2.273 -0.0863  0.1852 -0.0056
25800W        W41874  15.244   5.008   4.487 -0.3289 -0.3601  0.1991
25801W        W41875  16.478   8.749   3.526  0.1891  0.0203  0.0355
25802W        W41876   0.586   9.925   1.392  0.0026  0.2791 -0.2712
25803W        W41877  14.394  16.126   1.114 -0.0746  0.0223  0.1712
25804W        W41878  11.954   9.551   5.062  0.0202  0.0285 -0.0072
25805W        W41879   7.487  16.602   3.830  0.0863 -0.2623  0.1270
25806W        W41880   9.443   4.501   3.198 -0.0259 -0.3731 -0.1283
25807W        W41881   5.127  11.319   1.548  0.0399 -0.1369 -0.2686
25808W        W41882   6.019   6.072   3.300  0.2302  0.0358  0.2188
25809W        W41883   1.379   0.045   1.874  0.2237 -0.1142  0.4455
25810W        W41884  17.148   1.775  15.808  0.1083  0.3127 -0.1023
25811W        W41885   9.342   0.691  15.218 -0.0107 -0.2003 -0.0701
25812W        W41886   5.864   6.088   1.039  0.0226 -0.2857  0.0396
25813W        W41887   6.278   5.529   0.442  0.1184  0.0426 -0.2663
25814W        W41888  12.049  16.708  12.504  0.2230 -0.1508  0.0859
25815W        W41889   3.575   2.173   0.246  0.1898 -0.1398 -0.2674
25816W        W41890   4.872   1.101   2.790 -0.1259  0.0168  0.4111
25817W        W41891   2.571  10.057   5.242  0.0859  0.1761 -0.0091
25818W        W41892   7.453   6.874  12.814 -0.1422 -0.1729 -0.3044
25819W        W41893   9.432  11.406  16.738 -0.1191 -0.2754  0.0261
25820W        W41894   3.698   2.335   3.990  0.3011 -0.1302 -0.1088
25821W        W41895  13.600   3.891   2.182 -0.0281 -0.0180 -0.0349
25822W        W41896   6.912   2.912   5.151  0.0160 -0.1324  0.0702
25823W        W41897   1.383  12.022  16.188 -0.4620 -0.3237  0.0721
25824W        W41898   8.884  17.486   1.056  0.0484  0.1810 -0.2715
25825W        W41899   0.374  12.715   1.762  0.2834 -0.0579 -0.2364
25826W        W41900  17.347  11.517   5.204 -0.1105 -0.0587 -0.2708
25827W        W41901   8.766   5.115  15.329  0.2768 -0.2428  0.0054
25828W        W41902  12.519   8.365   4.494 -0.0676  0.0125 -0.0185
25829W        W41903   1.769   5.585   2.370 -0.1928  0.0164  0.1638
25830W        W41904  16.535   4.941  16.781  0.0671  0.0348 -0.1180
25831W        W41905  11.430  15.705   1.793 -0.4614  0.1508 -0.1293
25832W        W41906   6.201  12.710   5.199 -0.1368 -0.1313  0.0371
25833W        W41907   1.033  13.515  13.376 -0.1354 -0.2983  0.1438
25834W        W41908   0.896  14.472  14.373 -0.1005  0.1431 -0.0564
25835W        W41909   6.707   3.387  16.684  0.0900  0.4175  0.3426
25836W        W41910  12.237   2.489  12.513  0.0793  0.0281 -0.1322
25837W        W41911   6.071  12.798  13.942  0.3599  0.2076 -0.1340
25838W        W41912   8.400   4.602   1.078  0.1238 -0.1055 -0.1819
25839W        W41913   9.023   7.227  11.587  0.1429  0.0564  0.1586
25840W        W41914  12.998   4.020   2.891  0.0825  0.2018  0.1095
25841W        W41915   1.405  17.202   3.232 -0.0901  0.1170 -0.2009
25842W        W41916  11.708   7.664  11.800  0.0239  0.1979 -0.1206
25843W        W41917  16.687  16.231   2.870 -0.1306  0.1841  0.3202
25844W        W41918   3.976   3.828   3.173 -0.0655  0.6632 -0.0532
25845W        W41919  15.276   0.363  14.627  0.2474 -0.0424  0.0611
25846W        W41920  15.052  11.014  12.879 -0.0143 -0.0189  0.1641
25847W        W41921  16.347   4.010  16.319 -0.2198  0.3115  0.1789
25848W        W41922  12.958  17.088   3.704  0.2560  0.2677 -0.1862
25849W        W41923   8.937   7.980  14.297  0.1408  0.1492 -0.1495
25850W        W41924   0.757  15.516   5.256 -0.2498  0.0081  0.2245
25851W        W41925   4.186  16.687   5.386 -0.1799 -0.1053  0.0196
25852W        W41926  16.497   2.713  13.555 -0.0433  0.1687  0.0732
25853W        W41927   1.851   6.178  13.556  0.0007 -0.3562  0.2114
25854W        W41928   9.639  16.686  14.233  0.1325 -0.0143 -0.1671
25855W        W41929   3.304   1.120  14.256 -0.0913 -0.0873  0.2068
25856W        W41930  15.576   7.402  15.306 -0.2794  0.3190  0.0505
25857W        W41931  12.346   7.215   5.792  0.2862 -0.1790  0.3135
25858W        W41932  16.484  12.395   3.417  0.0907 -0.0799  0.2173
25859W        W41933   3.569   4.305  15.126 -0.0342 -0.0430  0.1200
25860W        W41934   0.031   6.959  15.739 -0.2445 -0.0159 -0.0804
25861W        W41935   1.616  11.883  14.446  0.1839  0.0693  0.1125
25862W        W41936   3.806   5.887  16.136 -0.2983 -0.0782 -0.2857
25863W        W41937   0.670   1.569   6.295  0.1525  0.1024  0.0976
25864W        W41938   9.437  15.146   1.491  0.3276  0.1054 -0.1125
25865W        W41939  13.949   9.892   3.674  0.1021  0.1110 -0.0610
25866W        W41940   8.564   7.130   3.265  0.2781 -0.0740 -0.1830
25867W        W41941  17.510   7.158   4.606 -0.3861 -0.0465  0.0252
25868W        W41942  13.699  12.856  12.134 -0.1231 -0.0917  0.1158
25869W        W41943  11.815  10.435   3.033 -0.0004 -0.2809  0.1738
25870W        W41944   6.715   7.880   4.249  0.1635 -0.0244 -0.1067
25871W        W41945  16.651   3.686  11.917 -0.1118  0.2567 -0.2794
25872W        W41946  13.958  11.423   1.917  0.4359  0.1959 -0.1182
25873W        W41947   7.765   5.372   4.546  0.0946  0.1217  0.0832
25874W        W41948   8.703   3.386   0.944 -0.0966  0.2846  0.0577
25875W        W41949  10.846  12.147  12.544 -0.0589 -0.1336 -0.0677
25876W        W41950  11.593   8.447   4.300 -0.1169  0.2830 -0.2570
25877W        W41951  15.209   8.130  13.777 -0.0900 -0.0317  0.1809
25878W        W41952   0.055   2.508  12.451 -0.2779  0.3672 -0.0049
25879W        W41953  16.102   9.559  14.289  0.0888 -0.0511 -0.0208
25880W        W41954   7.779   7.518  16.172  0.3098  0.2808  0.3638
25881W        W41955   3.743   9.375  16.105  0.2020 -0.2710 -0.0650
25882W        W41956   4.118   5.305   2.931  0.2662  0.2528  0.1604
25883W        W41957   8.740  16.190  15.182  0.1574  0.2314 -0.1980
25884W        W41958   3.658   4.587  15.677  0.0805 -0.2801  0.0096
25885W        W41959   6.706  14.412  10.933  0.0252  0.2602  0.0951
25886W        W41960  16.196  11.961  12.311  0.1447 -0.2689  0.0359
25887W        W41961   3.056  13.808   1.275 -0.0600  0.3170  0.4401
25888W        W41962  13.530   0.257   2.212 -0.0354 -0.1622  0.0831
25889W        W41963  13.032   5.471  15.652 -0.0653 -0.0931  0.0480
25890W        W41964  11.234  15.157  12.046 -0.2162  0.2287 -0.1791
25891W        W41965   8.408  16.294  14.742 -0.2136  0.1272 -0.2031
25892W        W41966  12.295  14.869   5.629  0.0198  0.1187  0.1505
25893W        W41967   3.975   5.525  15.125 -0.0651 -0.2804  0.2065
25894W        W41968  11.539   1.672  16.248 -0.0004 -0.0032  0.1712
25895W        W41969   8.675   3.891   2.864 -0.1290  0.1877  0.1936
25896W        W41970  15.399   8.812   4.865  0.0573 -0.0355  0.6327
25897W        W41971  15.805   8.237   0.251  0.1415  0.0997 -0.0253
25898W        W41972  12.945   9.433   3.632  0.1594  0.1490  0.0444
25899W        W41973   2.857  11.456   5.046  0.0296  0.5290  0.0846
25900W        W41974   6.697  11.454  14.354 -0.4791 -0.5127 -0.0790
25901W        W41975   4.991  17.162  16.880 -0.1698 -0.1049 -0.0991
25902W        W41976   1.716   7.499  14.694 -0.3344  0.2452  0.4554
25903W        W41977  16.276  16.146  16.509  0.1586  0.2222 -0.1487
25904W        W41978   9.098   9.446  12.050  0.0485 -0.0429 -0.1646
25905W        W41979  12.780  15.551   5.663 -0.1854  0.0803 -0.1165
25906W        W41980  10.811   7.470   3.523 -0.1151 -0.1499 -0.1859
25907W        W41981   6.553  10.337   3.070 -0.2679 -0.3963  0.1051
25908W        W41982   2.570  16.913   1.331 -0.1060 -0.1556 -0.1889
25909W        W41983   2.409   2.241   2.223 -0.2121 -0.0129  0.2885
25910W        W41984  15.756   6.632  13.404 -0.1659  0.0302 -0.4811
25911W        W41985  16.875   3.193   0.475 -0.1372  0.1971  0.0504
25912W        W41986   7.323  15.819   1.039 -0.0101 -0.2087 -0.0070
25913W        W41987   1.589   7.034   0.524 -0.1326 -0.2479 -0.1189
25914W        W41988   3.287  12.554   4.818  0.1909 -0.2365 -0.0174
25915W        W41989  14.473   1.103   5.783 -0.3346  0.1205 -0.2142
25916W        W41990  10.749  14.366  11.118  0.0634  0.2655 -0.0184
25917W        W41991   5.677  16.083  15.596  0.4149  0.1559 -0.1547
25918W        W41992  15.858   0.712  15.095  0.0208  0.1465 -0.0162
25919W        W41993  16.999   6.880  12.737 -0.2735  0.2043  0.1806
25920W        W41994  12.867   3.182  12.911 -0.1879 -0.1275 -0.0268
25921W        W41995  17.738   2.535   1.878 -0.0767 -0.1516  0.2520
25922W        W41996  17.245   5.945  12.861 -0.0671  0.0765 -0.5674
25923W        W41997  16.333  14.611  16.391 -0.1249  0.0934 -0.0938
25924W        W41998  14.257   6.290   3.367 -0.1876  0.0493  0.3027
25925W        W41999  14.659  11.986  12.818  0.2116 -0.0353  0.1000
25926W        W42000   0.429  16.250  15.694 -0.2295 -0.0233 -0.1322
25927W        W42001  17.314   2.033   4.143 -0.0239  0.0983 -0.1755
25928W        W42002   0.140  17.024  15.266  0.1989  0.2080  0.3198
25929W        W42003   0.573   3.527   0.989 -0.1434 -0.2783  0.0371
25930W        W42004  16.814   3.792  14.245  0.1966  0.0877 -0.0378
25931W        W42005   4.940   7.740   2.510  0.1332  0.0646 -0.2731
25932W        W42006   9.035   5.822  13.716 -0.1860 -0.1633 -0.0141
25933W        W42007  14.108  15.640   3.259 -0.1618  0.0973  0.0969
25934W        W42008  14.452   6.491  15.065 -0.1564 -0.1018  0.3601
25935W        W42009  12.545   6.426   2.483  0.1503  0.0462  0.3143
25936W        W42010   2.489   3.709  13.391 -0.3028 -0.0582 -0.0748
25937W        W42011  13.204  10.410   2.238 -0.3209  0.2456  0.0460
25938W        W42012   8.167   1.826   1.281  0.1840 -0.0707 -0.0915
25939W        W42013   9.758  12.309   0.373 -0.2649  0.0138 -0.0722
25940W        W42014   8.010  11.955  15.598  0.0679  0.3273 -0.3636
25941W        W42015   2.217   4.278   2.832  0.1598 -0.0842 -0.2609
25942W        W42016  12.044   4.725   3.683  0.3169  0.2829 -0.4896
25943W        W42017   4.868   7.353  16.687 -0.1107 -0.3027  0.0931
25944W        W42018   0.046  10.468   1.965  0.3296 -0.1100  0.0739
25945W        W42019  11.625  15.377   1.105 -0.1187 -0.2817  0.0011
25946W        W42020   0.547  14.530  12.445  0.2938 -0.2668  0.0441
25947W        W42021   0.775   0.174   4.262 -0.0111  0.1401 -0.1162
25948W        W42022  14.004   8.190   0.910  0.0443  0.0216  0.0413
25949W        W42023   3.226   6.902  14.950 -0.0342 -0.1428 -0.1996
25950W        W42024   8.377  17.050   2.269  0.3514 -0.2116  0.0608
25951W        W42025   7.189   0.554  15.333 -0.0511 -0.3013 -0.1449
25952W        W42026  16.072   3.358   5.458 -0.1012  0.0184  0.0629
25953W        W42027   2.556   3.912  12.872  0.0487  0.1189 -0.1105
25954W        W42028  12.951  16.595   3.710  0.1307 -0.2660 -0.2747
25955W        W42029   5.378  11.729   5.902 -0.0615  0.0051 -0.1252
25956W        W42030   6.998  13.382   4.410 -0.0849 -0.1149  0.0623
25957W        W42031  13.847   0.605   1.622  0.1537  0.1347 -0.2752
25958W        W42032   6.205  10.117  13.829 -0.2301 -0.2852  0.2317
25959W        W42033  13.736   3.308  12.488 -0.0514 -0.0319  0.0854
25960W        W42034   5.653   1.707  15.320  0.2426  0.0016  0.0432
25961W        W42035   2.050   4.373   0.367 -0.3233 -0.1264  0.0371
25962W        W42036   9.787   0.603  13.892  0.1452  0.1052  0.3469
25963W        W42037  10.706   8.525   0.133  0.0949  0.3944 -0.1312
25964W        W42038   6.682   5.118   0.519 -0.1333 -0.1411 -0.1717
25965W        W42039   9.321   2.287  14.007  0.1503 -0.0575 -0.2849
25966W        W42040   5.668   0.092   0.867 -0.0931  0.0585  0.2344
25967W        W42041   9.923   4.311   1.103 -0.1027 -0.4564 -0.1136
25968W        W42042   8.025  11.747  12.182 -0.0067  0.0704 -0.1954
25969W        W42043  16.548  12.821  13.646 -0.0110  0.1644  0.0201
25970W        W42044  11.476   9.666   0.200 -0.2346 -0.4050  0.0204
25971W        W42045   0.759  15.278  13.271 -0.0212  0.2560 -0.2737
25972W        W42046   0.624  15.254  14.563 -0.1238 -0.4505 -0.0101
25973W        W42047   4.108  10.551   5.509  0.1874 -0.0398 -0.2670
25974W        W42048  13.016   4.927  13.063 -0.0318 -0.2150 -0.0021
25975W        W42049   4.646  15.629   2.751 -0.2721  0.1714  0.1807
25976W        W42050  12.304   8.231   1.087 -0.0285 -0.1664  0.2182
25977W        W42051  15.474  17.640  12.653 -0.0957 -0.0950  0.0962
25978W        W42052  12.994  13.587   3.919  0.2657  0.0427  0.1676
25979W        W42053   5.596   5.054  14.447  0.0221  0.2185 -0.0223
25980W        W42054   1.434   4.231   0.052 -0.1137  0.0888 -0.2725
25981W        W42055   2.094   2.765   1.026  0.1999  0.2573 -0.0712
25982W        W42056  16.188   1.416   0.677 -0.1995 -0.2427 -0.0051
25983W        W42057  13.447  12.795   4.971 -0.0552  0.3574 -0.0242
25984W        W42058   9.457   4.032   2.194  0.1624  0.2499 -0.0232
25985W        W42059  10.803  11.473  14.433  0.0707  0.0290 -0.1529
25986W        W42060   2.872  10.932   1.842 -0.1712 -0.4718  0.1080
25987W        W42061   5.268  15.608   2.522  0.0728  0.2001  0.0067
25988W        W42062   9.773   6.560  12.321 -0.0098 -0.0467 -0.0007
25989W        W42063   7.100   6.320  14.820 -0.0780 -0.0156 -0.0978
25990W        W42064   8.999  13.642   5.149 -0.0904  0.0150 -0.1088
25991W        W42065   9.232  11.345   0.557 -0.0443 -0.1686  0.0739
25992W        W42066   0.876   5.339   0.926  0.1695 -0.0717  0.0431
25993W        W42067   9.090  13.642  16.517  0.1397  0.3755 -0.1891
25994W        W42068  10.092   0.109  13.194 -0.0431 -0.4676 -0.0796
25995W        W42069   4.531   1.395  13.891  0.1176  0.0762 -0.3201
25996W        W42070   4.094  15.614  12.623 -0.0906 -0.2645  0.1548
25997W        W42071  14.010  11.276  16.573 -0.0747  0.1256 -0.0525
25998W        W42072  12.036  13.735  14.291 -0.0013 -0.0770 -0.0619
25999W        W42073  10.992   6.736  12.163 -0.0121 -0.2200 -0.0277
26000W        W42074   3.080   2.649   3.562  0.3904  0.4527 -0.3652
26001W        W42075   8.584  12.375  11.690 -0.1625 -0.0702  0.1806
26002W        W42076  10.689  10.865   5.026  0.1115  0.2871  0.1531
26003W        W42077   1.237  11.348   5.236 -0.1277  0.0497 -0.0601
26004W        W42078  11.250   7.164  12.278 -0.1106  0.0664  0.1916
26005W        W42079  15.809  16.357  12.421  0.1892 -0.2106 -0.0173
26006W        W42080   7.278  13.832   2.178  0.2995  0.0181 -0.1379
26007W        W42081   5.234   8.611   3.523  0.0588 -0.0763 -0.1111
26008W        W42082   7.962   2.582  15.582 -0.1281  0.3001  0.0120
26009W        W42083  15.215   3.620   1.780  0.0694 -0.1022  0.0442
26010W        W42084  16.589   6.394   5.337 -0.0084  0.1006 -0.2862
26011W        W42085  12.985   0.241  16.470 -0.1771  0.1366 -0.4653
26012W        W42086   6.948  15.201  14.524  0.2281  0.1550 -0.2624
26013W        W42087  13.248   2.391  16.132  0.1118 -0.2441  0.1067
26014W        W42088  16.386   1.985   3.631 -0.1030 -0.0337  0.2090
26015W        W42089   9.258   8.887   5.245  0.3389  0.0283 -0.0472
26016W        W42090   4.632  16.568  13.105  0.0523  0.1935 -0.0982
26017W        W42091   1.786   9.837  12.266 -0.0936  0.1447  0.1658
26018W        W42092   0.762   1.416   3.349  0.1607  0.0225  0.0363
26019W        W42093  12.062  10.487  13.273  0.1064  0.0884  0.2607
26020W        W42094   1.452   2.604  16.378 -0.2239  0.0073 -0.0805
26021W        W42095   3.126   2.398   4.024  0.1137  0.0779  0.2404
26022W        W42096   6.210   4.043  14.928 -0.0499  0.1682 -0.0561
26023W        W42097   5.142  10.932   6.114  0.0770 -0.1765 -0.4241
26024W        W42098  12.058   1.968  13.436 -0.0355  0.2550 -0.0257
26025W        W42099   2.629   1.990   4.075  0.0034  0.1195 -0.0031
26026W        W42100  10.348  13.988  13.405 -0.2210 -0.3118  0.2817
26027W        W42101  15.620   2.555   5.801  0.0413  0.2387  0.2783
26028W        W42102   2.813  17.330  13.352  0.1743  0.2188  0.2279
26029W        W42103  16.271   5.529  16.017  0.2299  0.0059 -0.0979
26030W        W42104   2.965  16.103  15.809 -0.0124 -0.0721 -0.4613
26031W        W42105   1.900  17.126  16.777  0.0874  0.2422 -0.3603
26032W        W42106   4.823  10.044   5.570 -0.1340  0.1062  0.2495
26033W        W42107  16.723   1.867  16.301 -0.1370  0.0500  0.4416
26034W        W42108  17.558   5.849   1.896  0.0090  0.1791 -0.0406
26035W        W42109  16.767   4.863   1.952  0.0300  0.0832 -0.1950
26036W        W42110   4.728  11.557   1.864 -0.0375 -0.1039  0.1433
26037W        W42111   8.969  11.072  15.009 -0.0295 -0.1555  0.0187
26038W        W42112  12.347   4.386   0.865  0.0845  0.1588 -0.3651
26039W        W42113   2.347  16.277   0.703 -0.0571  0.0776  0.1309
26040W        W42114  15.754   2.327   4.449 -0.0055 -0.0191 -0.0424
26041W        W42115   0.190  16.860   3.268 -0.4889  0.0284 -0.0752
26042W        W42116  17.664   2.339   0.148 -0.2942 -0.0993 -0.1228
26043W        W42117   4.320   8.333   0.021  0.4548  0.0219  0.3425
26044W        W42118   0.637  14.070   3.032 -0.0420 -0.2011  0.0985
26045W        W42119   0.354  14.767   6.349 -0.0855 -0.2016 -0.1721
26046W        W42120   7.785  17.341  13.277  0.1141 -0.0812 -0.0115
26047W        W42121  10.336   8.982  14.447  0.1429 -0.3160 -0.3271
26048W        W42122   2.450   9.465   1.728  0.0407  0.1384  0.0495
26049W        W42123   0.148  13.298  13.106  0.2691  0.0876  0.1185
26050W        W42124  14.520   5.432  12.261  0.2745 -0.0377 -0.0928
26051W        W42125   2.679   8.068  12.644  0.0696  0.2265 -0.0855
26052W        W42126   8.872  15.477  13.905  0.3077  0.1130 -0.1170
26053W        W42127   4.711  10.410  11.703  0.0580 -0.0301 -0.3168
26054W        W42128  10.319  11.131  16.692  0.1186 -0.3004  0.1045
26055W        W42129   5.820  10.729   0.426 -0.1882 -0.0333 -0.3015
26056W        W42130  11.170   4.916   3.587 -0.0888 -0.3934 -0.3304
26057W        W42131   8.426  13.370  11.546  0.1841  0.1174  0.1492
26058W        W42132   9.937  16.340  12.645 -0.0917 -0.1066  0.2261
26059W        W42133  14.852  16.112  13.292 -0.2159 -0.0240 -0.0465
26060W        W42134  11.236  13.356  14.054  0.2981 -0.0945  0.1403
26061W        W42135   8.708   6.798  13.857  0.2187  0.0704 -0.1383
26062W        W42136   9.460   6.650   2.031 -0.2056  0.0150  0.2135
26063W        W42137  12.656   0.372  13.844 -0.2096  0.0131 -0.1635
26064W        W42138  11.503  10.349  12.970  0.2325 -0.1081  0.0025
26065W        W42139   5.280   3.862   3.127 -0.1210  0.0293  0.0149
26066W        W42140  15.630  12.135  16.704 -0.0012  0.1841  0.1555
26067W        W42141  12.544   1.413   0.446 -0.1337 -0.0448 -0.0722
26068W        W42142  11.455   8.757  14.420 -0.1991  0.0073  0.1456
26069W        W42143   0.840  15.028   5.028  0.2583  0.1004 -0.1502
26070W        W42144  15.350  14.691   6.279  0.1086  0.2906 -0.1818
26071W        W42145   5.418  10.838   1.219  0.3153 -0.0120  0.0396
26072W        W42146  14.378  16.926   3.259 -0.1891 -0.0982 -0.1628
26073W        W42147   7.471   7.540  11.821 -0.0688 -0.0207  0.0383
26074W        W42148  17.437   1.142  13.481  0.0744  0.1701  0.0145
26075W        W42149  14.462   8.478   2.666  0.1284 -0.2413 -0.1212
26076W        W42150  11.921  15.919  11.816  0.3448 -0.0306  0.1705
26077W        W42151   6.920  13.741   3.981 -0.2448  0.0113  0.2012
26078W        W42152  16.168  17.504   5.378  0.1656  0.1050  0.0615
26079W        W42153   0.920  13.954  14.369 -0.0739  0.0626 -0.1870
26080W        W42154   9.072  16.975   4.114 -0.1355  0.0572 -0.3347
26081W        W42155  16.472   3.721  14.625 -0.4397  0.0572  0.0089
26082W        W42156   1.772  11.490  11.794  0.0914  0.0914 -0.1355
26083W        W42157   2.472  12.937  15.599 -0.2142 -0.0705  0.0531
26084W        W42158  10.301  11.797  13.448 -0.0247 -0.0133 -0.0194
26085W        W42159  12.566  11.414  13.789 -0.2585 -0.0712  0.2025
26086W        W42160   6.896  15.048   3.103  0.2909 -0.0605  0.0462
26087W        W42161   2.665  11.170   3.784 -0.0745 -0.2853  0.0179
26088W        W42162  15.115  15.406  16.908 -0.1135  0.0436 -0.0805
26089W        W42163   7.686   1.263   3.106  0.1108  0.0963 -0.1220
26090W        W42164  15.704  11.444   0.883 -0.3729 -0.1803  0.1621
26091W        W42165   4.148   4.612   1.341  0.0162  0.0672 -0.2031
26092W        W42166   3.493   4.214   1.898  0.1750 -0.1965  0.1842
26093W        W42167  15.159  13.557  15.132  0.0884  0.0534  0.1123
26094W        W42168   7.303  10.433  14.376  0.0709 -0.5705 -0.1770
26095W        W42169  13.986  15.142  14.944  0.2888 -0.0959  0.0873
26096W        W42170   1.093   8.464   1.050  0.1799  0.0197 -0.1968
26097W        W42171   1.576   2.740   5.184 -0.0367 -0.2111  0.0029
26098W        W42172   0.832   1.710  11.850 -0.0729  0.2432  0.0491
26099W        W42173  15.645  10.022  14.177  0.1589 -0.0762  0.3012
26100W        W42174   1.757  12.422  14.451 -0.0371  0.3039 -0.0002
26101W        W42175   3.619  14.884  16.388  0.0404 -0.0095  0.1314
26102W        W42176   9.019   2.175  13.560 -0.1020 -0.0944  0.0269
26103W        W42177  10.338   2.223  13.179  0.1550 -0.2181 -0.2521
26104W        W42178   3.196   0.780  12.002  0.2429 -0.1068 -0.2366
26105W        W42179   6.211   0.030   3.601 -0.1859 -0.0885  0.1671
26106W        W42180   0.301   2.954  14.545  0.0761 -0.0250 -0.2490
26107W        W42181   9.215  11.744  15.820 -0.0748 -0.2832 -0.1129
26108W        W42182  14.705   6.387  14.249  0.2122 -0.1555  0.0186
26109W        W42183  12.842  16.946  15.471  0.3151 -0.0575 -0.0297
26110W        W42184  15.893  15.309   4.154  0.3146  0.2486  0.1133
26111W        W42185  15.455   9.850   2.450  0.0661  0.4077  0.0358
26112W        W42186   8.580   1.138   2.052 -0.0373  0.1512  0.1226
26113W        W42187   3.933   2.396   4.596 -0.0566 -0.1139 -0.0093
26114W        W42188  14.550   6.657  13.148 -0.1073  0.0185  0.0876
26115W        W42189  14.757   9.653  16.207 -0.0079 -0.2859 -0.1390
26116W        W42190   1.185   5.345   2.936 -0.1663 -0.0638 -0.0341
26117W        W42191  12.113   1.127   4.480  0.2533 -0.2626  0.0141
26118W        W42192   3.661  12.821  10.883  0.0649  0.0893  0.0351
26119W        W42193  10.261   7.297  12.993 -0.1747  0.2418 -0.1694
26120W        W42194   9.969   1.457  14.969  0.1074 -0.1843  0.1039
26121W        W42195   6.241  15.914  14.104 -0.3775  0.2062 -0.0221
26122W        W42196   2.975  10.592   1.462 -0.0191 -0.0510  0.1660
26123W        W42197   9.180  13.868  15.428 -0.1189 -0.1092  0.0938
26124W        W42198   5.998   4.929   5.294 -0.0239  0.2968  0.0347
26125W        W42199  17.240  17.085  15.782  0.0688  0.0867 -0.1318
26126W        W42200  10.801   1.250   4.685  0.0513 -0.2022 -0.2401
26127W        W42201   2.866  16.295   4.657 -0.2219  0.1631 -0.3288
26128W        W42202  17.129   2.395  14.913 -0.0763  0.1619 -0.1334
26129W        W42203   3.648   4.668  12.266 -0.0637  0.3467 -0.1037
26130W        W42204  10.625  17.576  14.550 -0.0463 -0.0877 -0.0516
26131W        W42205   6.495  11.339   4.980  0.0780  0.1237  0.0401
26132W        W42206   8.374  11.283   0.704 -0.0409 -0.1571 -0.2334
26133W        W42207   2.983   5.394  13.843  0.1776 -0.3497  0.0662
26134W        W42208   8.809   0.147  12.548  0.0858 -0.2594  0.1411
26135W        W42209   1.771   7.001   5.035 -0.3293  0.1133  0.0862
26136W        W42210   4.203   7.371   0.372 -0.0131  0.3673  0.3365
26137W        W42211  12.656   5.817   4.258 -0.1672  0.0968 -0.1056
26138W        W42212   4.092  13.974  13.039  0.0724  0.0227 -0.0335
26139W        W42213  16.979  14.639   0.360 -0.0580 -0.3187  0.1177
26140W        W42214  13.626   8.236  15.466  0.0042  0.0469  0.0959
26141W        W42215  10.553   6.800   1.288 -0.2329  0.0111  0.1390
26142W        W42216   4.766  11.064   4.538  0.1313 -0.3443 -0.0686
26143W        W42217  14.049   4.208  12.739  0.3987 -0.1195 -0.0903
26144W        W42218   8.064  11.194  12.218  0.3875 -0.0125  0.0295
26145W        W42219   6.724  13.277  16.426 -0.1148  0.0356 -0.2637
26146W        W42220  17.130   5.915   3.497 -0.0892  0.1166 -0.1123
26147W        W42221  16.128  13.360  15.017 -0.3559 -0.0935 -0.1821
26148W        W42222   8.522  11.777   6.363  0.0782 -0.1013  0.1051
26149W        W42223   7.876   7.079   0.758  0.0068 -0.0667  0.0924
26150W        W42224  11.220  16.307  12.633  0.2477  0.1899  0.0753
26151W        W42225   6.819   9.059   3.713 -0.2573  0.2531  0.0865
26152W        W42226   9.552   2.972   6.062  0.2467 -0.1125 -0.0438
26153W        W42227  16.811   4.383   5.808 -0.0454  0.1907 -0.0445
26154W        W42228   3.095   1.808  15.797 -0.2012  0.1489 -0.1592
26155W        W42229   4.154   9.343  12.385 -0.0263  0.1494 -0.5338
26156W        W42230  15.694   1.422   4.457 -0.1335 -0.1198  0.0304
26157W        W42231  17.182   6.813  15.202  0.0607  0.2719  0.1218
26158W        W42232  12.452   4.942   3.015  0.1099 -0.0032 -0.0706
26159W        W42233   7.803   4.857  11.945  0.0524  0.0635  0.0358
26160W        W42234  10.294   3.782   1.826 -0.2146 -0.0528 -0.0350
26161W        W42235   9.738  15.172   3.224  0.0050  0.3238 -0.0642
26162W        W42236  15.291  14.503   1.181  0.0233  0.0200 -0.0830
26163W        W42237   7.455  12.597   4.991 -0.0802  0.0187  0.0091
26164W        W42238  17.700  13.984   5.139  0.2011 -0.0488 -0.0563
26165W        W42239   9.019  16.875   3.613  0.2582 -0.0598 -0.2327
26166W        W42240   5.312  11.350   2.599 -0.0278 -0.1993 -0.0054
26167W        W42241  15.918   7.342  16.081  0.2571  0.1125  0.0431
26168W        W42242  10.353  12.100   5.841  0.2349  0.0344 -0.0996
26169W        W42243  13.076   7.248   4.958  0.1495 -0.0527 -0.1065
26170W        W42244  15.388   5.472  14.906  0.1166 -0.2257 -0.2327
26171W        W42245   7.763   3.979   2.382 -0.1135  0.0722  0.1870
26172W        W42246  14.881  10.444  13.580  0.0127 -0.0074 -0.0183
26173W        W42247  10.630   9.043   0.241 -0.2966  0.1561 -0.0837
26174W        W42248   5.501  15.195  12.136 -0.0553 -0.0277  0.0910
26175W        W42249   6.610   2.843  12.175  0.0341  0.1513  0.3455
26176W        W42250   0.029  16.628  12.106 -0.0154  0.3049  0.1425
26177W        W42251   3.080   4.509   2.214 -0.0030 -0.0108 -0.0780
26178W        W42252  15.970  11.362  14.788  0.1701 -0.1975 -0.1771
26179W        W42253  11.798  10.059  16.405  0.2225  0.1014 -0.2566
26180W        W42254  10.937   2.707  14.575  0.1001  0.1885 -0.1189
26181W        W42255   5.735   7.745  14.917  0.1060  0.2881 -0.2400
26182W        W42256   5.744   8.135  13.391  0.2725  0.4930 -0.1591
26183W        W42257   6.566   9.706   1.900  0.0711  0.0412 -0.1256
26184W        W42258  13.204  13.049   1.348 -0.3665  0.0681 -0.2236
26185W        W42259  11.083   6.209  14.162 -0.0137  0.0894 -0.3604
26186W        W42260  10.519   8.313   0.600 -0.2766 -0.0673 -0.1385
26187W        W42261  12.347   4.109  12.981  0.2227  0.1073  0.3319
26188W        W42262   4.311   3.794   4.228  0.2521  0.0166 -0.0580
26189W        W42263   3.718  13.202   1.380  0.0200  0.0739 -0.0016
26190W        W42264   0.013   5.813   3.996 -0.1891 -0.2083 -0.1466
26191W        W42265   5.176   9.834   0.621 -0.2873 -0.0195  0.1883
26192W        W42266  11.775  15.439   0.597 -0.1867  0.0133  0.1516
26193W        W42267   8.583  12.900  15.359 -0.0610  0.1259 -0.2035
26194W        W42268   9.857  10.325   5.005 -0.1259  0.0337  0.2159
26195W        W42269   9.807  12.881  12.332 -0.0668  0.0303 -0.1491
26196W        W42270  16.190  12.319  11.780 -0.2191  0.3175 -0.1295
26197W        W42271   4.718   3.596   2.506 -0.3418 -0.2359  0.4918
26198W        W42272   6.677   8.840  15.580  0.0828 -0.1034 -0.0944
26199W        W42273   3.449  10.902  15.746  0.1226 -0.2450  0.1014
26200W        W42274  11.462   4.408  16.397 -0.1077 -0.1087 -0.2791
26201W        W42275  17.532   1.960   1.318  0.1099 -0.0627 -0.1818
26202W        W42276   5.325   6.085  16.104 -0.1175 -0.2103  0.0497
26203W        W42277  12.791   5.058  15.905  0.4263  0.1062 -0.2983
26204W        W42278  15.804  10.454   4.872  0.1558 -0.0281  0.0395
26205W        W42279   9.476   7.572   0.143 -0.0415 -0.3676  0.2908
26206W        W42280  11.306   0.333  13.443 -0.0989  0.0363 -0.1598
26207W        W42281   0.433  15.629   2.694  0.0539 -0.3811  0.4854
26208W        W42282  13.859   1.897   2.912 -0.0821  0.1723  0.0283
26209W        W42283   9.021  12.336   3.411 -0.1295  0.4121  0.0666
26210W        W42284   3.246   6.634   5.140  0.4427  0.0810 -0.0134
26211W        W42285   6.825   6.429   3.560 -0.2085 -0.1500 -0.1261
26212W        W42286   9.710   7.421   1.662  0.0520 -0.0205 -0.2372
26213W        W42287   9.821  10.869  13.189  0.0743  0.0546  0.2245
26214W        W42288   4.674   6.365   0.568  0.0711  0.3213  0.2230
26215W        W42289  16.994  15.330   1.294  0.1254 -0.3051  0.0643
26216W        W42290  12.442  12.263  13.714  0.4330  0.1661 -0.2080
26217W        W42291   0.133  15.687  17.072  0.1558 -0.0116 -0.1943
26218W        W42292   2.595  16.968  16.170 -0.1692  0.3432  0.0783
26219W        W42293  11.682   0.731  13.970  0.0081 -0.0274 -0.2444
26220W        W42294   1.568   7.026   1.349 -0.0572 -0.0222  0.0274
26221W        W42295   6.085   9.291  12.874  0.1773  0.1948  0.2520
26222W        W42296   0.155  13.090   5.880 -0.2874 -0.0086 -0.0400
26223W        W42297   2.843   1.010  16.423  0.0255 -0.0828  0.2845
26224W        W42298   2.861   0.793  13.241  0.1683 -0.1709  0.1779
26225W        W42299  13.571   9.960   2.368 -0.3031  0.3134  0.0108
26226W        W42300   1.833  10.631  14.814  0.0512  0.3451 -0.0110
26227W        W42301  17.520   9.545   0.877 -0.2668  0.2098  0.3130
26228W        W42302   0.404   9.792  12.266 -0.0505  0.0032 -0.0101
26229W        W42303  10.542  15.849   2.232 -0.2269 -0.0728 -0.0515
26230W        W42304   0.940   1.819  15.511  0.2098 -0.2908 -0.1312
26231W        W42305  15.083  14.038  12.690  0.0558  0.0907 -0.0262
26232W        W42306  14.752  13.728   5.304  0.0661 -0.0166  0.0867
26233W        W42307   2.061   0.906   0.379 -0.0476 -0.3417 -0.0673
26234W        W42308   0.896   2.574  13.706  0.1543 -0.5123 -0.0202
26235W        W42309  13.821  10.246   2.678 -0.2801  0.0759  0.0190
26236W        W42310   6.277   4.559  15.619  0.3118  0.0443  0.0755
26237W        W42311  11.475  16.460  15.418  0.1845 -0.0457  0.0741
26238W        W42312   6.560   0.104   4.036 -0.0966  0.1638  0.0910
26239W        W42313   5.049  13.283  14.496 -0.2619  0.0379 -0.1679
26240W        W42314  10.824  14.562   1.990  0.0490 -0.0997 -0.3284
26241W        W42315  17.692   2.442   1.362  0.2614 -0.0848 -0.1942
26242W        W42316   5.420  17.336  13.066  0.1089 -0.1629  0.3689
26243W        W42317   6.252  17.157  16.735 -0.1182 -0.2660  0.1730
26244W        W42318   4.612  13.950   2.885 -0.1126  0.3821  0.0441
26245W        W42319   9.424  15.070  16.652  0.0287 -0.1434 -0.0122
26246W        W42320   4.180   1.087   5.579  0.1667  0.0430 -0.0214
26247W        W42321  14.250   9.662   0.560 -0.0890  0.1815  0.0102
26248W        W42322  10.852   3.116   1.040 -0.1698 -0.2417 -0.1200
26249W        W42323   7.839   7.639  16.659 -0.2990 -0.0110 -0.3561
26250W        W42324  16.942   8.478  15.932 -0.0868 -0.0888  0.0454
26251W        W42325   1.898   1.307   4.307  0.0704 -0.0528 -0.0592
26252W        W42326   1.368  14.531   5.617  0.0116  0.0749  0.0384
26253W        W42327   0.596   1.902  10.689 -0.1188 -0.2170  0.3131
26254W        W42328  16.140  14.779  14.023  0.0216 -0.1536 -0.0438
26255W        W42329  11.043   4.932   3.116  0.0340 -0.0193  0.0662
26256W        W42330  10.447  12.220  13.743  0.1473  0.2187 -0.2064
26257W        W42331   0.701  17.367   3.819 -0.2881 -0.1670 -0.1519
26258W        W42332   6.968   5.296   1.938 -0.0489 -0.1177  0.1768
26259W        W42333   7.424  17.136  12.887 -0.0944  0.6436  0.1034
26260W        W42334   5.638  15.285   1.864  0.0753 -0.0336  0.2021
26261W        W42335  10.416  16.137   5.246 -0.1190 -0.2142 -0.2027
26262W        W42336   5.417  13.501  14.996 -0.1027  0.0312  0.2573
26263W        W42337  16.798   5.292  12.061  0.1353 -0.2808 -0.0662
26264W        W42338   7.522  15.557  16.640  0.0665 -0.1775  0.2994
26265W        W42339  11.096  17.098  16.890 -0.2688 -0.1776  0.0833
26266W        W42340   3.744   2.533  15.021  0.2741  0.0872  0.1136
26267W        W42341  16.254  10.067  11.493  0.1919  0.1340 -0.3464
26268W        W42342  13.275  13.326  13.400  0.1842 -0.1200 -0.2312
26269W        W42343   7.808   7.499  15.646  0.1584  0.0814  0.1252
26270W        W42344   5.663   8.971  15.784  0.2231 -0.1117 -0.1951
26271W        W42345   3.078   4.133  15.050 -0.0555 -0.0889 -0.1195
26272W        W42346  15.251   4.523  13.412  0.1764 -0.0772  0.1633
26273W        W42347   8.811   5.676  15.971 -0.1377  0.0995 -0.1695
26274W        W42348   6.441   8.357   4.612  0.0981  0.0166 -0.0787
26275W        W42349  15.332   6.949  11.688 -0.2831  0.0612  0.2030
26276W        W42350   2.214   4.602   1.978 -0.1222  0.6160  0.0396
26277W        W42351  11.447  13.641   2.918 -0.0461  0.0469 -0.0372
26278W        W42352  10.003   6.339   5.064  0.1885  0.0574 -0.1680
26279W        W42353   4.096  16.957   4.954 -0.0501  0.3638  0.1263
26280W        W42354   9.681   5.743   3.286  0.3440  0.0630  0.1003
26281W        W42355   2.484  13.447   0.361 -0.2763  0.0415 -0.2120
26282W        W42356   7.201  15.822   2.610 -0.1023  0.1200  0.0190
26283W        W42357   6.692  16.735   2.583 -0.0901  0.1811 -0.0778
26284W        W42358   3.497   7.243   1.802  0.2401  0.0210  0.0299
26285W        W42359  15.332  10.436   3.745 -0.2165  0.1270  0.2412
26286W        W42360   1.623   1.191   1.705 -0.0247 -0.3623 -0.2626
26287W        W42361   9.918   8.780   3.445  0.0166 -0.3271 -0.1483
26288W        W42362   7.489   8.491   1.494  0.0018  0.3831 -0.0670
26289W        W42363   4.645   2.131  15.923  0.2815  0.1530  0.0147
26290W        W42364  16.136  12.155   0.102  0.1354 -0.3034 -0.0392
26291W        W42365   5.480   6.209   2.140  0.1740  0.0501 -0.0484
26292W        W42366   0.684  16.076   1.806 -0.2327  0.1220 -0.1210
26293W        W42367   8.700   7.374   4.614  0.4173  0.2219 -0.2271
26294W        W42368   7.664  11.404  14.373  0.1255 -0.1609 -0.0147
26295W        W42369  14.950  13.295  12.589  0.1227 -0.1264  0.2867
26296W        W42370   7.733  15.975   3.529  0.0576 -0.0982  0.0506
26297W        W42371   8.775   9.274   4.042 -0.1350  0.0619  0.2280
26298W        W42372   7.339   9.069   6.353  0.0511  0.1102 -0.0284
26299W        W42373  17.271   0.198  15.869  0.1080  0.2271  0.0958
26300W        W42374  16.258   4.534  11.834  0.0100 -0.2354 -0.1687
26301W        W42375   3.176  12.869   6.245 -0.0951 -0.4647  0.1354
26302W        W42376  11.392   6.315   3.236 -0.3124  0.3007 -0.2016
26303W        W42377  17.606  14.281  13.400  0.1058  0.1860 -0.2334
26304W        W42378  14.889   0.947   1.002  0.0644  0.3254 -0.0781
26305W        W42379  14.120   4.021   4.388 -0.3060  0.0961 -0.1199
26306W        W42380   4.849   0.554   6.423 -0.0004 -0.1960  0.1570
26307W        W42381   3.279   8.207   4.141  0.0837  0.0602  0.0725
26308W        W42382   5.742   8.817   5.220 -0.3506  0.1692  0.1660
26309W        W42383  13.720   5.705   3.120 -0.3061  0.0243 -0.1408
26310W        W42384   9.634   2.772  14.653  0.0797 -0.1693  0.0237
26311W        W42385  17.127  16.524   4.230  0.1735  0.3233 -0.2168
26312W        W42386  12.435  11.016  15.699 -0.0488  0.3564  0.3611
26313W        W42387  15.066  13.587   2.292 -0.0154  0.0152  0.0696
26314W        W42388   0.799  11.500   3.670 -0.1903 -0.1730 -0.0784
26315W        W42389   9.619   6.843   5.713 -0.3175  0.0171  0.2190
26316W        W42390   8.207  13.928   3.860  0.2176 -0.2137  0.0827
26317W        W42391   2.272   2.711  16.327  0.0889  0.1428 -0.3074
26318W        W42392  14.174   2.957  12.351  0.0366 -0.0511  0.3872
26319W        W42393   5.754  16.294  12.127  0.1335  0.0665 -0.0244
26320W        W42394   3.341  15.705  14.650  0.0699 -0.1540  0.0579
26321W        W42395  11.022  16.785   1.267  0.0624 -0.1333  0.0157
26322W        W42396   5.585  12.964  14.204  0.0277  0.3058  0.0186
26323W        W42397   7.241   1.327  16.430 -0.1375 -0.0713  0.1419
26324W        W42398   0.912  15.278   1.179 -0.0664 -0.0354  0.0199
26325W        W42399   7.931   8.895  14.519 -0.1003 -0.1029 -0.1412
26326W        W42400   2.873   9.533  13.794 -0.1272 -0.0038  0.0161
26327W        W42401  17.297   6.168   2.173  0.2625  0.1619  0.1694
26328W        W42402   9.226   4.723  17.064  0.0410 -0.0297  0.0212
26329W        W42403  11.563  16.347   2.736 -0.0455 -0.0545 -0.3767
26330W        W42404  11.202   3.507  16.727 -0.0793  0.0966 -0.0533
26331W        W42405  17.023   6.424  14.831  0.1581  0.0977 -0.3037
26332W        W42406   7.883   9.408  12.941 -0.0265  0.0318  0.0644
26333W        W42407   5.469   9.822   6.381  0.1673 -0.1345 -0.0945
26334W        W42408   1.038  14.040   0.018 -0.1234 -0.1398 -0.1281
26335W        W42409  14.484   0.759   0.445 -0.1239 -0.0291  0.3187
26336W        W42410   2.946  12.199  16.372 -0.0728  0.2945 -0.1335
26337W        W42411   6.784   3.671  12.629  0.1454  0.1999 -0.0874
26338W        W42412  16.682   5.783  12.073  0.3518  0.1473  0.0365
26339W        W42413  10.397  13.218  14.217  0.2975 -0.2235  0.2008
26340W        W42414   9.571  14.275   0.810 -0.2363  0.0199 -0.1036
26341W        W42415   8.990  11.608  16.516 -0.0345  0.0385  0.1709
26342W        W42416  11.349   9.597  12.824  0.0004 -0.1734 -0.1342
26343W        W42417   2.236   6.306   3.013  0.0707  0.0146  0.1039
26344W        W42418   2.122  12.633  14.773 -0.0537  0.0090 -0.0625
26345W        W42419   5.971  12.424  12.189 -0.3498  0.3147 -0.0305
26346W        W42420   4.362  11.511   4.551 -0.0804  0.0406 -0.1429
26347W        W42421  14.753   5.175  11.419 -0.1654  0.2047  0.0160
26348W        W42422   1.417  13.742  16.987 -0.0530 -0.2236 -0.1478
26349W        W42423   1.987  12.399   1.526 -0.0048 -0.0295  0.1293
26350W        W42424   5.349   9.921  16.538 -0.0774  0.0811  0.4452
26351W        W42425   5.253  11.288   4.207  0.0784  0.2177  0.0790
26352W        W42426  14.488   1.745   4.676  0.0705  0.0186  0.0779
26353W        W42427   5.529   8.740  16.958  0.0329  0.1267  0.1427
26354W        W42428   8.052  17.016  12.326 -0.0467 -0.1535 -0.1763
26355W        W42429  15.035  16.170   5.517 -0.0651 -0.0288 -0.0824
26356W        W42430  13.431   6.450  13.704  0.0999 -0.0284  0.1889
26357W        W42431   7.440   8.584   3.147 -0.3330 -0.1305  0.3607
26358W        W42432   6.299  11.658  12.638  0.1471  0.3051  0.0553
26359W        W42433   8.222  12.624  14.044 -0.0795  0.1308 -0.0600
26360W        W42434   8.289  12.974  16.681  0.1591 -0.0037  0.1540
26361W        W42435   7.577   4.733  12.727 -0.3001 -0.4156 -0.0486
26362W        W42436   4.497  17.489   0.050  0.2779 -0.0741 -0.0035
26363W        W42437   2.206   9.551  12.334  0.2787 -0.1859 -0.0986
26364W        W42438  10.596   3.249   2.892 -0.0190 -0.0789 -0.2233
26365W        W42439  10.330  11.289   4.914  0.4361  0.2745 -0.2736
26366W        W42440  14.269  12.437   3.356 -0.1239 -0.0761 -0.0386
26367W        W42441   2.745  10.174   5.799  0.0809 -0.0159 -0.2109
26368W        W42442   4.849  13.232  14.061  0.1249 -0.0728  0.1991
26369W        W42443  13.682  12.063  14.488 -0.0176 -0.1994 -0.0819
26370W        W42444   2.328   0.512   0.538 -0.0426  0.0463 -0.0709
26371W        W42445  16.912  16.642  16.125 -0.0835  0.1740  0.5468
26372W        W42446  12.345  16.398  16.148  0.0384  0.0408  0.1168
26373W        W42447   1.562   9.450   2.129 -0.1317  0.0762  0.1231
26374W        W42448   7.860   8.891   0.011 -0.0807 -0.1531  0.0370
26375W        W42449  14.634   5.683   0.754  0.3261 -0.1329  0.3298
26376W        W42450   6.592  16.896  11.964  0.1104 -0.0448 -0.0082
26377W        W42451   7.947   7.680  12.552 -0.2328 -0.0191  0.0782
26378W        W42452   0.527   5.240  11.905 -0.1246 -0.1855  0.0548
26379W        W42453   1.523   8.845  13.296 -0.3047  0.0115 -0.2698
26380W        W42454   6.122   7.963   1.783 -0.1058  0.1749 -0.1017
26381W        W42455  14.366   6.973  12.232 -0.0132 -0.2525  0.3217
26382W        W42456  11.665  14.267  16.618  0.2330 -0.0032 -0.1368
26383W        W42457  10.291   3.540  13.662  0.2933 -0.3451  0.1648
26384W        W42458   6.185  11.291  14.669 -0.0110 -0.0405 -0.0214
26385W        W42459  17.292  13.895  13.690  0.0358  0.2538 -0.0959
26386W        W42460  14.332   1.860   2.845 -0.1409  0.0100 -0.1022
26387W        W42461  15.718   9.402   2.370  0.2138  0.2156 -0.0097
26388W        W42462   1.509  12.346   4.989 -0.0238 -0.1365 -0.1067
26389W        W42463   0.283   9.940  14.945 -0.2719 -0.0107  0.2261
26390W        W42464  10.504  15.754   5.550 -0.1250 -0.1190  0.0630
26391W        W42465   5.951  15.569   1.014 -0.0612 -0.4917 -0.1044
26392W        W42466  10.737   5.461  15.903 -0.0315  0.2893 -0.3637
26393W        W42467   4.088   5.620   5.141 -0.2430  0.0861 -0.0534
26394W        W42468  15.588  17.464   1.054  0.0012  0.1259 -0.0948
26395W        W42469  11.345  16.084   5.961 -0.2056  0.1596  0.2765
26396W        W42470   0.057  11.201  13.119 -0.0940  0.2658  0.0913
26397W        W42471   5.814   5.285   0.727 -0.0331 -0.1387 -0.0842
26398W        W42472  12.949   1.138  15.259 -0.1855  0.0710 -0.3020
26399W        W42473   8.728  16.668   0.901  0.3383  0.1172  0.0291
26400W        W42474   4.355   2.028   4.628 -0.0741 -0.2178  0.0039
26401W        W42475   2.460  12.174  10.808  0.0703  0.2411 -0.0000
26402W        W42476   6.521   2.452   3.307  0.0259  0.0385 -0.0775
26403W        W42477  13.589  12.396  13.098 -0.1600 -0.0833  0.1222
26404W        W42478   6.281  14.325  13.056  0.1654 -0.2498  0.3109
26405W        W42479  15.322  14.941  12.928 -0.1005  0.2803  0.0677
26406W        W42480   1.221  11.812   4.976 -0.0452  0.1052 -0.2574
26407W        W42481   4.244   9.794  13.989  0.1460 -0.0198  0.0907
26408W        W42482  10.470  12.950   5.481  0.3023 -0.1639 -0.1889
26409W        W42483  13.414   3.173  14.650  0.1577 -0.3667  0.3391
26410W        W42484  15.711   3.060   2.866  0.0055  0.2360 -0.0745
26411W        W42485   2.596   2.594   2.609 -0.0296 -0.0620  0.1891
26412W        W42486  14.089   3.220   3.014  0.0604  0.0629  0.0828
26413W        W42487   3.851   8.989   0.616  0.1749  0.0568  0.1362
26414W        W42488  14.218  16.728  13.334  0.4858  0.1008  0.0827
26415W        W42489  14.557  11.559   2.568  0.0774  0.0005  0.1336
26416W        W42490  11.830   0.479  12.628  0.1769 -0.1551  0.3096
26417W        W42491   7.315   0.454   1.609 -0.0754 -0.1590 -0.4014
26418W        W42492  15.168  11.618   2.667  0.1738  0.2992  0.0056
26419W        W42493   2.947  16.618   1.778 -0.0931 -0.1473  0.0173
26420W        W42494   5.722  10.150   5.173  0.0940  0.1978  0.0865
26421W        W42495   0.767  14.918   0.393 -0.4737  0.0911  0.1176
26422W        W42496   7.200  17.564   3.746 -0.2842  0.1370 -0.1751
26423W        W42497   7.165   3.475  14.972 -0.1184 -0.1819 -0.1715
26424W        W42498   3.951   9.075   1.829 -0.0448 -0.1680 -0.1267
26425W        W42499  12.463   9.664   3.006  0.2273 -0.0046  0.0986
26426W        W42500   2.873  12.466   1.093  0.1131 -0.1035 -0.1598
26427W        W42501  16.234   2.543   0.546 -0.1888 -0.1218 -0.1299
26428W        W42502   9.919  15.296   1.472 -0.4088 -0.1514 -0.0671
26429W        W42503   8.363  14.161   2.898  0.0700  0.0195  0.0143
26430W        W42504   6.225   0.413   1.592 -0.1266  0.1293  0.2059
26431W        W42505  13.049  11.408   2.614 -0.4993 -0.1189  0.0602
26432W        W42506   5.581   1.225  16.467 -0.0341 -0.2424  0.1095
26433W        W42507   1.412   7.842  13.952  0.1821 -0.3248 -0.0290
26434W        W42508  12.097   0.767  13.291  0.1508 -0.1017  0.1753
26435W        W42509   3.564   6.349  12.379  0.0474 -0.0895  0.3008
26436W        W42510  10.014  12.833  14.311 -0.1709 -0.1089 -0.2745
26437W        W42511   7.308  13.942   2.718  0.0169  0.1268 -0.1576
26438W        W42512   1.405   4.623  12.017  0.0049 -0.1704  0.0310
26439W        W42513  15.193   4.628   2.002  0.1694 -0.1397 -0.0213
26440W        W42514  15.073  10.844   3.829  0.1552  0.0569  0.4109
26441W        W42515   2.773  16.640  16.496 -0.0318  0.0722 -0.0874
26442W        W42516  11.927   4.196   2.003 -0.1012 -0.2459  0.1369
26443W        W42517   2.708  16.771  13.533  0.0267  0.0527 -0.1271
26444W        W42518   7.770  17.147  16.007  0.3254  0.0359 -0.1008
26445W        W42519   2.055   2.759  14.592  0.0988 -0.0796 -0.1795
26446W        W42520   2.489   2.237  16.117  0.0997 -0.0762 -0.0030
26447W        W42521   2.035   7.655  15.085 -0.2256  0.0699  0.1830
26448W        W42522   4.810  11.594  16.216 -0.2039 -0.0234 -0.0129
26449W        W42523   5.970  14.436   1.638 -0.1418 -0.2565  0.2491
26450W        W42524   0.253   9.173  12.921  0.0756 -0.1411 -0.2711
26451W        W42525   2.560  16.412  14.872 -0.1237 -0.3726 -0.0354
26452W        W42526   0.003  10.955   2.738 -0.0071  0.2310 -0.0870
26453W        W42527   0.730   9.235  17.069  0.2213  0.0030 -0.0552
26454W        W42528  13.591   7.400  11.832  0.0279 -0.0125  0.0101
26455W        W42529  13.682  10.401  15.882  0.0148  0.0474 -0.0666
26456W        W42530   0.482  14.315  14.568  0.1329 -0.1001 -0.0251
26457W        W42531   2.298   9.903  14.284  0.0080  0.0985 -0.2706
26458W        W42532  15.373   9.090   2.557  0.0009 -0.1244  0.1234
26459W        W42533  16.102  17.494   0.999  0.1978  0.1139  0.1985
26460W        W42534   7.982  14.919  14.789 -0.0833  0.1846  0.4507
26461W        W42535  16.140   4.909   2.734 -0.0059  0.2155  0.0068
26462W        W42536   0.263   0.807   1.882  0.0387 -0.2051 -0.1968
26463W        W42537  10.570  17.659  13.152  0.1195  0.0668  0.2207
26464W        W42538  14.853  15.613   3.804 -0.1712 -0.2183 -0.1723
26465W        W42539  15.704   7.166  12.499 -0.0795  0.1489 -0.2283
26466W        W42540   7.867   8.283   2.107  0.0574 -0.0237 -0.3241
26467W        W42541   5.219  15.013   4.157 -0.1833  0.1095  0.2454
26468W        W42542   8.122  15.373  11.375 -0.0847 -0.0838 -0.2078
26469W        W42543  15.178   0.626  13.144 -0.1288  0.1033  0.0628
26470W        W42544  16.672  16.586  13.574  0.0337 -0.1283  0.0878
26471W        W42545  11.688  17.621  16.408  0.2175 -0.0072  0.1146
26472W        W42546   6.677  15.635  15.995  0.0135  0.0280 -0.0528
26473W        W42547  17.591   8.325  11.802 -0.2124 -0.3402  0.0580
26474W        W42548   3.361  12.535  15.159  0.1860 -0.3002  0.1965
26475W        W42549   4.859  15.066   1.930  0.0809  0.2342 -0.0136
26476W        W42550   8.373  13.347   2.980  0.3285 -0.0799  0.2402
26477W        W42551   3.778   2.165  15.353  0.2567  0.2032 -0.0706
26478W        W42552   3.182   7.147   0.522  0.1721 -0.0531  0.0785
26479W        W42553  14.547   5.328   2.602 -0.0094  0.0888  0.1932
26480W        W42554   4.189  15.421  15.026  0.4466  0.1690  0.3073
26481W        W42555  15.893   3.720  14.158  0.2211  0.1046  0.0003
26482W        W42556  10.674   0.442   0.976 -0.1495 -0.2410  0.1077
26483W        W42557  16.428   0.283   0.047 -0.3042 -0.0810  0.1867
26484W        W42558  13.296  15.188  17.010 -0.1821  0.1434  0.0152
26485W        W42559  10.498  14.795  13.685 -0.2815 -0.0095  0.2856
26486W        W42560   8.764   5.458   1.892 -0.2900 -0.1982  0.1067
26487W        W42561   5.025   0.816   1.358 -0.3690  0.2233  0.0448
26488W        W42562   5.192  10.813  14.867  0.0303  0.1544 -0.1576
26489W        W42563   8.732  10.448  14.218 -0.0339  0.1007  0.1296
26490W        W42564   5.490   7.605   1.039  0.1273 -0.0396  0.0973
26491W        W42565  13.155   2.628   0.095  0.3764  0.3698  0.2527
26492W        W42566  17.649   6.765  13.360  0.1309  0.0842  0.0393
26493W        W42567  15.416  16.305   6.453 -0.1974 -0.3016  0.0267
26494W        W42568   5.724   3.162  16.134 -0.0339 -0.0070 -0.2756
26495W        W42569   5.716   1.574   1.808 -0.3840  0.1625 -0.2615
26496W        W42570  10.449  16.467  14.341 -0.2110 -0.0544  0.0798
26497W        W42571  12.506   3.928   5.098  0.2529  0.0815 -0.2337
26498W        W42572  12.175   1.367  16.722 -0.1686 -0.2301  0.2075
26499W        W42573   4.691  10.067   4.839  0.0695 -0.0746 -0.1182
26500W        W42574   7.037  10.465   4.730 -0.2731  0.0048 -0.2658
26501W        W42575   6.462  12.853  16.282 -0.0523 -0.0725 -0.0147
26502W        W42576  12.029  16.446  12.979  0.1881  0.2902  0.0346
26503W        W42577   0.807   7.029   1.741 -0.0103  0.1962  0.0101
26504W        W42578  15.932   3.992   6.667  0.0840 -0.0602  0.1403
26505W        W42579  11.699  14.839   5.589 -0.3272 -0.1462 -0.2198
26506W        W42580   8.831   8.728   4.060 -0.0282 -0.3576 -0.0569
26507W        W42581   1.287   0.623   4.290  0.0189  0.1362  0.0197
26508W        W42582   0.480  16.957   2.867 -0.2497  0.1751  0.0962
26509W        W42583  17.721   2.543  13.822  0.1790  0.0580 -0.0133
26510W        W42584   7.154   5.647   4.442  0.0726 -0.1237 -0.1015
26511W        W42585  15.715   8.700   1.172  0.0388  0.0494 -0.1855
26512W        W42586  10.124  15.570   4.136  0.0367 -0.0452  0.0167
26513W        W42587   7.219   5.109   4.571 -0.0598 -0.3081 -0.1586
26514W        W42588   1.001   5.469  12.021  0.1847 -0.0864 -0.0456
26515W        W42589   0.412   9.139  15.312  0.0721  0.1018 -0.3866
26516W        W42590  15.514  17.610  16.039  0.1450 -0.1621  0.2662
26517W        W42591   1.695  15.989  14.350  0.0055 -0.1007  0.1657
26518W        W42592  17.504  15.671   5.277  0.1542 -0.3292 -0.3039
26519W        W42593   6.789  14.289   6.001 -0.0978 -0.0048 -0.1052
26520W        W42594   6.623   1.021   0.976 -0.0310 -0.1987  0.0661
26521W        W42595  13.731   4.950   2.344  0.0577 -0.2803  0.2040
26522W        W42596   7.194  11.992   3.906  0.0645  0.3297 -0.1463
26523W        W42597  13.689  15.437   2.889 -0.1108  0.1875  0.0323
26524W        W42598  11.833  14.487   1.280  0.2773  0.1346 -0.1749
26525W        W42599   5.163   6.471   0.659 -0.2584 -0.0264  0.1145
26526W        W42600  13.731   6.470  16.639  0.1176  0.0481  0.1593
26527W        W42601   4.484   0.842   0.727  0.0858 -0.2265  0.1475
26528W        W42602  12.307   6.599   0.194 -0.2453  0.1869  0.2049
26529W        W42603   7.972   9.561  16.384 -0.2971 -0.0990 -0.1129
26530W        W42604  13.834   2.977  14.417  0.3744 -0.0154  0.1221
26531W        W42605  12.764  13.474  16.238  0.1938 -0.0888  0.1147
26532W        W42606  13.594   5.469  16.444 -0.0423  0.0648 -0.1013
26533W        W42607  11.854   6.504  17.122  0.0298 -0.2822 -0.0085
26534W        W42608   2.501   7.716  12.255 -0.0361  0.2681 -0.0081
26535W        W42609  12.207  17.424   5.742  0.0017 -0.0053 -0.0259
26536W        W42610   3.142  12.204  13.324  0.2461 -0.0626 -0.1331
26537W        W42611   7.490   1.223   4.452 -0.1927 -0.3051  0.4872
26538W        W42612   9.039   6.453   3.920  0.1635  0.0176 -0.2522
26539W        W42613   7.681   5.183  12.738 -0.0091 -0.3441 -0.1864
26540W        W42614   0.911   2.712  12.216  0.0216 -0.0265  0.0500
26541W        W42615  14.997  16.471   2.996 -0.2450  0.0056 -0.0560
26542W        W42616   6.147  15.948  12.161  0.1028 -0.1623  0.2079
26543W        W42617   2.798  15.079  13.574  0.1673 -0.0001 -0.0669
26544W        W42618   3.175   2.997   0.933 -0.3272 -0.2384  0.4067
26545W        W42619   6.938  16.540   3.411 -0.0071 -0.3633 -0.0459
26546W        W42620  15.643   4.786   0.579  0.1105  0.1542 -0.1293
26547W        W42621   7.321   7.678   0.882 -0.2350  0.0935 -0.0162
26548W        W42622  10.839  13.256   0.268  0.0027  0.1861 -0.0516
26549W        W42623  14.451  14.557   5.991  0.3307  0.1823 -0.3399
26550W        W42624  12.715   7.638   5.857 -0.0541 -0.0479 -0.1949
26551W        W42625  16.278  10.284  15.712  0.1477  0.4049  0.0545
26552W        W42626  12.261   8.438   2.532  0.2339 -0.2006  0.3488
26553W        W42627  16.541  13.622   1.638  0.0772 -0.0345 -0.1428
26554W        W42628  16.382  11.167   3.187 -0.4549 -0.0416  0.0913
26555W        W42629   8.076   0.755   5.135 -0.0638 -0.0871  0.1132
26556W        W42630  14.035   3.517   4.338  0.0309  0.0810 -0.1671
26557W        W42631   7.349   8.516   2.114  0.1502  0.0342 -0.2045
26558W        W42632   3.017   3.272   6.329 -0.2627 -0.2339  0.2134
26559W        W42633  10.791   0.831   4.386  0.0053  0.1805 -0.1047
26560W        W42634  12.961   9.692  15.188  0.0528  0.3761 -0.0573
26561W        W42635   7.477   7.929  12.657 -0.0497 -0.3532 -0.0191
26562W        W42636  17.206   4.433   2.077 -0.3450  0.0181 -0.0866
26563W        W42637   2.172   3.728   1.085  0.2126 -0.0656 -0.2783
26564W        W42638   9.268   0.797  13.842  0.0426  0.0110  0.0741
26565W        W42639   3.604   4.692   2.071 -0.1335 -0.1273 -0.3643
26566W        W42640  13.889  14.516   5.202  0.4064  0.0124 -0.0025
26567W        W42641   6.401   6.163   2.185  0.2047 -0.2808  0.1465
26568W        W42642   0.752   4.146   4.500 -0.2018 -0.1198  0.1350
26569W        W42643   6.753  17.232  15.273  0.1834 -0.2017 -0.0552
26570W        W42644  15.351   8.321   1.331  0.1850  0.2753 -0.0369
26571W        W42645  17.465   1.666  13.501  0.1337  0.0290  0.0711
26572W        W42646   7.714  17.112  15.483 -0.1083  0.0423  0.2796
26573W        W42647   9.342   8.493  16.884 -0.2553  0.0359  0.2418
26574W        W42648  15.233   0.083   0.813  0.3275 -0.2565 -0.1128
26575W        W42649   7.241   5.611  15.644 -0.0014  0.2489 -0.2181
26576W        W42650   3.980  16.367  13.441 -0.0099  0.0168  0.0521
26577W        W42651  17.061  10.246   5.202 -0.0247 -0.2292 -0.0433
26578W        W42652   1.094   5.474  13.714 -0.2628  0.1422 -0.0623
26579W        W42653  12.671  16.567  14.163 -0.0219  0.1848  0.1326
26580W        W42654  17.620  17.323  12.785  0.0863  0.0107 -0.0325
26581W        W42655   6.958  11.321   1.124 -0.1897  0.0240 -0.0277
26582W        W42656   0.227  13.640  13.532 -0.3074  0.2693 -0.2250
26583W        W42657   9.106   7.950   2.428 -0.0535  0.1521  0.1390
26584W        W42658   7.635   5.908  13.104 -0.2839 -0.1437 -0.1801
26585W        W42659   0.583  16.578   3.397  0.0475  0.1852 -0.0234
26586W        W42660  12.177  15.950   1.426  0.0433 -0.0011 -0.1444
26587W        W42661  10.126   0.112   5.436 -0.1623  0.1458  0.3247
26588W        W42662  16.170  15.775   3.330  0.2940  0.1841 -0.2112
26589W        W42663  10.372  13.793  14.372  0.1230 -0.1984  0.0043
26590W        W42664   6.661  11.935  15.373  0.1916  0.0435  0.0497
26591W        W42665  15.744   4.305  15.717 -0.3045 -0.3153  0.1450
26592W        W42666   5.638   3.783  13.612  0.3075  0.2034  0.3509
26593W        W42667  14.958  15.784  15.633 -0.1917  0.1661  0.2855
26594W        W42668  13.265  10.073  12.926 -0.0488  0.1032  0.0667
26595W        W42669   6.841  10.746   5.439  0.0956 -0.2177  0.1800
26596W        W42670  11.794   8.231  13.541 -0.0741  0.0794  0.2841
26597W        W42671  11.201   7.214   3.870  0.2588  0.0989  0.1453
26598W        W42672   2.252  12.461   0.264 -0.2014  0.0792 -0.3312
26599W        W42673   1.912  10.923   4.335  0.1520  0.0642  0.0935
26600W        W42674  12.831  13.617   3.395  0.1669 -0.2748 -0.2822
26601W        W42675   0.582   3.096  11.993 -0.1555 -0.0642 -0.2283
26602W        W42676   5.055  15.459  13.007  0.0228  0.0102 -0.3337
26603W        W42677   4.361   9.973  16.201 -0.4254  0.3279 -0.1960
26604W        W42678   8.138   0.301   1.291 -0.1697 -0.2408  0.0873
26605W        W42679   7.030  12.486   2.168 -0.0119  0.1198  0.0083
26606W        W42680   8.464  13.340   2.520  0.0536 -0.2403 -0.1095
26607W        W42681  10.468  15.990   0.471  0.3643  0.2958  0.3834
26608W        W42682   7.343   2.214   2.901 -0.2406  0.1622 -0.0381
26609W        W42683  15.074  11.333  11.840 -0.0801 -0.1428 -0.2131
26610W        W42684   1.623  12.150  13.149  0.2539 -0.0371 -0.0288
26611W        W42685  12.314  15.488   5.409  0.1073 -0.0353 -0.1055
26612W        W42686   0.785  11.249   5.450  0.0861  0.0916 -0.1226
26613W        W42687  15.856   2.121   3.583 -0.0978 -0.0506 -0.0382
26614W        W42688   4.310   8.669  16.400  0.1839  0.2701  0.0482
26615W        W42689  11.454   9.717   1.169 -0.1281 -0.1192  0.1845
26616W        W42690   3.940  16.158   4.689  0.0848  0.1337  0.2104
26617W        W42691  15.433  14.971  13.857 -0.3660 -0.1397  0.0527
26618W        W42692   7.693  11.384  14.900  0.2971  0.0417  0.2282
26619W        W42693  10.326  16.430   0.190 -0.1226  0.1885  0.0079
26620W        W42694  15.090  10.949  14.811 -0.0700  0.0704 -0.1323
26621W        W42695  16.813   3.497   5.636  0.0819 -0.1264  0.1191
26622W        W42696   2.254   7.812  12.737 -0.0986  0.0270  0.0789
26623W        W42697  10.634  12.283   5.078 -0.0863  0.2563  0.3230
26624W        W42698   3.946   5.974   0.298 -0.3048 -0.2383 -0.2119
26625W        W42699   3.338  15.493   1.455  0.2554 -0.0868  0.3034
26626W        W42700   5.580  14.477  14.783  0.3554 -0.0252  0.0526
26627W        W42701  16.357   0.591  15.804 -0.0095  0.1702 -0.0446
26628W        W42702   8.296   7.697   4.606  0.0708  0.0344  0.1874
26629W        W42703   5.674  13.275  16.378  0.0755 -0.1239  0.0406
26630W        W42704   5.446  15.871   4.620 -0.0231  0.1602  0.0613
26631W        W42705  12.434   1.279  15.333  0.3350 -0.0884  0.0829
26632W        W42706  14.527   3.550   5.595  0.2205  0.1244  0.0998
26633W        W42707   8.529  14.704  16.642 -0.1559  0.1027 -0.1355
26634W        W42708   6.882   3.174   2.719 -0.0640 -0.1142 -0.1932
26635W        W42709  17.572   5.335   4.158 -0.1369 -0.0458 -0.2496
26636W        W42710  17.587   6.300   5.619  0.1680 -0.3443 -0.3121
26637W        W42711   8.970  12.303   4.774 -0.1888 -0.1507 -0.0970
26638W        W42712  14.856   3.143  11.694 -0.1100  0.0859  0.1114
26639W        W42713   6.130   8.832   4.845  0.2021 -0.0957 -0.3050
26640W        W42714   9.428  14.015   5.785  0.0300 -0.3073 -0.0899
26641W        W42715   2.894   7.479  11.969  0.0063 -0.4605  0.0452
26642W        W42716   3.571  12.111   4.123  0.0018  0.0616  0.1648
26643W        W42717   0.997   4.080   1.613 -0.0784 -0.0199 -0.3569
26644W        W42718   2.708   6.575   4.296 -0.0579  0.2011  0.0085
26645W        W42719   2.265   9.942  12.656  0.2123  0.0449  0.0261
26646W        W42720  14.965   7.293   2.022  0.1612  0.2599 -0.0062
26647W        W42721   8.044   3.731   1.916 -0.1459 -0.2676 -0.0337
26648W        W42722  12.626  10.059   2.650  0.1837 -0.2355 -0.2942
26649W        W42723   8.145   9.632   2.831  0.0717  0.0537 -0.1017
26650W        W42724  12.617   4.643  12.921  0.0854 -0.0871  0.0626
26651W        W42725  11.080   5.205  13.750  0.0736  0.1320  0.1974
26652W        W42726  13.601  15.180   4.750  0.0946  0.1229 -0.0149
26653W        W42727   2.754   2.986  12.516 -0.2738  0.0078 -0.1538
26654W        W42728  12.190   8.109   4.155  0.2264 -0.2942 -0.2583
26655W        W42729  17.266  13.089   5.267  0.2595 -0.0138  0.0648
26656W        W42730   1.768  11.673   0.909  0.0576  0.1590  0.0270
26657W        W42731  10.338   6.708   5.305  0.0956  0.3483 -0.0997
26658W        W42732   8.014  10.340  15.560 -0.1749  0.0849 -0.1432
26659W        W42733   1.961   2.671   4.221  0.1261  0.2522 -0.0744
26660W        W42734   2.042  16.085  15.929 -0.1092  0.0968 -0.3342
26661W        W42735   0.975   4.451  12.092  0.3172 -0.1855  0.0175
26662W        W42736   4.815   4.039   4.226 -0.0587 -0.0862  0.0308
26663W        W42737   2.023   8.711  16.333 -0.0277 -0.2064  0.2423
26664W        W42738   6.597   1.798   4.103 -0.2524  0.0183  0.1853
26665W        W42739   3.663   2.765   1.731 -0.2038 -0.0859 -0.3618
26666W        W42740  16.467   1.769   5.096 -0.1172 -0.3520 -0.0718
26667W        W42741  14.190  16.064   6.001 -0.3196  0.0950 -0.1009
26668W        W42742   4.952   7.885   4.482  0.2360  0.1300  0.2271
26669W        W42743   8.071   8.139   3.801  0.1033 -0.1625 -0.1172
26670W        W42744   2.416   7.879   3.199  0.3016  0.0394 -0.3263
26671W        W42745   9.440  16.058  14.549 -0.0226 -0.2890 -0.1081
26672W        W42746  15.999   0.360  12.808  0.0931  0.2482  0.0685
26673W        W42747   5.038  13.901   0.738  0.1313  0.0334  0.0876
26674W        W42748   4.307   0.674  13.351  0.4270  0.1002  0.0521
26675W        W42749   3.389   4.234  13.069 -0.0100  0.0908  0.0541
26676W        W42750  10.709  14.131   0.344  0.3282 -0.3081  0.0358
26677W        W42751  17.105   2.740   0.780  0.3328 -0.2752 -0.0063
26678W        W42752   6.476   1.284   2.675  0.1592 -0.3044  0.1774
26679W        W42753   6.714   3.273   0.551  0.2178 -0.2386  0.1308
26680W        W42754   9.664  17.616  14.069 -0.0510 -0.0703 -0.1117
26681W        W42755   4.345  17.123   0.960 -0.1968 -0.0639 -0.3191
26682W        W42756   0.715   1.557  16.918  0.1142  0.1020  0.1482
26683W        W42757   0.957   1.360  16.464  0.0543 -0.1128  0.0747
26684W        W42758   6.603   0.840  13.263 -0.0440  0.1113 -0.3185
26685W        W42759   6.874   8.851   0.871 -0.2181  0.2351  0.1723
26686W        W42760   4.774   1.066  13.111  0.3873 -0.1774  0.2380
26687W        W42761   2.592   4.045   1.306 -0.1594 -0.1730 -0.3866
26688W        W42762  14.698  13.984   2.228 -0.1840 -0.0323 -0.2991
26689W        W42763  12.860   7.061  16.400  0.2668 -0.3192  0.1300
26690W        W42764   6.293  11.559   0.588  0.0223 -0.0812  0.1145
26691W        W42765   5.398   4.683   1.618  0.1809 -0.0572 -0.3560
26692W        W42766  14.444   7.084   0.315  0.2030 -0.1350  0.0606
26693W        W42767  14.404   8.464  15.255  0.1774  0.0096 -0.0268
26694W        W42768   8.136   1.483   0.596  0.3189  0.1638  0.0196
26695W        W42769  15.801  12.414   4.377  0.1863  0.2334  0.0313
26696W        W42770   8.377  12.987   4.845 -0.0125 -0.0960 -0.1109
26697W        W42771   0.464   7.797   4.544 -0.0385 -0.2012  0.0156
26698W        W42772   5.864   2.441  13.972 -0.0445 -0.2050  0.0818
26699W        W42773  17.631   8.195   5.708  0.0840 -0.1761 -0.0537
26700W        W42774  13.094   7.135  13.282  0.2938 -0.2471 -0.0707
26701W        W42775  15.363  11.193   2.594 -0.0491  0.1722  0.2744
26702W        W42776   3.960  14.648  12.403 -0.1283 -0.0814 -0.2471
26703W        W42777  14.941  13.011   4.594  0.1565 -0.2923 -0.2646
26704W        W42778   6.974   6.526   4.102 -0.0469 -0.1064 -0.0123
26705W        W42779   5.671   0.714  12.259  0.2563  0.1109  0.1188
26706W        W42780  11.894   4.979  12.962 -0.0678  0.1870 -0.0813
26707W        W42781  11.435   4.351   2.047  0.1949 -0.0315  0.3450
26708W        W42782   6.991  11.062   3.539  0.0493  0.2467 -0.0792
26709W        W42783   6.692  12.758   0.084 -0.2276  0.0441 -0.1842
26710W        W42784   9.732   9.872   4.647  0.1140 -0.0463  0.0322
26711W        W42785  17.157  15.326  13.838 -0.1532 -0.0075 -0.2809
26712W        W42786   5.753   2.045   1.648  0.0984  0.0710  0.1596
26713W        W42787   2.920  13.482   2.258  0.1969 -0.0170  0.1565
26714W        W42788   8.933  10.826   6.078  0.1244 -0.1270  0.4498
26715W        W42789  11.055   3.682  15.876 -0.1031 -0.3138 -0.0277
26716W        W42790   9.662   1.659  13.043 -0.2101  0.1021 -0.1597
26717W        W42791   4.583   1.798   2.195  0.2110 -0.2256 -0.2014
26718W        W42792   5.728  12.480  16.763 -0.0747  0.0807 -0.2652
26719W        W42793   8.491  10.170   4.769 -0.1675  0.1236 -0.0096
26720W        W42794  12.000   8.100  15.081 -0.0386  0.0476 -0.0674
26721W        W42795  15.024   2.421   1.244 -0.1926 -0.1451  0.2237
26722W        W42796  14.319  12.866  13.193 -0.0312  0.1370 -0.2604
26723W        W42797   5.789   3.780  11.686 -0.2866 -0.0803  0.1227
26724W        W42798  14.697   2.811  14.583  0.3491  0.0228 -0.2475
26725W        W42799  11.315  11.302  12.321 -0.1317  0.1720 -0.0658
26726W        W42800  13.601  12.439  17.159 -0.0813 -0.2561 -0.2770
26727W        W42801   5.461   8.022   4.673 -0.0178 -0.0242  0.1067
26728W        W42802  14.666   3.408  15.943 -0.0293  0.1632  0.0213
26729W        W42803   6.363   6.317  12.181  0.1488 -0.2414  0.3973
26730W        W42804  12.815   6.978  15.922  0.0385  0.3239 -0.2255
26731W        W42805   7.725  16.740  12.594 -0.0575  0.1428  0.0595
26732W        W42806  14.600   6.349   4.692 -0.1680 -0.1605  0.1108
26733W        W42807   9.857   6.501   1.669 -0.1387  0.0589 -0.0123
26734W        W42808  17.288   0.189   5.718 -0.1900 -0.1939  0.1684
26735W        W42809  16.941   8.140  14.377 -0.0189 -0.0733  0.1955
26736W        W42810   2.571   6.703   1.448  0.1210 -0.0409  0.0917
26737W        W42811   9.776   0.315  12.308 -0.0425 -0.1357  0.0391
26738W        W42812   0.564  12.099  17.137  0.1983  0.0923  0.1459
26739W        W42813  12.034   7.758  14.658  0.0536  0.1467 -0.1711
26740W        W42814   1.804  12.618   4.100 -0.2865 -0.0514 -0.0435
26741W        W42815  12.988   4.822  16.873  0.2818 -0.3428 -0.1157
26742W        W42816   3.041   9.642  15.586 -0.1328 -0.2242  0.0402
26743W        W42817  16.135   8.433   0.878 -0.1553 -0.0125  0.1045
26744W        W42818  17.309  15.657   2.673  0.2603  0.2235  0.2159
26745W        W42819   2.066   8.482  14.515  0.2595 -0.2592  0.2573
26746W        W42820   0.586   7.264   4.138  0.1115  0.0234 -0.1900
26747W        W42821   8.955   2.047  14.292 -0.4797 -0.1986 -0.0251
26748W        W42822  13.941   3.428   3.573 -0.1510  0.2643  0.3075
26749W        W42823  11.334   9.335   5.010  0.2575  0.0767 -0.0188
26750W        W42824  11.157   1.457  12.783  0.0874  0.0928  0.1713
26751W        W42825  17.497  16.158   6.206  0.1046 -0.0447  0.0634
26752W        W42826   9.011  14.542   2.376 -0.3319  0.1688 -0.0162
26753W        W42827  10.578   8.533   2.006 -0.1348 -0.1600  0.2170
26754W        W42828  15.247   4.510   0.780 -0.1451 -0.0218 -0.0073
26755W        W42829   9.455   8.591  14.385 -0.2271  0.2164 -0.0930
26756W        W42830  13.443  15.616  15.944 -0.6448 -0.1974  0.2107
26757W        W42831   2.347  15.668  12.631  0.1279  0.0726  0.0541
26758W        W42832  14.060  10.734   3.021 -0.1350 -0.1725 -0.0818
26759W        W42833   2.293  11.656  14.905 -0.1784  0.1188  0.2550
26760W        W42834  12.529  12.188   4.965 -0.1547 -0.4532  0.0617
26761W        W42835  13.252   0.603  15.614  0.0553 -0.0271  0.0148
26762W        W42836   8.524   4.174  13.263  0.0862 -0.0311 -0.0450
26763W        W42837   5.199  16.245   5.363  0.2215  0.1993 -0.1485
26764W        W42838  11.168   9.216   0.282 -0.0562 -0.3558 -0.0290
26765W        W42839  17.278  17.441   1.471 -0.1541 -0.0618  0.4146
26766W        W42840   9.807  16.911  13.239  0.0854 -0.2755 -0.0666
26767W        W42841  10.213   6.073   5.492 -0.1750  0.2212 -0.1427
26768W        W42842  13.208  12.367  14.600 -0.1598  0.2597  0.2152
26769W        W42843   9.687   7.758  11.846 -0.4515  0.3436 -0.2990
26770W        W42844  15.786   3.726   4.605  0.0507 -0.0142 -0.1764
26771W        W42845   7.872  13.224   3.201 -0.3213 -0.0820 -0.0395
26772W        W42846  12.969  15.754  15.706 -0.0942  0.3034 -0.1073
26773W        W42847   1.559   1.253  13.517 -0.3425  0.1523 -0.0316
26774W        W42848   5.084  13.919   3.758  0.1529  0.1198 -0.0496
26775W        W42849   6.012   4.887   4.066  0.0005 -0.2468 -0.2009
26776W        W42850   5.235  15.226   2.224  0.3736 -0.1127 -0.1295
26777W        W42851   3.018   5.969  13.087 -0.0839 -0.0950  0.1568
26778W        W42852  17.260   1.702   5.817 -0.3363 -0.1236 -0.2922
26779W        W42853  15.467  12.869  13.415  0.0834 -0.0212  0.1071
26780W        W42854  12.018   8.707  15.285 -0.1491 -0.2074 -0.0379
26781W        W42855  10.794   5.222   6.092  0.2778  0.2169 -0.1378
26782W        W42856   7.862  15.784   5.088 -0.0264 -0.0243  0.1952
26783W        W42857  10.380  11.584  14.097 -0.1818 -0.0101  0.0515
26784W        W42858   4.541   5.472   4.306 -0.2293 -0.0458 -0.4355
26785W        W42859  12.365  12.275   4.534 -0.0373  0.3031  0.1361
26786W        W42860  17.265   6.630   3.422 -0.3326  0.1344  0.0687
26787W        W42861   3.034   9.881   2.300  0.0310  0.1278 -0.0365
26788W        W42862   9.628   0.311   2.966 -0.3531  0.0433  0.1990
26789W        W42863   5.009   4.707  13.640 -0.2739  0.0212  0.0595
26790W        W42864   2.224   2.424  17.144  0.2306 -0.0919 -0.0541
26791W        W42865   3.050   0.475   1.763 -0.0319  0.1093  0.0137
26792W        W42866  16.276   0.342  13.277  0.2746 -0.2710  0.3568
26793W        W42867  11.950   7.805   2.185 -0.0713  0.0687 -0.0246
26794W        W42868   4.784  16.436   4.476  0.1586 -0.0051 -0.0344
26795W        W42869   9.768   0.475   1.705  0.0761  0.1820  0.4520
26796W        W42870   8.216  15.241   0.599 -0.2414 -0.0009  0.1499
26797W        W42871   2.066  13.518  13.448  0.0381  0.0954  0.2246
26798W        W42872   6.272   3.878   1.714  0.1145 -0.2222  0.2723
26799W        W42873   9.442  13.368  14.727  0.1876  0.1322  0.4134
26800W        W42874   3.344  13.320  14.948 -0.3628 -0.0562 -0.1639
26801W        W42875  13.625   3.162  16.295  0.0463  0.1279  0.1527
26802W        W42876  16.200  12.797   3.417  0.3594  0.1578  0.2285
26803W        W42877   1.589  10.854   0.509  0.0472 -0.2281  0.1200
26804W        W42878  11.652   3.967  16.964 -0.2165  0.2282  0.1319
26805W        W42879  11.946  14.964   0.715 -0.1482  0.1048 -0.2302
26806W        W42880  14.921  12.598  16.185 -0.0518 -0.0956 -0.1277
26807W        W42881   0.588   8.731  14.352 -0.3749 -0.2441  0.0784
26808W        W42882  15.230   6.693  16.963  0.2565 -0.1323  0.0150
26809W        W42883   4.712  15.386   6.199 -0.1557  0.2384  0.2722
26810W        W42884  15.737   3.432  15.055  0.2148  0.1818 -0.0566
26811W        W42885  16.989   3.316  11.833  0.0946 -0.0362  0.0617
26812W        W42886  11.956   9.015  12.280  0.0077 -0.2217  0.1650
26813W        W42887  10.546  12.870   3.711  0.0816 -0.0574  0.2964
26814W        W42888  14.638  14.365   0.682 -0.2039 -0.1914  0.2160
26815W        W42889  12.316  17.487  16.193  0.0440 -0.2055  0.4153
26816W        W42890   2.615  15.815  13.096 -0.0375  0.0165 -0.2359
26817W        W42891   9.142   9.151  16.684  0.2040  0.0889  0.0659
26818W        W42892  14.574   9.337  16.568  0.2550  0.0525  0.2158
26819W        W42893   1.801   0.311   2.032  0.0449 -0.0700  0.0775
26820W        W42894  14.922  10.508   2.805 -0.2282  0.0723  0.1935
26821W        W42895  10.801  10.274   1.827  0.0423 -0.2354  0.0402
26822W        W42896   2.583   3.899  14.238  0.3065  0.2625  0.0835
26823W        W42897  11.427  17.713   2.373 -0.2983  0.1150 -0.4178
26824W        W42898  10.255   1.196   5.576 -0.4261 -0.0143 -0.1408
26825W        W42899   2.094   5.939   3.841 -0.0619  0.2203  0.0294
26826W        W42900   5.817  16.774  12.986  0.1399  0.1986 -0.1626
26827W        W42901   7.138  16.113  11.796  0.0855 -0.1929 -0.3445
26828W        W42902  16.402  13.615   1.135  0.2992 -0.4498 -0.0252
26829W        W42903  15.682   0.519  13.127  0.2372  0.2191 -0.2237
26830W        W42904  15.600   5.608   2.906 -0.0533 -0.0312 -0.3058
26831W        W42905   0.934   7.470  14.114  0.2474 -0.0751  0.3225
26832W        W42906   5.525  10.745   4.051 -0.0001  0.0288 -0.0342
26833W        W42907   2.048   1.836  15.961 -0.1235 -0.0861 -0.0742
26834W        W42908  14.312   8.505   2.053 -0.0181  0.0357 -0.0944
26835W        W42909   5.657   8.184  15.913 -0.1583  0.0493 -0.1876
26836W        W42910  14.718  10.864   6.024 -0.1220  0.0634  0.3183
26837W        W42911  15.708   8.999   5.248 -0.0091  0.0314 -0.0454
26838W        W42912   9.403   6.439   1.545  0.4492 -0.1074 -0.0892
26839W        W42913   7.899  10.462   2.410  0.0965 -0.0151  0.1087
26840W        W42914   9.004   2.748  12.177  0.1757 -0.1446 -0.0418
26841W        W42915  10.628  13.357   6.190 -0.3868  0.1964  0.1202
26842W        W42916  11.081  16.269  11.422  0.0286 -0.0787  0.0470
26843W        W42917   8.004  17.571   0.877 -0.1837  0.0820  0.1759
26844W        W42918   7.209  10.400   4.226 -0.0277 -0.1272  0.0592
26845W        W42919  11.898  14.374   4.378 -0.0124 -0.1731  0.1294
26846W        W42920   0.967   7.835  16.336  0.0246 -0.2834  0.4220
26847W        W42921   5.354   8.426  15.509  0.4335 -0.3116  0.0838
26848W        W42922   6.323   0.358   4.435  0.1025 -0.1175  0.0081
26849W        W42923  13.102  12.626  15.981  0.0267  0.1622  0.0884
26850W        W42924   1.962   6.705   4.721  0.0330 -0.1550  0.0232
26851W        W42925   6.398  10.049   5.669 -0.0494 -0.0090 -0.2807
26852W        W42926  16.346   1.472   6.129 -0.0036  0.3999  0.2991
26853W        W42927  13.796  12.440   4.947  0.2595  0.0014 -0.0106
26854W        W42928   8.178   4.717  16.075 -0.0346 -0.3343 -0.2927
26855W        W42929   7.625  10.325  13.901 -0.0462 -0.1512 -0.3956
26856W        W42930   5.523  11.866   0.309 -0.0693  0.0623  0.0107
26857W        W42931   2.558   1.959  16.929 -0.2711  0.0570 -0.0337
26858W        W42932  13.911   2.101  14.209 -0.0169  0.2333  0.3589
26859W        W42933   3.251  15.936  12.510 -0.4371  0.0659  0.1714
26860W        W42934  10.474   9.520   5.027  0.0167  0.1354 -0.1997
26861W        W42935  13.981   6.391  13.744  0.1422  0.1265 -0.0517
26862W        W42936  12.219   2.887  16.139  0.1089 -0.0980 -0.1714
26863W        W42937  14.664   1.977  15.312 -0.0256 -0.1761  0.2329
26864W        W42938  14.932   3.778  15.715  0.0775  0.3033 -0.0480
26865W        W42939   9.239  11.095   3.843 -0.0371  0.0924  0.0166
26866W        W42940  10.332  15.007   1.451  0.3923 -0.1073 -0.2820
26867W        W42941  15.798  15.793  11.696  0.0985  0.2928  0.0111
26868W        W42942   8.809  11.055   4.587  0.1528 -0.1370  0.1332
26869W        W42943   1.351  12.049   0.623 -0.1240  0.3197 -0.0887
26870W        W42944  13.692  12.490  14.795 -0.0984  0.1600 -0.0932
26871W        W42945  16.935   9.482  13.700  0.0765 -0.3487  0.1516
26872W        W42946  10.445  10.027   4.267  0.1734  0.2615  0.1269
26873W        W42947   8.660   4.675   1.592 -0.2271 -0.1426 -0.0679
26874W        W42948   9.674  12.370  14.667  0.2137 -0.0330  0.0345
26875W        W42949  14.263   7.177  13.924 -0.1169  0.0025 -0.0075
26876W        W42950  13.583  11.566   2.301 -0.1154  0.1370 -0.1180
26877W        W42951  15.326  16.852   4.618 -0.0365  0.0294 -0.1327
26878W        W42952  13.472  10.636   5.907  0.0992 -0.2663 -0.1148
26879W        W42953  16.611  13.202  16.694  0.3057 -0.1984  0.3269
26880W        W42954   1.265   2.066   0.715 -0.2042 -0.1207 -0.1840
26881W        W42955   4.306   7.071  15.262 -0.0483 -0.2758 -0.1646
26882W        W42956   1.206  12.538  12.741 -0.0806  0.2136  0.0814
26883W        W42957   9.946  15.919  12.955 -0.0809  0.0739  0.2148
26884W        W42958  13.337   4.819  15.133 -0.2226 -0.3105 -0.0169
26885W        W42959   1.969  11.011  16.035 -0.0785  0.1811 -0.3188
26886W        W42960  14.144  14.719   1.092 -0.3087  0.0604 -0.1903
26887W        W42961   6.453   0.866   5.933 -0.2556 -0.0548 -0.0556
26888W        W42962   6.383   5.200   4.995  0.0454  0.0904  0.1900
26889W        W42963  13.547  13.334  12.010 -0.0424  0.0622  0.0498
26890W        W42964   0.490  12.283  14.619  0.2028 -0.2642 -0.0736
26891W        W42965   5.600  12.747   4.527 -0.2290 -0.2830  0.1179
26892W        W42966  10.808   7.532   4.036 -0.3773 -0.1372 -0.1724
26893W        W42967   1.997  13.297   0.559  0.2678  0.0509 -0.0791
26894W        W42968   3.591   7.679  13.522  0.3068 -0.0262 -0.2289
26895W        W42969   0.245   5.591   4.397  0.2283  0.0403 -0.0399
26896W        W42970   4.626   8.239   6.648  0.0128 -0.0655 -0.0202
26897W        W42971   4.930  15.464   1.681  0.0790  0.0884 -0.0682
26898W        W42972  13.129   9.184  16.594  0.2640  0.2075 -0.0593
26899W        W42973   2.141  17.731  14.077  0.2355  0.0613 -0.0918
26900W        W42974   7.444  16.222   2.628  0.0312  0.0809  0.1286
26901W        W42975  10.658   4.614   3.091  0.0350 -0.3582 -0.4356
26902W        W42976  15.946  16.334   4.572  0.1616  0.1057  0.2346
26903W        W42977   4.260   9.089   0.860 -0.0510  0.0753 -0.2327
26904W        W42978  15.246   5.489  16.611 -0.0858  0.0664 -0.1866
26905W        W42979   4.962   0.133  13.203  0.0930  0.1047  0.3800
26906W        W42980   6.919   0.194  14.395 -0.1077  0.1610  0.0405
26907W        W42981   9.335   2.588  15.734 -0.0210 -0.3933  0.1030
26908W        W42982  11.793   0.357   3.950  0.0514  0.1871  0.0753
26909W        W42983   4.564  11.162   3.036  0.2894 -0.1221 -0.0400
26910W        W42984   3.709   6.007  12.007  0.0923 -0.3294  0.4142
26911W        W42985   1.795  10.864  13.901  0.1213 -0.3706  0.1238
26912W        W42986   3.834  14.734   3.489 -0.0285 -0.0619  0.3969
26913W        W42987   4.318   0.099  13.300 -0.1384 -0.0589 -0.2208
26914W        W42988  15.650   4.351  14.700  0.0525 -0.1541 -0.0496
26915W        W42989   7.168   0.400  17.042 -0.1730 -0.0019 -0.1181
26916W        W42990   3.854   8.933  16.454 -0.1688  0.0931 -0.2850
26917W        W42991  17.024  12.919  16.037 -0.0973 -0.1234 -0.0298
26918W        W42992   1.015   7.780  13.594  0.0110  0.3147  0.0561
26919W        W42993  12.417   6.189   4.667  0.2193 -0.1059 -0.1076
26920W        W42994   1.810   5.022  15.824  0.0730 -0.0839  0.0724
26921W        W42995   2.990   5.092  15.281 -0.3307 -0.0718  0.0588
26922W        W42996  16.702  13.800  15.628 -0.0689  0.0069  0.0997
26923W        W42997   2.553  11.445  16.487  0.0341  0.3231 -0.0358
26924W        W42998  17.103  11.681  13.352 -0.1826  0.0223  0.4098
26925W        W42999  15.743   1.150  10.738 -0.2360  0.0050  0.1762
26926W        W43000   0.641   6.084   3.282 -0.0637  0.0735  0.3363
26927W        W43001   7.841   6.473  13.739  0.0148 -0.1028 -0.0989
26928W        W43002   5.455  11.135  13.770  0.0427  0.0743 -0.0782
26929W        W43003   0.477  13.592   3.116 -0.1846  0.1859 -0.2483
26930W        W43004  10.414  16.423  16.840  0.2509 -0.1034 -0.1214
26931W        W43005  12.466   0.829   1.462 -0.1383 -0.0963  0.1274
26932W        W43006  17.224  12.339   0.918 -0.0258  0.3308  0.0812
26933W        W43007   9.365  14.100   3.689 -0.1935 -0.3116  0.1436
26934W        W43008  13.806  13.732  15.036 -0.1096 -0.0407 -0.1502
26935W        W43009  14.971   7.305   3.166 -0.1944  0.2259  0.1692
26936W        W43010   7.697   6.278   1.894  0.1421  0.0430  0.2931
26937W        W43011   0.831   2.378   3.359 -0.4654 -0.0756  0.0808
26938W        W43012  11.254   2.258   6.663 -0.0293 -0.0871 -0.0013
26939W        W43013   7.178   7.788   1.762  0.0130  0.0368 -0.0170
26940W        W43014  15.906   7.118  14.600 -0.3596  0.0920  0.1676
26941W        W43015   3.605   1.598   4.874  0.1878  0.0718 -0.0298
26942W        W43016   5.913   3.315  15.191 -0.0920 -0.0472 -0.0695
26943W        W43017   7.249   7.277  13.054  0.2708 -0.1688  0.0268
26944W        W43018   4.354   0.538   1.950 -0.0018  0.1192  0.0875
26945W        W43019  13.344   7.550   6.009  0.0586 -0.0957 -0.0069
26946W        W43020  12.246  12.817   4.386  0.1551 -0.1512 -0.0909
26947W        W43021  11.699  14.250   3.512  0.2178  0.1695  0.2266
26948W        W43022   1.127  11.282  12.974  0.3092 -0.1839 -0.4273
26949W        W43023  11.285  12.170  14.094 -0.0941  0.1597 -0.0699
26950W        W43024   8.700   4.173  16.470 -0.3953  0.0382 -0.1087
26951W        W43025  14.226   5.626   1.917  0.0958 -0.0621 -0.1728
26952W        W43026   3.735  16.185  11.837 -0.1934  0.2515  0.1587
26953W        W43027   6.400   8.999   0.659  0.2851 -0.1568  0.1993
26954W        W43028   8.808   3.739   3.428 -0.0989  0.0125 -0.0210
26955W        W43029   5.203   0.282   3.157 -0.0189  0.0062 -0.2831
26956W        W43030  16.790  10.967   1.687  0.2202 -0.1498  0.0285
26957W        W43031   5.356  16.208  11.803  0.1757  0.0952 -0.0240
26958W        W43032  10.632   0.218  12.656  0.0285  0.1919  0.3441
26959W        W43033   6.204  16.266  13.398  0.0218  0.1663  0.0690
26960W        W43034   4.155  14.444   4.842 -0.0634 -0.0618 -0.1566
26961W        W43035  11.032   7.991  13.941 -0.2724  0.0016 -0.2860
26962W        W43036  16.259  15.068   4.412  0.0614  0.0066  0.1391
26963W        W43037  12.736   1.530  16.545  0.1546 -0.1399 -0.1754
26964W        W43038   5.402  11.262   5.807 -0.0735  0.2491 -0.3042
26965W        W43039   7.381  16.439   1.743 -0.0436  0.0577  0.0377
26966W        W43040  15.998   8.114   2.960  0.3014  0.2889 -0.4078
26967W        W43041  16.944  17.569  15.756  0.2191 -0.0212 -0.1313
26968W        W43042  11.386   6.934   1.582  0.0626 -0.0130  0.1810
26969W        W43043  14.705   3.607  16.540  0.2907  0.1914  0.1885
26970W        W43044   7.501   7.924   4.315  0.0293  0.0937 -0.1452
26971W        W43045  11.238   5.210  14.227 -0.0866 -0.1380 -0.1166
26972W        W43046  16.964  17.413   2.888 -0.0804 -0.0437 -0.0627
26973W        W43047  12.918   0.951   0.669 -0.4167 -0.1253  0.0279
26974W        W43048   8.872  10.727   5.555 -0.3349  0.1675  0.0464
26975W        W43049   8.874   3.299   0.455  0.0633  0.1966 -0.0140
26976W        W43050  10.587   6.375   1.538 -0.0384 -0.0231  0.1134
26977W        W43051   6.645  14.447   4.221 -0.1054 -0.0398 -0.0779
26978W        W43052  14.696   3.579  13.164  0.2648 -0.3179 -0.2085
26979W        W43053   1.066   5.876  16.503 -0.4057  0.0498 -0.0168
26980W        W43054  17.107   1.336  16.999  0.2350 -0.4085  0.2191
26981W        W43055   3.912   6.782  12.421  0.3016 -0.1238 -0.2767
26982W        W43056  10.814   7.151  12.005 -0.0635 -0.1398  0.1573
26983W        W43057   1.156   6.132   3.940  0.0834  0.2745  0.0638
26984W        W43058   2.140   1.750   5.028  0.2813 -0.2384  0.3227
26985W        W43059   2.795   2.155   1.813  0.1144 -0.0484  0.1277
26986W        W43060   9.321  16.655   5.784  0.1441 -0.0299 -0.1232
26987W        W43061   3.198  16.975  13.430 -0.0025 -0.0429  0.2570
26988W        W43062   4.536   2.095  11.638  0.2296 -0.0373  0.3064
26989W        W43063  16.829   8.522   4.640 -0.1530 -0.0201  0.0685
26990W        W43064  10.491   1.700   3.714  0.1638 -0.2378 -0.3282
26991W        W43065   1.783   6.578  12.758 -0.1816 -0.0785 -0.1042
26992W        W43066  13.436   4.509  17.149  0.0588 -0.1258 -0.0020
26993W        W43067   8.883   7.378  12.084  0.2690 -0.0952 -0.0295
26994W        W43068   5.825  13.798   0.069  0.0884  0.0882  0.2188
26995W        W43069  12.371  13.995  16.303 -0.0021  0.1096 -0.1526
26996W        W43070   1.884  14.061  12.423 -0.0267  0.1009 -0.1200
26997W        W43071   6.520  13.084   3.497  0.3670 -0.4006  0.0788
26998W        W43072   8.007  16.838   2.576  0.0347  0.2627  0.0614
26999W        W43073   4.146   9.259   4.099 -0.1166 -0.1136  0.0361
27000W        W43074   1.822   0.690  14.081  0.0940  0.1103 -0.1044
27001W        W43075  14.621   1.856   1.688 -0.2282 -0.0627 -0.2552
27002W        W43076   8.760   6.222   4.877  0.4326  0.1568 -0.0086
27003W        W43077   2.645  17.380  15.697  0.0341  0.2256 -0.3715
27004W        W43078   3.903  17.328   4.722  0.0413 -0.4253  0.4253
27005W        W43079   1.359   2.384  13.917  0.2614  0.1453  0.1798
27006W        W43080   2.942   9.358  13.296 -0.0922 -0.2001  0.1038
27007W        W43081   0.012   5.295   3.712  0.1060  0.1388  0.2820
27008W        W43082   8.179  13.400   4.912  0.4230 -0.1837  0.1796
27009W        W43083   0.070  12.666  13.686  0.5436 -0.4009  0.1616
27010W        W43084   9.896   7.114  12.589 -0.0770 -0.1496  0.1331
27011W        W43085   1.819  14.968  14.586 -0.1203  0.0794  0.0581
27012W        W43086   1.568  14.063   0.316 -0.2296  0.1456  0.0379
27013W        W43087  16.697   6.399   3.438  0.1592  0.1364  0.0902
27014W        W43088   2.287   0.029   0.719 -0.1974  0.0208  0.2684
27015W        W43089  13.475   1.798  15.712  0.0816  0.0971  0.1336
27016W        W43090  11.210   3.306   0.347 -0.2300 -0.1345  0.1199
27017W        W43091  17.260  16.904   5.508 -0.2266 -0.3359 -0.0383
27018W        W43092   6.281  14.144   4.420  0.1454  0.0534  0.2801
27019W        W43093   3.050  11.168   2.966 -0.0350 -0.0578  0.3224
27020W        W43094   7.832   6.500   3.518  0.2023  0.0574 -0.2888
27021W        W43095  12.929   2.023   3.048 -0.0668  0.1862  0.1262
27022W        W43096  11.571  16.381   3.240  0.2383 -0.2082 -0.0373
27023W        W43097   1.424   7.711  16.082 -0.2971 -0.0795 -0.0227
27024W        W43098   6.581   0.312  15.171  0.0283  0.1019  0.0008
27025W        W43099   6.591   1.655  13.568 -0.1943  0.1934  0.1299
27026W        W43100  15.433  16.732   5.180  0.0549 -0.3400 -0.0994
27027W        W43101  11.274  13.421  17.156 -0.1783 -0.1869  0.1160
27028W        W43102   3.697  16.144   2.228 -0.2961  0.1206 -0.3787
27029W        W43103   9.071  12.464   5.910  0.1101 -0.1481 -0.1185
27030W        W43104   9.589  17.096  14.481  0.1175 -0.1215  0.0509
27031W        W43105   4.317  15.033   4.761  0.3102  0.1774 -0.2111
27032W        W43106  13.793   5.717  16.096 -0.1436 -0.0566 -0.1070
27033W        W43107  10.763   8.457   3.936  0.1368  0.0168  0.0955
27034W        W43108   2.367  12.283   4.389 -0.1136 -0.0098  0.1491
27035W        W43109   4.350   8.217  13.187 -0.3485  0.2032  0.0494
27036W        W43110   0.273   7.629  16.848  0.0939 -0.0791 -0.0055
27037W        W43111  15.443  10.583  15.368  0.0199 -0.2348  0.0585
27038W        W43112  10.927   5.498   3.173 -0.1519 -0.2029  0.1248
27039W        W43113  13.890   2.262  11.983 -0.0390 -0.1185  0.0720
27040W        W43114   8.922   4.102  15.099 -0.1880  0.1888  0.0422
27041W        W43115   6.121   0.936   2.534  0.0362  0.1611  0.0776
27042W        W43116   1.870   4.618  15.600 -0.0106  0.2456  0.1573
27043W        W43117   9.138   7.835  15.686 -0.3190 -0.0940 -0.0971
27044W        W43118   2.648   0.592  16.741  0.1789 -0.0562  0.0580
27045W        W43119   0.386  10.421  13.056 -0.1183 -0.1018 -0.1832
27046W        W43120   6.723   7.033  16.286  0.1310  0.1558  0.2192
27047W        W43121  11.909  14.464  15.924  0.2346 -0.0316  0.0606
27048W        W43122   3.745   4.855   2.890 -0.0211  0.1557 -0.0092
27049W        W43123  10.910  15.393  13.053 -0.0808  0.0686 -0.0470
27050W        W43124  14.342   3.652   2.557  0.0512  0.0425  0.0850
27051W        W43125  13.052   6.485   1.232 -0.2848  0.0611  0.3577
27052W        W43126   0.688   0.326   1.246  0.1036  0.0326  0.0967
27053W        W43127  12.990   8.993  15.257 -0.1028 -0.0597  0.1559
27054W        W43128  17.115   0.097  15.291 -0.1691  0.0826 -0.1893
27055W        W43129  12.984   9.145  11.974  0.0526 -0.0825 -0.0682
27056W        W43130  16.901  10.084   0.206  0.2705 -0.0292  0.0267
27057W        W43131   3.783   6.852   2.383  0.0644  0.0769  0.1283
27058W        W43132  15.082  15.255  16.384 -0.1525  0.2325  0.1677
27059W        W43133  12.380   6.402  14.258 -0.1572 -0.0431  0.0653
27060W        W43134   6.154   6.978   4.590 -0.0757 -0.0561  0.0499
27061W        W43135   6.497   0.490  14.633 -0.3013 -0.0434  0.0963
27062W        W43136   2.337   3.475  12.996  0.1610  0.2889  0.0014
27063W        W43137   3.873   5.818   3.875 -0.0269 -0.0886  0.2214
27064W        W43138   6.443   8.786   1.490 -0.1894  0.1754 -0.0547
27065W        W43139   8.396  10.876  13.884 -0.0294  0.1466 -0.0361
27066W        W43140  16.690   4.789   1.452 -0.1197 -0.3104  0.1287
27067W        W43141   3.928   1.380  13.387 -0.2777 -0.2149 -0.0443
27068W        W43142  11.577  10.129   2.682  0.1403  0.0015 -0.1338
27069W        W43143   5.770  10.758  12.412 -0.1809 -0.0160 -0.0625
27070W        W43144   1.228  11.809  13.274 -0.0682  0.1786  0.0681
27071W        W43145  15.403   5.192   5.459  0.1374 -0.3830  0.0899
27072W        W43146  10.657  10.822   4.119  0.0748  0.1718  0.2225
27073W        W43147   3.393  14.616  12.799  0.3727 -0.1392 -0.2138
27074W        W43148   6.641  14.700   1.374 -0.1004 -0.2301 -0.2097
27075W        W43149  16.152  12.299   3.767  0.0170  0.0257  0.1448
27076W        W43150  15.076  12.492   0.933  0.2043  0.0072  0.0088
27077W        W43151  16.936   0.980  13.510 -0.3212  0.0240 -0.0013
27078W        W43152   9.790  11.252   4.695  0.1843 -0.0725  0.1520
27079W        W43153  12.714   0.148   4.217  0.0090 -0.0255 -0.0865
27080W        W43154  13.307   8.271  14.973 -0.1196  0.2279 -0.1295
27081W        W43155   9.365  16.941   1.702  0.3337 -0.1876  0.2026
27082W        W43156  11.352   6.788   3.518  0.0894 -0.1681 -0.2377
27083W        W43157   8.219  10.157  15.068 -0.1700  0.0553 -0.1013
27084W        W43158  14.101   9.794   1.449 -0.4951 -0.0014 -0.0237
27085W        W43159  12.293   1.608  13.113  0.1666  0.0681  0.1116
27086W        W43160   8.361  15.351  15.268  0.0354 -0.0046 -0.0266
27087W        W43161   8.808   7.746  16.661  0.0378  0.4144 -0.1177
27088W        W43162   3.366  14.226   0.443  0.0032 -0.1028 -0.0921
27089W        W43163   7.198  13.605  11.855 -0.3555 -0.1968 -0.0996
27090W        W43164  10.424   3.589  12.838  0.2028 -0.2486 -0.0471
27091W        W43165  17.503   8.338   4.316 -0.0397  0.1450  0.1833
27092W        W43166   6.620   2.453  13.000 -0.0933  0.0998  0.0823
27093W        W43167  16.376  17.645  14.138  0.1262 -0.1170  0.2334
27094W        W43168  14.517  14.495   3.338 -0.2468 -0.0026  0.1738
27095W        W43169  12.555   9.464  12.618 -0.0090 -0.1587  0.0974
27096W        W43170   1.466   1.801   3.600  0.0981  0.0739 -0.0543
27097W        W43171   2.708  11.238   0.680 -0.1502 -0.0393  0.0908
27098W        W43172  10.897   2.608  16.213 -0.0410  0.2891 -0.3212
27099W        W43173   6.279   0.176  13.643  0.1095  0.2525  0.0439
27100W        W43174  16.008   7.605  16.840 -0.3324 -0.0686  0.1372
27101W        W43175   8.884   6.353  11.922  0.2838  0.0323 -0.1440
27102W        W43176   4.097   2.402  13.890 -0.1301 -0.1387  0.0931
27103W        W43177   0.864   3.980   2.952  0.1025  0.1430  0.0025
27104W        W43178  15.938  11.222  12.588 -0.1371  0.1418  0.0523
27105W        W43179   1.943   8.807   4.185  0.3000 -0.1723 -0.2565
27106W        W43180  14.943   9.121   2.356  0.0991  0.0228  0.3037
27107W        W43181   3.365  17.008  11.481 -0.0776  0.0873 -0.0070
27108W        W43182  13.470   9.345  12.740  0.0625  0.1541 -0.2343
27109W        W43183  11.148   5.419  11.828 -0.1246 -0.1709  0.0901
27110W        W43184   1.898   8.894   4.733  0.0091 -0.1189 -0.1718
27111W        W43185  17.566   5.427   6.696 -0.4429 -0.4087 -0.1780
27112W        W43186   2.758  17.173   4.853  0.0677  0.0325  0.0807
27113W        W43187  11.799   2.329   0.006  0.1985 -0.1268 -0.1086
27114W        W43188   8.191   7.318  13.655 -0.0526  0.2717  0.0292
27115W        W43189  10.867   0.620   1.838  0.0694 -0.3340  0.1422
27116W        W43190   2.480   7.797   4.772 -0.0735  0.2593 -0.1691
27117W        W43191   3.735   4.540  13.754 -0.0360 -0.0811 -0.2952
27118W        W43192  17.032   3.666   1.253 -0.0822 -0.1147 -0.3301
27119W        W43193   8.611  17.331   3.579  0.1610 -0.1475  0.1534
27120W        W43194   3.791   1.478  12.345 -0.0415  0.0050  0.0058
27121W        W43195   5.481  13.625   1.480 -0.2800 -0.0345 -0.2298
27122W        W43196  15.341  11.670  16.534  0.0673  0.3667  0.2900
27123W        W43197  13.597  12.977   4.066 -0.2115  0.1230  0.1527
27124W        W43198   7.525   5.769   4.774 -0.1434  0.2439 -0.0537
27125W        W43199  12.728  10.988   0.650  0.1457 -0.0216 -0.1824
27126W        W43200  11.463   4.102   4.846 -0.0759 -0.4073  0.3692
27127W        W43201  13.114   5.535   0.322 -0.0118 -0.0525 -0.5186
27128W        W43202  14.174   4.381   1.656 -0.0497 -0.0713  0.1209
27129W        W43203   4.379  13.271   5.321  0.0249 -0.2287  0.3090
27130W        W43204  10.232  10.293   0.309 -0.0637  0.3678 -0.1835
27131W        W43205   2.703   4.483   3.118 -0.0271 -0.2331 -0.1992
27132W        W43206  13.381   0.022  14.746 -0.1454 -0.2649 -0.3468
27133W        W43207   3.709  13.689  15.174 -0.3575  0.0526  0.1112
27134W        W43208  16.434   8.379  15.848  0.1161  0.2810  0.0034
27135W        W43209   9.442  17.325  12.434 -0.1537  0.0655  0.2471
27136W        W43210  12.290  17.612   5.302  0.3063 -0.1763 -0.2359
27137W        W43211   3.288   9.973   4.417 -0.1646 -0.1727 -0.1646
27138W        W43212  13.586  10.348  12.089  0.1317  0.0776  0.1012
27139W        W43213   4.422  14.182  11.922  0.1744 -0.1576 -0.2323
27140W        W43214   9.048   0.823   4.695 -0.0350 -0.2557  0.1486
27141W        W43215   5.459   4.513   2.492 -0.0176  0.2555 -0.3361
27142W        W43216  12.097   2.743  17.143 -0.1303  0.3115  0.0569
27143W        W43217  12.981   8.748   3.692 -0.0393  0.0892  0.0063
27144W        W43218  12.941  17.288   4.173  0.2694 -0.0512  0.2485
27145W        W43219  14.467   1.703   4.101  0.0974  0.2491  0.0295
27146W        W43220   5.112  12.261  12.836 -0.5224 -0.0627  0.0360
27147W        W43221  16.489  15.933   6.114 -0.2903  0.0508 -0.2076
27148W        W43222   2.125   4.752  14.408  0.1432 -0.1166  0.0336
27149W        W43223  17.283  12.310   2.691 -0.1614 -0.0586 -0.0407
27150W        W43224   7.118  10.174  16.941  0.3233 -0.0793  0.1743
27151W        W43225  15.891   5.523   0.080 -0.0117  0.1713 -0.2290
27152W        W43226   9.951  11.981  15.477  0.4672 -0.0263  0.0918
27153W        W43227   9.172   7.860  16.189 -0.1090  0.0321 -0.1493
27154W        W43228  17.247   1.967  16.280 -0.1404  0.1882 -0.1139
27155W        W43229   2.098   5.344  15.505  0.0423 -0.1388 -0.3798
27156W        W43230  15.246   6.149   0.028  0.0095 -0.4476 -0.1783
27157W        W43231  13.974   3.747  12.671 -0.0593  0.2786 -0.0958
27158W        W43232  13.668   2.133   3.397 -0.1467 -0.0509  0.0829
27159W        W43233  14.572   6.292   1.269  0.1032  0.1476 -0.1853
27160W        W43234  15.583   7.080  14.929  0.0527 -0.2318  0.4513
27161W        W43235  13.854   4.388   4.606 -0.0446 -0.0633  0.3077
27162W        W43236  17.468   1.667   4.476  0.1091 -0.0286  0.1273
27163W        W43237  17.077  15.417   3.002  0.1719 -0.0846  0.0197
27164W        W43238  11.933  17.439  14.000  0.1943 -0.0213  0.3383
27165W        W43239   9.923   2.640   0.940  0.1292 -0.1033  0.0369
27166W        W43240   2.854   1.114  14.523  0.2197  0.1258 -0.0050
27167W        W43241   9.590   1.090  12.115 -0.2298 -0.1016  0.0701
27168W        W43242   2.184   2.504  15.794  0.0538  0.0637 -0.2350
27169W        W43243  11.407   8.805   5.516 -0.1135 -0.2643  0.0569
27170W        W43244   0.638  10.757  15.292  0.1073 -0.0386  0.0953
27171W        W43245   0.250   4.920   4.036  0.1041 -0.3129 -0.1545
27172W        W43246  16.909   2.052  14.458  0.0533 -0.3038  0.0521
27173W        W43247  14.992  16.528   4.904  0.0570  0.0237  0.0918
27174W        W43248   6.043   1.135  14.475 -0.1679  0.2059  0.2265
27175W        W43249  13.797   7.394  13.764  0.2016  0.0746  0.0547
27176W        W43250   5.116   5.181   5.186 -0.0308  0.0946  0.3431
27177W        W43251  17.592   2.049  15.190 -0.0051  0.0205  0.3755
27178W        W43252   6.694   8.479  13.340 -0.1096 -0.2378  0.1698
27179W        W43253   4.601  14.472  12.315 -0.1226  0.1936  0.1726
27180W        W43254   7.558   2.643   6.374 -0.3092  0.0547  0.1481
27181W        W43255   1.093  16.004   2.225 -0.0711 -0.1626 -0.2342
27182W        W43256  17.140  13.848   2.359  0.0542 -0.1527  0.2522
27183W        W43257  12.037  17.176  11.917  0.2588  0.0110 -0.0595
27184W        W43258  12.589  16.513   5.844  0.1009 -0.2743  0.2000
27185W        W43259   6.603  14.739  12.812  0.2845 -0.1029 -0.1786
27186W        W43260  12.550  13.147   3.128 -0.3161  0.0056  0.1029
27187W        W43261   3.925  15.771  15.417 -0.0542  0.1433  0.1536
27188W        W43262  15.928   1.524   1.558  0.2348  0.1766 -0.0558
27189W        W43263   1.074  16.567  15.583  0.0838 -0.1843  0.0170
27190W        W43264  16.056  17.265   2.040 -0.0440  0.0051  0.0831
27191W        W43265  14.853   2.733   1.614 -0.0994 -0.2360 -0.0952
27192W        W43266  15.048  10.013  16.047 -0.1115 -0.0368  0.0154
27193W        W43267   1.323  14.070   2.742 -0.3983  0.0674  0.1279
27194W        W43268  15.225   7.352  16.123 -0.0661 -0.0247  0.1430
27195W        W43269   6.370  13.865  12.337  0.0805  0.3137 -0.0052
27196W        W43270  10.886   0.677  14.070 -0.0741  0.0857 -0.4178
27197W        W43271   1.539  13.870   6.289  0.1049 -0.0324 -0.1901
27198W        W43272  13.641  12.499  15.905  0.1729  0.0984 -0.2205
27199W        W43273  13.215  14.415   3.944 -0.4869  0.2825 -0.2804
27200W        W43274   5.525   8.006  11.459 -0.0737  0.1168  0.0055
27201W        W43275   0.031   4.407   2.604  0.2197  0.1076 -0.1385
27202W        W43276  10.728   1.090   3.005 -0.0456 -0.2035 -0.1841
27203W        W43277  13.021  11.983   5.037  0.2754 -0.0025  0.0241
27204W        W43278   7.464   9.144  14.499  0.3246 -0.0526 -0.0390
27205W        W43279   6.134   6.208  11.470  0.2966  0.1998 -0.0085
27206W        W43280   9.021   3.120  13.480  0.0931  0.0511  0.2505
27207W        W43281   6.198  16.798  16.257  0.1412 -0.1928  0.1717
27208W        W43282   9.548   8.067  15.470  0.1556  0.3175  0.1361
27209W        W43283  14.144   8.914   1.625 -0.1557  0.1710 -0.2112
27210W        W43284  10.201   0.109   4.878 -0.1542 -0.1230 -0.3105
27211W        W43285   1.008  12.088  12.872  0.2095 -0.1382  0.1267
27212W        W43286  11.633  17.097  12.424 -0.2382  0.0722  0.0158
27213W        W43287  14.042   0.195   0.354  0.0472 -0.1160  0.0378
27214W        W43288  15.000   1.571  15.434 -0.2953 -0.1367 -0.2853
27215W        W43289  11.522  11.734   5.060  0.0652 -0.0623  0.4240
27216W        W43290   2.477  15.953   5.081 -0.0303 -0.2096 -0.1854
27217W        W43291  12.993   7.483  16.174  0.3382  0.3140 -0.1234
27218W        W43292  14.627  17.174   0.992 -0.1851  0.0377  0.1399
27219W        W43293   8.372  11.862   0.114 -0.0584 -0.1365  0.1642
27220W        W43294   2.579  16.394   0.112 -0.1209 -0.3407  0.0190
27221W        W43295  12.193   3.573   5.557 -0.1500 -0.0767  0.1240
27222W        W43296  10.294  17.203  14.724 -0.0583 -0.2435  0.1816
27223W        W43297  12.797  13.808   5.182  0.3068 -0.0936 -0.0811
27224W        W43298   0.561   2.470  14.640  0.0111  0.3034  0.0850
27225W        W43299   4.505   4.983  12.775  0.0197  0.1022 -0.0590
27226W        W43300   8.964  12.041  14.307 -0.1742  0.0412  0.3035
27227W        W43301   5.385   1.626   0.271  0.2067 -0.0662 -0.0516
27228W        W43302   6.386   6.856  12.411 -0.2457 -0.1794  0.0979
27229W        W43303  17.264   5.777  11.395  0.2006  0.1952 -0.1274
27230W        W43304   4.241  15.865   1.900 -0.0098 -0.0373 -0.0473
27231W        W43305   0.548   4.393   0.223  0.2881 -0.1939  0.2918
27232W        W43306  17.091   3.475  14.581  0.0331 -0.0192  0.1246
27233W        W43307   0.994  13.637   1.657  0.0133  0.1462 -0.0490
27234W        W43308  17.609   3.884  12.727 -0.0859 -0.0339  0.3591
27235W        W43309   6.776  11.671   1.956 -0.2647  0.0287 -0.1601
27236W        W43310   6.893  13.480  14.024  0.0837  0.2433 -0.1180
27237W        W43311  12.458   5.861  14.335 -0.1428  0.1192 -0.1895
27238W        W43312  13.516   4.227   3.626 -0.2216  0.1988 -0.2665
27239W        W43313   5.112  13.932  14.187  0.3574 -0.0290 -0.1371
27240W        W43314   5.448  12.991   0.198 -0.1485 -0.0045  0.0643
27241W        W43315   2.552   1.449   1.398  0.0810 -0.2170  0.1311
27242W        W43316   7.680   6.543   4.916 -0.2771 -0.1073  0.1148
27243W        W43317   1.747   6.471   1.644  0.1022  0.0199 -0.0965
27244W        W43318   9.076  13.445   0.320 -0.1569 -0.1293  0.0771
27245W        W43319  15.555  12.252   3.726 -0.2243  0.0276 -0.1451
27246W        W43320  14.864  14.137  13.628 -0.2878  0.0007 -0.0220
27247W        W43321   7.981  13.822   1.254  0.0403 -0.1275 -0.1140
27248W        W43322   6.247   7.786   5.285 -0.1143  0.1582  0.2018
27249W        W43323   9.538  16.540   1.238 -0.1213  0.0370 -0.1945
27250W        W43324  13.488   6.199   0.851 -0.0265 -0.3171 -0.2465
27251W        W43325  16.132   9.326  16.844  0.0324 -0.0891  0.0509
27252W        W43326  14.762   4.966  12.433 -0.0132  0.4245  0.1408
27253W        W43327  13.801   3.032   5.487  0.1850 -0.2432 -0.2744
27254W        W43328   3.627   2.664   3.632  0.1508 -0.0679  0.1379
27255W        W43329   8.803  11.791  16.089  0.0581 -0.0762  0.0428
27256W        W43330  11.685  12.283   3.916  0.0099 -0.1970 -0.1907
27257W        W43331  16.713   1.459  15.931 -0.0844 -0.1942 -0.2919
27258W        W43332   3.225  14.389   2.262  0.0318  0.3044 -0.1664
27259W        W43333  16.582   4.762   5.492  0.5479 -0.2376 -0.0962
27260W        W43334  14.834   4.188   2.286 -0.0093 -0.0452 -0.0181
27261W        W43335   0.639   6.867  13.136 -0.3003 -0.2330 -0.1117
27262W        W43336   4.838   4.466   1.661 -0.0750 -0.4962  0.0875
27263W        W43337  16.446  14.515   2.098  0.3351 -0.1665  0.0401
27264W        W43338  10.689  15.613   4.318 -0.1335  0.1586  0.1610
27265W        W43339  14.736   6.782   5.256 -0.2075  0.1005 -0.3031
27266W        W43340  11.625   0.116  13.938  0.2735  0.1021  0.2422
27267W        W43341   0.018   0.351  12.210 -0.0469  0.2717 -0.1780
27268W        W43342  11.609  16.855   0.591  0.0076  0.0653 -0.0849
27269W        W43343   0.598   9.088   1.744  0.3389 -0.1096  0.0358
27270W        W43344  13.811   2.144  12.655 -0.1147  0.0459  0.0708
27271W        W43345   2.073   3.803   3.609  0.1350 -0.0188 -0.0532
27272W        W43346   8.114   9.136   4.894 -0.1815 -0.2701  0.0503
27273W        W43347   6.539   7.378   2.756  0.2695 -0.0596  0.0696
27274W        W43348   4.360  11.198  14.737  0.1002  0.0842 -0.0024
27275W        W43349  13.226   3.295  12.477 -0.3169  0.0538  0.1637
27276W        W43350  13.160  13.776  13.672  0.1568 -0.0536 -0.0048
27277W        W43351   0.179   8.742   0.339 -0.1512  0.1417  0.0016
27278W        W43352   0.707   9.364  13.473  0.2227  0.0348 -0.1142
27279W        W43353   9.341   1.277   5.408  0.0604  0.0557  0.4584
27280W        W43354  16.297   6.939   2.447 -0.1353  0.1262  0.4173
27281W        W43355  10.043  10.403  13.060 -0.1335 -0.0033 -0.0309
27282W        W43356  12.931   6.104  14.803 -0.2312 -0.4324  0.2530
27283W        W43357   9.666  15.076  12.784  0.1471 -0.2335  0.0238
27284W        W43358   7.754  16.610   4.343 -0.0376  0.3243  0.2096
27285W        W43359   3.285   4.221   3.225 -0.3473  0.0944  0.0679
27286W        W43360  17.074  10.838  12.019  0.1144  0.0474 -0.2994
27287W        W43361   8.094  10.375   3.451  0.0295 -0.3087 -0.1153
27288W        W43362  14.380  14.024  16.126 -0.0747  0.1738 -0.0706
27289W        W43363   7.593   0.051  11.987  0.0201  0.2332  0.1165
27290W        W43364  13.810   2.827   1.511  0.0985  0.0173  0.1298
27291W        W43365   0.003   4.115   5.610  0.0602  0.0556  0.2641
27292W        W43366   1.562  16.064  12.505  0.1845  0.1159  0.1212
27293W        W43367   3.002   7.057  17.144  0.1845  0.0273 -0.0700
27294W        W43368   3.353   3.716  12.508  0.1744 -0.1002 -0.1714
27295W        W43369   4.006  11.044   5.552 -0.3070 -0.1924  0.2817
27296W        W43370   1.181   7.497   5.844 -0.1037 -0.1777  0.0710
27297W        W43371   8.275  13.162   3.940  0.3800  0.3315 -0.3279
27298W        W43372   4.908   2.156   2.813  0.0878 -0.1548  0.0591
27299W        W43373   8.406   9.341   3.163  0.1856  0.0476 -0.1246
27300W        W43374   4.766   1.170  12.303  0.2095  0.0152  0.5643
27301W        W43375  13.123   3.509   2.880  0.1072  0.0357  0.1462
27302W        W43376   2.680   0.422   3.321 -0.0928 -0.0733 -0.1463
27303W        W43377  13.986   1.023   2.447  0.2326 -0.1252 -0.0733
27304W        W43378   2.595  17.708   0.343 -0.1022  0.0059  0.0115
27305W        W43379   9.066   6.858  15.577 -0.0130  0.2060 -0.2078
27306W        W43380   3.410  12.280  12.456  0.0038  0.1854  0.0166
27307W        W43381  16.316   4.676   4.459 -0.0717  0.2477  0.1177
27308W        W43382   5.421  13.708  12.695 -0.0455  0.1787 -0.0002
27309W        W43383  16.575   7.510  15.587  0.0924 -0.2427 -0.2736
27310W        W43384  11.735   5.957   3.032 -0.0084  0.0036 -0.0475
27311W        W43385  16.065  14.478   3.812  0.0320  0.3805  0.0335
27312W        W43386   6.441  12.182   4.426 -0.0194  0.3645  0.0381
27313W        W43387  17.725   6.762  15.066  0.0303  0.1527 -0.2328
27314W        W43388  12.195   7.625  13.446 -0.2438 -0.0737 -0.2976
27315W        W43389   4.578  13.258  14.517 -0.0608 -0.1343 -0.1509
27316W        W43390  16.937  17.097  12.240 -0.0470 -0.2634 -0.0589
27317W        W43391   2.387  13.441   5.277 -0.0831  0.1000  0.3596
27318W        W43392   8.937  10.072  16.314 -0.0572  0.1993  0.1076
27319W        W43393  10.470   8.423   4.858  0.0420 -0.0996 -0.1657
27320W        W43394   9.103   6.137  13.311  0.0863 -0.0739 -0.4939
27321W        W43395  16.260  13.589   5.773 -0.1385  0.0070 -0.1568
27322W        W43396   3.524  11.756  13.922 -0.1212 -0.2622  0.1332
27323W        W43397   6.695  14.543   3.294  0.1556 -0.0823 -0.0822
27324W        W43398   8.142   0.139   5.709  0.0515 -0.0511 -0.2775
27325W        W43399   1.122  13.968   3.856  0.1286  0.2920 -0.1629
27326W        W43400   4.149  17.185   6.617  0.1150  0.2347 -0.2146
27327W        W43401  12.414   7.845  12.121  0.0104 -0.1144  0.1636
27328W        W43402   2.648  12.106   2.100  0.2371 -0.1698 -0.1267
27329W        W43403   5.491  11.982  14.966 -0.3282  0.1006  0.1989
27330W        W43404  17.736   1.798   1.733 -0.1521 -0.2047 -0.1956
27331W        W43405  15.712   4.137   3.171 -0.2332  0.0913 -0.2194
27332W        W43406   9.663  13.217   3.135  0.1943  0.0318  0.2465
27333W        W43407  12.932  10.588  14.237 -0.0851 -0.1204 -0.2481
27334W        W43408  17.559   6.430   1.818  0.0886  0.1537  0.2786
27335W        W43409   8.524  12.763  13.126  0.0670 -0.0799 -0.0852
27336W        W43410   4.188   3.733  16.666 -0.0377  0.1503 -0.0019
27337W        W43411   4.551  12.483  11.885  0.1021  0.0929 -0.0067
27338W        W43412  11.374  12.870   2.895  0.1617  0.0848  0.0497
27339W        W43413   5.108  14.126  16.164  0.1490  0.1991  0.2143
27340W        W43414   4.719  16.954   4.464 -0.1703 -0.2821  0.0392
27341W        W43415   8.302  14.487   4.158  0.0646  0.0751 -0.3346
27342W        W43416   1.782   0.335   0.556 -0.2568  0.0767 -0.2567
27343W        W43417   4.954  14.112  13.772  0.2162  0.2338 -0.1440
27344W        W43418   9.608   1.287   1.718  0.1802 -0.1080  0.2956
27345W        W43419   6.580   5.029   3.352  0.0113  0.0570  0.0672
27346W        W43420  17.408  17.445  15.512 -0.3332 -0.1528  0.2009
27347W        W43421   5.135  16.581   5.731  0.1618  0.0332 -0.2457
27348W        W43422   7.328   0.893   2.929  0.1132  0.0254  0.0867
27349W        W43423  10.788   3.508   2.482 -0.2511 -0.0700  0.1352
27350W        W43424  15.074   7.299   3.732  0.0737 -0.0829  0.1476
27351W        W43425   4.786  16.239  15.152  0.1234 -0.0077  0.1216
27352W        W43426   5.764   1.683   4.029 -0.0411 -0.1008  0.0962
27353W        W43427  12.902  12.397   3.923  0.0962 -0.0266 -0.0824
27354W        W43428   1.573  12.322   5.501 -0.0318  0.2429  0.0242
27355W        W43429  11.167   0.438  12.663 -0.2533  0.3146  0.2138
27356W        W43430   1.818  15.864   5.984  0.1295 -0.0590  0.2660
27357W        W43431  16.234   7.530   3.467  0.0011 -0.0686  0.0946
27358W        W43432  12.214  12.573   5.779 -0.0008 -0.0780 -0.0003
27359W        W43433   8.020  15.643   0.335  0.0118 -0.3693  0.1905
27360W        W43434  11.576  17.124   3.809  0.1005  0.0147 -0.0095
27361W        W43435  16.478  17.605   2.974 -0.0412  0.0834 -0.0313
27362W        W43436  14.335  16.421  11.882  0.1475 -0.1623 -0.0824
27363W        W43437   4.399  13.746  16.053  0.1620  0.2702 -0.1199
27364W        W43438  17.631   8.614  13.135  0.0825 -0.1992 -0.1785
27365W        W43439  17.548  12.775  16.756 -0.0975 -0.2802  0.1589
27366W        W43440  11.084   9.171  12.737  0.1574  0.2182 -0.0851
27367W        W43441   8.017  14.739   4.411  0.0333 -0.1059  0.0163
27368W        W43442   4.954  17.175  15.842  0.0786  0.0559 -0.2435
27369W        W43443   7.974  14.941   0.172 -0.2770 -0.1561 -0.1811
27370W        W43444  13.090   1.340   4.705 -0.3026  0.1612 -0.2466
27371W        W43445  13.394  16.150   6.238  0.1131 -0.0074  0.2014
27372W        W43446  14.827  16.277   0.743  0.0942 -0.1519 -0.1339
27373W        W43447   0.483   3.231   3.977 -0.0637 -0.2682 -0.0181
27374W        W43448   9.943  13.152   1.761 -0.0931 -0.0006  0.3129
27375W        W43449   0.019  14.517  14.832 -0.1948 -0.2177 -0.2212
27376W        W43450   6.221   9.961   2.157  0.0184 -0.3757  0.1199
27377W        W43451   0.758  10.481   2.445  0.1576 -0.1064  0.0167
27378W        W43452   8.184   0.177  11.923  0.1486  0.0002  0.1182
27379W        W43453   6.857   0.697  16.711 -0.0753  0.2796  0.0321
27380W        W43454  10.334   3.190  14.948 -0.1627 -0.2444  0.3876
27381W        W43455   0.310   7.938  12.550 -0.0377  0.0857 -0.1199
27382W        W43456   1.868   0.705   2.378 -0.0968 -0.1927 -0.2020
27383W        W43457  12.858   3.836   1.534  0.0325  0.0869  0.2937
27384W        W43458  13.297   9.129  13.412  0.1095 -0.1956  0.0717
27385W        W43459  12.254  16.778  11.758 -0.1035  0.2509  0.0100
27386W        W43460   7.569  14.914  13.429  0.0959  0.0732  0.0256
27387W        W43461  12.337   7.339   2.690 -0.0014 -0.0835  0.0571
27388W        W43462   7.437   5.152  14.047  0.1851 -0.1932  0.1804
27389W        W43463  10.368  15.651   6.023 -0.2892  0.3895  0.1070
27390W        W43464  14.264   2.785   1.281 -0.0846 -0.0236 -0.0698
27391W        W43465  14.632   7.016   0.849  0.4593  0.2324  0.3473
27392W        W43466   8.097  11.348   3.197  0.4174 -0.0437 -0.0838
27393W        W43467   5.411   8.333  16.698 -0.2371  0.0369  0.2939
27394W        W43468   0.406   2.548   0.556  0.1616  0.0186 -0.3339
27395W        W43469   1.345   6.950   6.338 -0.0649 -0.0099 -0.0765
27396W        W43470  10.612  16.725   5.834 -0.2540  0.0416  0.3925
27397W        W43471  15.807   9.755   4.654  0.1730  0.0944  0.0779
27398W        W43472  14.970  14.436   2.139 -0.1907 -0.2989 -0.0396
27399W        W43473   4.811  13.312  16.759 -0.1404  0.0046  0.2579
27400W        W43474   9.949   8.513   2.714 -0.1625 -0.1968  0.1504
27401W        W43475   3.782   4.023   0.809  0.0734 -0.0969  0.3116
27402W        W43476  11.253   8.830  16.608  0.0158  0.0441 -0.1158
27403W        W43477  15.238   7.906  16.137 -0.1630  0.0289  0.0221
27404W        W43478   0.432  14.968  16.242  0.1049  0.1865  0.0855
27405W        W43479   4.833   9.060   0.473  0.2557  0.2626  0.0167
27406W        W43480  16.201  16.448   4.988 -0.0041 -0.0826 -0.0548
27407W        W43481  11.288  13.683  13.124 -0.0678  0.2272 -0.0962
27408W        W43482   1.204   4.711   4.995  0.3225  0.4325 -0.1480
27409W        W43483  10.683   7.023   2.119 -0.2814  0.1248  0.0466
27410W        W43484   6.920   8.881  11.652 -0.1283  0.1256  0.2005
27411W        W43485  16.846  10.375  12.714 -0.1378 -0.2655  0.0403
27412W        W43486   9.287   4.364  13.622 -0.0713 -0.2901  0.0814
27413W        W43487   0.985   5.199  17.097 -0.1983 -0.0462  0.3881
27414W        W43488   5.933   0.147   2.803  0.1115  0.3821 -0.0268
27415W        W43489   1.707  12.544  13.463 -0.3715 -0.2444 -0.1954
27416W        W43490  14.084  12.033   4.746 -0.2801 -0.1951 -0.0033
27417W        W43491   8.445  15.785   6.484 -0.1121  0.1443  0.0615
27418W        W43492   3.835  10.339  12.109  0.0123 -0.0257 -0.0093
27419W        W43493   5.198   1.448  16.814  0.0940  0.1476  0.3865
27420W        W43494   8.805  12.993   0.285  0.1584 -0.0472 -0.0145
27421W        W43495  14.027   0.304  12.662 -0.2428 -0.1792 -0.1981
27422W        W43496  10.057   8.106  14.292 -0.4019  0.1175 -0.3923
27423W        W43497   1.075   9.244   1.754  0.0612 -0.3859 -0.0710
27424W        W43498   0.321   2.418   3.960  0.0052 -0.1003  0.2512
27425W        W43499   6.306  15.665   5.616 -0.0210  0.2236 -0.1817
27426W        W43500   1.830   7.513  13.740 -0.0756  0.1157  0.0984
27427W        W43501   0.977   2.192   5.525 -0.2019 -0.0742  0.0900
27428W        W43502  10.835   7.511   2.753  0.0932 -0.0856 -0.0565
27429W        W43503   2.070   3.731   2.799  0.0324 -0.0378 -0.2703
27430W        W43504  12.582  12.123   4.100 -0.0123 -0.0256 -0.2756
27431W        W43505  12.809   3.966  14.963  0.3289 -0.0264  0.1312
27432W        W43506  14.195   0.097  11.578  0.2957  0.1649 -0.1813
27433W        W43507   5.990   8.915  16.347 -0.1402 -0.0160 -0.1108
27434W        W43508  16.567   6.383  11.414 -0.0522 -0.0533  0.0563
27435W        W43509   4.179  16.756  15.671 -0.0224  0.0143 -0.0697
27436W        W43510   0.497  13.134   4.930  0.0475 -0.2352 -0.0829
27437W        W43511   4.324  10.948   3.766  0.1011  0.2432  0.0682
27438W        W43512   5.102  11.444  12.542 -0.0441  0.1757  0.0229
27439W        W43513   5.071   4.622  15.545  0.0140  0.3412  0.1711
27440W        W43514   8.201   6.989  13.046 -0.0975 -0.1660 -0.0303
27441W        W43515   4.288   3.909  16.167  0.1519  0.2221  0.1390
27442W        W43516  10.185   3.844   3.734 -0.1488 -0.1486  0.0036
27443W        W43517  10.465   3.625  14.478  0.0182  0.0302  0.1809
27444W        W43518   1.472  16.987  16.251 -0.0166  0.2671  0.0242
27445W        W43519   1.820  14.361   4.126 -0.1324 -0.1758  0.0327
27446W        W43520   8.905   6.354  13.728 -0.0189 -0.0178  0.2745
27447W        W43521  11.600  11.137   4.842 -0.0844 -0.0428 -0.3269
27448W        W43522   7.322   3.819   5.915  0.3497  0.2559 -0.1603
27449W        W43523  13.437  12.952  14.149  0.3906  0.0090  0.0073
27450W        W43524   5.016   6.647  13.076  0.0810  0.1651  0.1023
27451W        W43525   4.198   0.189   5.795 -0.1613 -0.4186  0.3810
27452W        W43526  12.195  15.185   1.445  0.1266  0.1900  0.0568
27453W        W43527  10.468   1.461  13.168 -0.3152  0.2025  0.0260
27454W        W43528   5.796   4.515   3.739 -0.0749 -0.1136 -0.1522
27455W        W43529   0.479  13.765  14.585 -0.1240 -0.1806  0.0201
27456W        W43530   9.859   7.248   0.110  0.1719  0.0257 -0.0412
27457W        W43531   4.660   4.854   2.045  0.0489 -0.0746 -0.1105
27458W        W43532   0.423   9.629   3.275 -0.4004  0.1942 -0.3468
27459W        W43533   2.525  16.147   3.381  0.0101  0.2116  0.0769
27460W        W43534  12.422  14.448   0.099 -0.0664  0.2697 -0.2709
27461W        W43535  16.701  12.939  12.765  0.4528  0.1182 -0.2245
27462W        W43536   5.766   9.422   1.467 -0.0098  0.2479 -0.0518
27463W        W43537  17.333   4.603  12.977 -0.2498  0.1733  0.1903
27464W        W43538   4.545   4.993   4.465  0.0165  0.0853 -0.0930
27465W        W43539   6.938   1.223   2.536 -0.3370 -0.3058  0.0440
27466W        W43540   3.955   3.139  13.168 -0.1732  0.3042 -0.1699
27467W        W43541   8.168   2.300   2.419  0.0273 -0.0423 -0.1591
27468W        W43542   0.543   5.017  13.185 -0.0421 -0.0361 -0.0038
27469W        W43543  10.762  14.776   5.813 -0.0932  0.0742  0.2359
27470W        W43544  15.200  16.945  11.689  0.0290  0.0938 -0.0787
27471W        W43545   5.132   4.410   4.333  0.0961  0.0261 -0.2825
27472W        W43546   1.430   1.108  14.456 -0.1359 -0.0657  0.1248
27473W        W43547   1.795  14.205   0.799  0.0150 -0.0059 -0.2382
27474W        W43548   2.980   1.176   3.630  0.1055 -0.2443 -0.3006
27475W        W43549  15.949   4.278  12.431  0.1061 -0.1275  0.0369
27476W        W43550   8.514   3.238   5.100  0.0823  0.3375 -0.1686
27477W        W43551  11.242   8.144   4.622  0.1084  0.3996  0.1316
27478W        W43552   8.365  11.356   2.404 -0.2555 -0.1967  0.0710
27479W        W43553  11.379  14.869  13.685 -0.0660 -0.1878  0.0198
27480W        W43554   8.450  10.065  14.340 -0.2310  0.0884  0.2093
27481W        W43555  13.176  14.920   4.475 -0.0683  0.3272  0.0418
27482W        W43556  10.290   5.699   5.065  0.0184 -0.0606 -0.2207
27483W        W43557   9.561   3.443   0.982 -0.0187 -0.2250 -0.1127
27484W        W43558   7.721   8.633   0.411 -0.0847 -0.1301 -0.0051
27485W        W43559   2.154   4.498   4.300  0.1488 -0.5650 -0.1680
27486W        W43560  13.215   4.510  16.464 -0.0855 -0.0210  0.0218
27487W        W43561   2.340   6.501  12.698  0.2288  0.0285  0.0170
27488W        W43562   6.875  12.431  15.630  0.0451  0.0085 -0.0288
27489W        W43563  17.515   3.166   3.359 -0.1030  0.2558 -0.1442
27490W        W43564   2.801   5.796   6.200  0.1260  0.1045 -0.1420
27491W        W43565  15.897   0.325   4.243  0.2458 -0.0522 -0.2064
27492W        W43566  15.318  16.945  13.023 -0.0375  0.0044 -0.0001
27493W        W43567  16.285   2.890   5.914  0.0843 -0.4065 -0.1014
27494W        W43568  16.213   2.092   0.805 -0.1018  0.0949 -0.1154
27495W        W43569   6.972  14.626   4.568  0.3370 -0.1711  0.1908
27496W        W43570  13.655  14.407  12.707 -0.0740 -0.3713 -0.2668
27497W        W43571  10.100  14.352   1.538  0.1802  0.0835  0.0398
27498W        W43572  11.334   7.455  12.697  0.2584 -0.1182 -0.0946
27499W        W43573  10.344   7.365  12.345 -0.0848  0.2116 -0.4785
27500W        W43574  11.873   6.798  15.755 -0.0407 -0.0514  0.0367
27501W        W43575  14.288   0.376  13.580 -0.0459 -0.1741  0.2853
27502W        W43576   5.024  11.912  12.252  0.1646  0.0194 -0.1446
27503W        W43577   0.555  16.061  13.785  0.0671 -0.3444 -0.0905
27504W        W43578   6.726  10.877  13.333  0.1022 -0.0697 -0.1246
27505W        W43579   5.666  14.798   1.585 -0.1071 -0.0772 -0.0356
27506W        W43580  12.627   1.714  16.073 -0.0729 -0.1888  0.2763
27507W        W43581   2.572   9.708  15.564 -0.2168 -0.0857 -0.0560
27508W        W43582  10.675   0.028  11.832  0.2430 -0.3257 -0.0978
27509W        W43583  15.718  12.060   1.913 -0.3137  0.2991 -0.0939
27510W        W43584  14.129  11.391   4.543 -0.3473  0.0241  0.0082
27511W        W43585   5.505  13.778   4.414 -0.0344  0.0914 -0.0576
27512W        W43586  15.933  15.912   5.497 -0.1620 -0.1688  0.0374
27513W        W43587  10.451   2.289   1.896 -0.1756  0.2634 -0.2114
27514W        W43588  12.053   8.940  16.099  0.1740 -0.1310  0.1130
27515W        W43589   1.799  11.451   0.488 -0.1662 -0.0782  0.2136
27516W        W43590  15.774   8.166   1.083 -0.4258 -0.0485 -0.0122
27517W        W43591  15.448   3.338   4.810 -0.3267  0.2539 -0.3992
27518W        W43592  15.339   2.163   2.032 -0.0806  0.0469  0.0530
27519W        W43593  15.298   4.198   3.888 -0.1193  0.0360 -0.1656
27520W        W43594  13.079  14.251  13.487 -0.0988 -0.0608  0.1332
27521W        W43595  14.720   4.794   2.106 -0.0059 -0.1895 -0.1004
27522W        W43596  11.679   4.518  12.847  0.0754 -0.4583 -0.0740
27523W        W43597  14.249  14.923  16.907  0.3227 -0.1738 -0.2981
27524W        W43598  10.259  11.084  12.307 -0.1676 -0.2396  0.1636
27525W        W43599  12.618   4.208  12.555  0.1226  0.1545 -0.0431
27526W        W43600  13.981   4.526  16.110 -0.2847  0.2414  0.0144
27527W        W43601  17.385  14.701   1.768  0.1074  0.0551  0.0104
27528W        W43602  10.407   9.004   1.764 -0.1626  0.0638  0.0165
27529W        W43603   2.499   9.425  12.695  0.0171  0.1548 -0.2055
27530W        W43604   4.234   6.929  12.788  0.0368 -0.2866 -0.0836
27531W        W43605   5.666  13.142   2.457  0.0664 -0.0560  0.0990
27532W        W43606  11.827   5.618   1.875  0.1319 -0.0467 -0.1835
27533W        W43607   4.181  15.633   4.035 -0.2269  0.4897 -0.0020
27534W        W43608   2.378   5.085  11.775 -0.1663 -0.1721 -0.0508
27535W        W43609  11.534   1.371  15.359  0.3209 -0.2562  0.3045
27536W        W43610   5.007   3.936  12.027 -0.0362 -0.0659  0.1257
27537W        W43611  12.567  13.429  11.798 -0.0468 -0.1744 -0.1047
27538W        W43612  17.143  15.574  15.261 -0.2417 -0.1520 -0.1839
27539W        W43613  17.508   5.312   4.665 -0.0528 -0.2266  0.1825
27540W        W43614   1.451   1.385   3.956 -0.0999  0.1823 -0.1752
27541W        W43615   0.457  16.556  13.935  0.0972  0.0821 -0.2128
27542W        W43616   5.533   7.302  16.161 -0.1192  0.3003  0.1948
27543W        W43617   3.704  16.626   4.519  0.1858 -0.2609  0.0202
27544W        W43618  14.150  11.295  12.831 -0.2286  0.0818 -0.1279
27545W        W43619  12.033   9.164   0.835  0.1931 -0.2235 -0.1187
27546W        W43620  15.793  15.069   1.953  0.1467 -0.1940 -0.0791
27547W        W43621   9.032  15.693   4.517 -0.0924  0.4119 -0.0293
27548W        W43622   5.379  14.544  16.373 -0.0635  0.1476 -0.1830
27549W        W43623  15.296  17.696  14.896  0.0108 -0.1691 -0.0477
27550W        W43624   9.892   2.100   1.129 -0.1454 -0.3326 -0.0088
27551W        W43625   6.629   4.835  15.895  0.0737  0.1896 -0.0124
27552W        W43626  14.565   0.154   3.412 -0.2699  0.1435 -0.0273
27553W        W43627   3.217   6.082  14.712 -0.1446 -0.0025 -0.1150
27554W        W43628   4.215   3.395   1.199 -0.1533  0.1382 -0.2640
27555W        W43629   0.016  14.677   2.629 -0.0374  0.1882 -0.1538
27556W        W43630   1.756   0.686  16.970 -0.0536 -0.0846  0.2252
27557W        W43631  14.845   0.416  12.814 -0.1412  0.0121 -0.0056
27558W        W43632  13.671  17.357  16.568 -0.1784  0.1933 -0.3301
27559W        W43633  15.325   6.315   5.960  0.0236 -0.1247  0.0679
27560W        W43634  11.115  16.239  12.022 -0.1272  0.0276 -0.0195
27561W        W43635   4.173  11.523   6.638  0.1406  0.3933 -0.0098
27562W        W43636  16.193  14.653  15.019  0.2571  0.1211 -0.0602
27563W        W43637  17.706   8.634   3.437  0.1902 -0.3622 -0.0295
27564W        W43638  16.739   2.716   2.282 -0.0093  0.1130 -0.0441
27565W        W43639   5.326  10.609  12.248  0.1881  0.2091  0.0128
27566W        W43640   6.064  10.089   3.927  0.1772 -0.1775  0.1162
27567W        W43641   1.503   6.892  15.583  0.3589  0.1523 -0.1539
27568W        W43642   6.630  13.813   1.545  0.0731  0.0740 -0.0483
27569W        W43643   0.394   6.465  12.598 -0.0761  0.0350 -0.1925
27570W        W43644  16.252  12.203   0.660 -0.2032  0.0087  0.2646
27571W        W43645  14.162   7.041   0.710 -0.1205 -0.1470  0.0494
27572W        W43646  10.274   6.394  12.193  0.2145 -0.0133 -0.2310
27573W        W43647  10.005   0.729  11.849  0.0842 -0.4341  0.1056
27574W        W43648   6.138   7.381   2.482 -0.0334  0.0238 -0.1751
27575W        W43649   2.387  14.985   2.758 -0.2731  0.2352 -0.1153
27576W        W43650   3.715   9.092  11.917 -0.1271 -0.1207  0.2370
27577W        W43651   3.762   4.266   0.176  0.0295 -0.2659 -0.2449
27578W        W43652  10.186   6.674  11.666  0.3836  0.1239  0.0832
27579W        W43653   0.266  12.539   5.732  0.3701 -0.1818  0.0241
27580W        W43654   3.236   8.969   1.407  0.0050  0.2166 -0.1748
27581W        W43655  17.678  12.824  11.712  0.1395 -0.0297  0.1349
27582W        W43656   5.865   9.456   5.577 -0.0112  0.0429  0.2975
27583W        W43657  12.526   1.668  13.570 -0.0709 -0.2261 -0.0252
27584W        W43658   9.995  13.846   1.401  0.1969  0.2458 -0.1332
27585W        W43659   8.024   5.738   5.887  0.2193 -0.0919 -0.1866
27586W        W43660   2.017  17.179   5.242  0.1033 -0.2442 -0.0960
27587W        W43661   4.786  13.055   5.473 -0.1797  0.2616 -0.3511
27588W        W43662  11.973   2.885  13.354  0.0639 -0.0132 -0.0567
27589W        W43663  15.184  15.086   2.901  0.0357  0.1345 -0.4327
27590W        W43664   9.254  15.198  14.090  0.3807  0.0292 -0.1052
27591W        W43665   4.536   5.622  14.923 -0.1911 -0.0815  0.0459
27592W        W43666  15.788   8.003   4.191  0.1072  0.1934  0.0532
27593W        W43667   9.014   6.734   2.790 -0.2304 -0.0888  0.0774
27594W        W43668   6.232   7.574  16.842  0.2336 -0.3630 -0.2531
27595W        W43669  17.418  16.229   2.904  0.1973 -0.1093  0.3425
27596W        W43670  13.379   3.974  13.435  0.3373  0.0211  0.1834
27597W        W43671   6.082  15.649   0.447 -0.1168 -0.1293 -0.3949
27598W        W43672   9.871  10.708   2.570 -0.0527 -0.0984  0.2684
27599W        W43673  14.824   4.541  12.112  0.1236  0.0064  0.2509
27600W        W43674   3.564   6.912   4.227  0.1793 -0.1483 -0.1511
27601W        W43675   0.452   3.771   6.091  0.1583  0.0094  0.3555
27602W        W43676   5.571   2.735  16.855  0.0465 -0.1421 -0.1522
27603W        W43677  11.938   1.946   4.712  0.0063 -0.0389  0.1111
27604W        W43678   3.815   4.779   5.329 -0.2072  0.1764  0.5219
27605W        W43679  12.914  15.473   4.040 -0.1024  0.0058 -0.1842
27606W        W43680  14.223   8.486   3.924  0.1049  0.1361  0.1058
27607W        W43681   3.552   3.879   2.877 -0.1524  0.1385 -0.3389
27608W        W43682   9.028   0.951  14.293 -0.0399  0.0726 -0.3326
27609W        W43683  11.405  15.482   3.807 -0.0268 -0.1249  0.1552
27610W        W43684   1.086   3.504   2.767 -0.2415 -0.0991  0.1177
27611W        W43685  16.848   2.644  15.234 -0.1095 -0.1371 -0.0878
27612W        W43686   9.252  15.206  12.260 -0.3835  0.1024 -0.0086
27613W        W43687   7.525   5.521  14.940 -0.2737 -0.1776 -0.1765
27614W        W43688   4.116   7.047   1.391 -0.3321 -0.2336  0.4498
27615W        W43689   0.293   9.154  14.422  0.2545  0.0182 -0.1849
27616W        W43690   6.883  14.787   6.091 -0.1412 -0.1590 -0.1449
27617W        W43691  12.616  12.089  12.219 -0.1038  0.0411 -0.0574
27618W        W43692   7.303   4.374  16.190 -0.0456  0.0298  0.0421
27619W        W43693   8.792   4.167   5.876  0.2930 -0.1126  0.0085
27620W        W43694   8.996   6.768   1.703 -0.0887 -0.2279 -0.0371
27621W        W43695  14.069   5.643  11.677  0.3485  0.1879 -0.3247
27622W        W43696   0.968   5.209  14.743  0.0101  0.0181  0.0031
27623W        W43697  10.803  16.738  17.065 -0.1688  0.1080  0.3646
27624W        W43698   7.993  13.110   5.246 -0.2306  0.0323  0.3558
27625W        W43699   2.954  12.909  13.203  0.1151  0.1041  0.1939
27626W        W43700  10.908  10.694  11.873  0.0763 -0.0598 -0.0655
27627W        W43701   8.777  15.713   2.317  0.1594  0.0650 -0.1497
27628W        W43702  11.830   7.218  13.267  0.3334 -0.1054 -0.0087
27629W        W43703   6.515   4.733   0.110 -0.0448  0.0340  0.0613
27630W        W43704   9.133  16.375   1.916  0.0752  0.0681  0.1896
27631W        W43705   4.264   9.280  11.876 -0.0464 -0.1824  0.3076
27632W        W43706   9.741  13.588   3.556 -0.0247  0.0405  0.5215
27633W        W43707  15.411   0.029   0.307 -0.1105  0.1610 -0.1166
27634W        W43708  17.510   8.877   0.528 -0.0189 -0.0009 -0.0849
27635W        W43709   5.535   6.512  11.616  0.1703 -0.0995  0.1778
27636W        W43710  10.348   5.212   2.005  0.0972 -0.3308  0.1796
27637W        W43711   4.993  11.795  16.626 -0.4282 -0.0247  0.1666
27638W        W43712   8.308   8.776  13.008 -0.1196  0.0007 -0.1815
27639W        W43713  15.720  12.880  12.093 -0.1574  0.1601 -0.1213
27640W        W43714   1.192  11.395   2.287 -0.0331 -0.2421  0.0141
27641W        W43715  13.570  15.104  14.681 -0.0883 -0.2601 -0.0759
27642W        W43716   1.644  15.708  13.244  0.1895 -0.0866  0.1205
27643W        W43717  10.444  14.695  12.214  0.0226 -0.0966 -0.3856
27644W        W43718  14.825  16.423  12.328 -0.0019  0.3102 -0.0420
27645W        W43719   7.996  12.489  15.533  0.0447  0.1945 -0.2806
27646W        W43720  17.256   0.378   2.206  0.1386 -0.0820 -0.1584
27647W        W43721   9.165   9.729   3.652 -0.0670 -0.1537  0.0267
27648W        W43722  10.036  15.423   2.907  0.1073 -0.1961 -0.1486
27649W        W43723   5.844   7.596  16.551  0.0983  0.0691  0.3325
27650W        W43724   0.572   0.237  12.739  0.1882  0.3540 -0.2963
27651W        W43725  10.744  16.517  12.854 -0.0495 -0.0076 -0.0278
27652W        W43726   5.021   6.074   5.404 -0.2401 -0.1872  0.0108
27653W        W43727   4.985  10.437  15.025  0.0747 -0.1326  0.2046
27654W        W43728  11.814   1.454  14.688 -0.0413  0.2583  0.0393
27655W        W43729  10.066   3.712   0.094 -0.0163 -0.1116 -0.0030
27656W        W43730  17.615   1.607  12.553  0.1004  0.2103  0.2250
27657W        W43731  15.178   5.008   6.602  0.0752 -0.0322 -0.0134
27658W        W43732   5.050  10.470   3.130 -0.1178 -0.1200  0.1395
27659W        W43733   6.033  11.136   3.485  0.0074 -0.1810 -0.3981
27660W        W43734  14.574   3.085   2.150  0.3611  0.0851 -0.1014
27661W        W43735   4.998  16.491  14.539  0.3318  0.1401 -0.1226
27662W        W43736  17.069  11.405  17.023 -0.1226 -0.0859 -0.1288
27663W        W43737   0.258  17.494  16.166 -0.3268  0.3618  0.0684
27664W        W43738  11.083  17.687  14.726  0.2983  0.0867 -0.0659
27665W        W43739   4.065   3.427  14.427  0.1433 -0.4051 -0.0846
27666W        W43740  12.726  14.956   0.638  0.0887  0.1056 -0.1797
27667W        W43741   0.097   3.517   4.240 -0.2583  0.0210  0.0972
27668W        W43742  13.364  11.389   4.998  0.0650 -0.0280  0.2632
27669W        W43743  11.287   2.240   5.449  0.4797  0.0446 -0.0868
27670W        W43744  15.739  14.639  14.785 -0.0964  0.1038  0.0752
27671W        W43745  12.543   2.536   4.911  0.0810 -0.3155  0.1208
27672W        W43746   2.614  14.755  16.518 -0.0189  0.0288 -0.0643
27673W        W43747  11.157   0.558  14.849  0.5218 -0.2251  0.2502
27674W        W43748   6.830  12.177   0.449  0.1323  0.0820  0.0386
27675W        W43749  10.561  12.563  12.332 -0.0640 -0.0955  0.2916
27676W        W43750   3.284  16.758  14.449 -0.0242 -0.1617  0.1302
27677W        W43751   8.311   3.315   1.758 -0.0156 -0.2178 -0.4930
27678W        W43752  16.284   9.594   3.795  0.0864 -0.2177 -0.0862
27679W        W43753   6.421   2.032  11.391  0.1349  0.0671 -0.1643
27680W        W43754  16.058  10.260   4.449  0.0793 -0.4497  0.2657
27681W        W43755   3.795  12.781   1.045 -0.1412  0.2225  0.0789
27682W        W43756   1.075   0.972   1.691  0.0734  0.3022 -0.3611
27683W        W43757  10.955  16.027  16.779  0.1211 -0.1414 -0.0938
27684W        W43758  15.118   9.000   0.037  0.4570 -0.1687 -0.0193
27685W        W43759   9.880   7.358  12.187 -0.3168  0.1545 -0.0088
27686W        W43760   7.920   5.724   3.062  0.2725  0.1806 -0.2587
27687W        W43761   1.488  15.158  13.995  0.0387  0.0909  0.1485
27688W        W43762   8.736  12.057  16.471  0.3708 -0.1278 -0.0052
27689W        W43763  10.336  11.746   5.005  0.0318 -0.2224 -0.0896
27690W        W43764   6.718   7.017   2.477  0.0034  0.1125  0.0328
27691W        W43765  12.873   3.569   0.742 -0.1884 -0.0981 -0.3554
27692W        W43766   0.750   6.459  16.667  0.2115  0.3218 -0.0945
27693W        W43767  11.703   3.805  15.015 -0.0904 -0.2806 -0.1037
27694W        W43768   0.067   5.712   5.874  0.0447  0.1451 -0.0498
27695W        W43769   5.110   5.637  16.165 -0.1055 -0.0829 -0.0991
27696W        W43770   6.985   8.259  12.182  0.1898  0.0547  0.2568
27697W        W43771  12.504   4.767   5.040 -0.1729  0.1871  0.0823
27698W        W43772   5.373   0.430  15.841  0.1545 -0.1192 -0.3969
27699W        W43773  14.906   9.974   2.750  0.0618  0.0948 -0.1921
27700W        W43774   2.514  16.509  12.834 -0.1258 -0.1924  0.1764
27701W        W43775   6.165  12.161  16.771 -0.0558  0.1669 -0.0227
27702W        W43776   9.262   0.080   3.235 -0.1555 -0.0631  0.0484
27703W        W43777  10.847  12.221  16.304  0.1454  0.0538 -0.1587
27704W        W43778   5.303  17.077   5.636 -0.0173 -0.0386  0.0928
27705W        W43779  11.451  12.403  11.788  0.0226  0.1689  0.1193
27706W        W43780   8.693  10.067  15.184 -0.1358  0.4489  0.0834
27707W        W43781   3.375  15.315   2.459  0.0109  0.0907 -0.2221
27708W        W43782  14.851   1.270   2.910 -0.0739  0.0791 -0.1348
27709W        W43783  14.193   5.853   0.551  0.0468  0.0147  0.2754
27710W        W43784   5.926  15.032  14.962  0.2338  0.1384  0.0487
27711W        W43785   7.701   6.022   6.201  0.2712 -0.0109 -0.0366
27712W        W43786   8.474  15.365  14.265 -0.0770  0.1551  0.2999
27713W        W43787   2.148  13.009  12.694 -0.1440 -0.2753  0.0195
27714W        W43788  14.815  13.795   1.376 -0.1052  0.0157  0.2103
27715W        W43789   1.188   2.920   1.706  0.1148 -0.2646 -0.2518
27716W        W43790  12.349   0.473   5.173  0.2749  0.0697 -0.1439
27717W        W43791   6.489  16.649  13.036 -0.0750  0.3073  0.1935
27718W        W43792   1.637   7.956   0.178  0.0541  0.1060  0.1265
27719W        W43793  14.159   3.656  13.445 -0.0143  0.3050 -0.1460
27720W        W43794   8.745  14.427   4.690  0.2495  0.0086 -0.1006
27721W        W43795   5.986  15.314  12.817 -0.1568 -0.0762 -0.0364
27722W        W43796  13.334   4.930   2.005 -0.1403 -0.1646 -0.0632
27723W        W43797  14.236  14.033  14.360  0.1059 -0.2341 -0.1322
27724W        W43798  14.773   9.143   3.951 -0.1104 -0.0742  0.1653
27725W        W43799   4.187  16.710   3.732 -0.3110  0.3924 -0.0072
27726W        W43800   0.694   4.624   3.406 -0.1376  0.0563 -0.1540
27727W        W43801  12.127  11.605  13.903 -0.2474 -0.0557 -0.1769
27728W        W43802   2.389  15.886   2.932  0.0782  0.0674  0.0382
27729W        W43803  12.394   8.227   2.048  0.1964 -0.3993  0.4739
27730W        W43804  16.315   5.502   3.712  0.2989  0.1879 -0.0546
27731W        W43805   7.812   7.997  14.250  0.0706 -0.0471  0.0994
27732W        W43806   4.213   0.246  14.201  0.0326  0.1642 -0.0766
27733W        W43807   3.634   7.272  14.998 -0.0497 -0.0757  0.1967
27734W        W43808   2.567  11.199   4.764 -0.0228  0.0938 -0.1686
27735W        W43809  14.175   9.217  16.821  0.1318 -0.3315  0.0737
27736W        W43810   6.419   3.672   0.764  0.0200  0.2492 -0.1666
27737W        W43811  12.859   6.979   1.143 -0.3292  0.1939 -0.3125
27738W        W43812   6.417  14.288   1.398 -0.0198 -0.0382 -0.1039
27739W        W43813   6.033   2.130   4.858 -0.1586 -0.0598 -0.3746
27740W        W43814   0.142   4.039   0.206 -0.1242  0.2614  0.0578
27741W        W43815  13.237   7.175  12.167  0.3089 -0.0130  0.0567
27742W        W43816  10.948   5.440  15.019  0.4227 -0.4176 -0.1266
27743W        W43817   0.885  13.108  14.385  0.1022  0.0852  0.0664
27744W        W43818   9.105  15.127  17.051 -0.3313  0.0762 -0.3089
27745W        W43819   2.028   6.143  15.357  0.1015 -0.0660  0.0660
27746W        W43820  11.208  16.472  16.938  0.3172  0.0721  0.4379
27747W        W43821   6.007   7.622  13.139  0.1583 -0.0537 -0.1376
27748W        W43822   2.488  11.743   4.668 -0.0653  0.0504  0.2724
27749W        W43823  16.739  10.289   2.994 -0.1282 -0.1246 -0.1270
27750W        W43824   5.295  17.669  12.313 -0.0254  0.1112 -0.2140
27751W        W43825  11.571   4.400   1.577  0.1938  0.1781 -0.0157
27752W        W43826  10.601   9.626   0.137 -0.0384  0.0420 -0.1554
27753W        W43827  13.656   8.022   6.137 -0.0688  0.0932 -0.2463
27754W        W43828  11.572  16.304  11.729  0.0597 -0.3026  0.0585
27755W        W43829   0.531  11.989  12.580 -0.0425  0.0875 -0.0047
27756W        W43830   8.585   7.114   3.978 -0.2119 -0.0766  0.1343
27757W        W43831  13.249  11.556  11.840 -0.1086  0.2471  0.0911
27758W        W43832   2.972   0.598  12.484  0.0638 -0.1779  0.1089
27759W        W43833   0.882   9.859   3.273 -0.0051 -0.1448 -0.1399
27760W        W43834  10.227  17.272  13.149 -0.1195  0.0710 -0.0301
27761W        W43835   9.141   7.984  16.926  0.0488  0.1641 -0.2698
27762W        W43836   7.106  17.667  16.765  0.0603  0.0146 -0.1640
27763W        W43837  10.350   9.273   0.972 -0.0282 -0.2370 -0.0929
27764W        W43838  12.512  17.427  12.794 -0.1820  0.1295  0.1301
27765W        W43839   1.132   0.408   5.367  0.1732  0.0555 -0.0214
27766W        W43840  14.421   6.049  14.010  0.4909 -0.0395  0.1311
27767W        W43841   2.225  10.098   0.394 -0.0496  0.0409 -0.3614
27768W        W43842   6.834   2.140   4.539  0.0744 -0.0327 -0.4849
27769W        W43843   8.524   9.386   5.958  0.0324  0.0591 -0.2002
27770W        W43844   3.723   6.506  11.909 -0.0725 -0.1239 -0.0695
27771W        W43845   8.233   8.823   2.062  0.0547 -0.1033  0.3019
27772W        W43846  13.441  13.929   0.966  0.1697 -0.0137 -0.1018
27773W        W43847   7.041  15.886   4.713  0.3114  0.2807 -0.0012
27774W        W43848  11.078   3.513   4.922 -0.3794  0.0020 -0.2920
27775W        W43849   6.338  15.505   4.822  0.1677  0.0136  0.0398
27776W        W43850   8.387  16.213  11.992 -0.3553 -0.2738 -0.0195
27777W        W43851   2.385   1.201   1.968  0.1854 -0.0025 -0.1813
27778W        W43852   8.540  13.670   0.156  0.1400  0.1059  0.1971
27779W        W43853   6.797   9.202  15.188 -0.0109 -0.0042  0.1506
27780W        W43854   5.901  11.800   5.241 -0.0216  0.1781  0.2050
27781W        W43855   1.436   4.370  12.943  0.1150 -0.0787 -0.1801
27782W        W43856   2.573  11.389  15.553  0.2641 -0.2326  0.0160
27783W        W43857   2.822   3.434  13.223 -0.1318  0.0542 -0.0210
27784W        W43858  14.710   1.551  15.019 -0.1934 -0.3170 -0.2730
27785W        W43859   0.411   4.046   4.820  0.1497 -0.3825 -0.0401
27786W        W43860  14.413  12.764  16.370 -0.3441  0.0724  0.1929
27787W        W43861   4.064   6.851  11.936 -0.1836 -0.0685  0.2302
27788W        W43862  15.259   0.162  11.619 -0.0508 -0.0085  0.1734
27789W        W43863  14.686   6.796   2.123  0.2522  0.0486  0.2052
27790W        W43864  11.782   9.003  11.754 -0.1615  0.3129 -0.1620
27791W        W43865   8.795  14.581   1.195  0.2843  0.0072 -0.0117
27792W        W43866  16.076  10.817  13.788 -0.1929  0.0826 -0.0364
27793W        W43867  13.805   6.161   0.398 -0.1457 -0.0485 -0.0671
27794W        W43868   9.826   4.661  16.096 -0.0552  0.0348 -0.2842
27795W        W43869   2.939   7.774   4.460 -0.2679  0.2239  0.1917
27796W        W43870  16.706   5.077   4.513  0.2500 -0.0227  0.2138
27797W        W43871   7.127   0.373  12.657 -0.1574 -0.0590 -0.2096
27798W        W43872   4.810  13.589   2.178 -0.0513 -0.0004  0.1464
27799W        W43873   1.889  12.308  12.042  0.1960 -0.0034  0.1099
27800W        W43874   6.265   5.581   3.361 -0.0845 -0.2865  0.0901
27801W        W43875   7.168  17.696  14.001 -0.0207  0.0714  0.0204
27802W        W43876   8.466  12.205  16.898  0.3310 -0.0250  0.0430
27803W        W43877  10.821  11.547   0.595  0.0520  0.3221  0.2555
27804W        W43878   6.569  11.614  15.843  0.1201 -0.0137  0.2272
27805W        W43879   0.178  13.298   3.996  0.1738  0.1455  0.2529
27806W        W43880  17.024  11.563  15.601 -0.1733 -0.2382  0.1064
27807W        W43881   5.015  17.567   1.572  0.0622  0.0915  0.1323
27808W        W43882  13.957   7.612   4.637 -0.1078  0.3110 -0.0068
27809W        W43883  11.220   6.189  12.309  0.1553  0.1497 -0.0551
27810W        W43884   9.352   6.534   5.218 -0.2122 -0.0805  0.0812
27811W        W43885  11.354  16.369  15.905 -0.1916 -0.3278  0.0291
27812W        W43886   2.625   8.197   4.508  0.1723 -0.2336  0.0327
27813W        W43887   1.313   6.201   4.805  0.0040  0.0388 -0.3521
27814W        W43888   7.155  14.358   0.635  0.1902  0.1057 -0.0985
27815W        W43889  14.906  15.852  14.183 -0.0706  0.0520 -0.3104
27816W        W43890   7.801   3.096  13.288  0.0191  0.1346 -0.1518
27817W        W43891   4.908  14.798   0.970 -0.0807 -0.1260 -0.2482
27818W        W43892  14.545  15.526  14.490 -0.1069 -0.2583 -0.1340
27819W        W43893  13.187   1.139  11.941  0.0160 -0.1147 -0.0428
27820W        W43894   2.499   8.344  15.558 -0.1685  0.0947 -0.2517
27821W        W43895  13.145   3.684  13.998  0.0299 -0.0378  0.0507
27822W        W43896   0.172  13.009  15.093  0.1539  0.0058  0.1121
27823W        W43897   0.462   9.394  13.941  0.0742 -0.3801 -0.1755
27824W        W43898   6.889  12.952  12.960  0.0318  0.0177 -0.1535
27825W        W43899  15.025   7.042  13.579  0.0634  0.1862 -0.1401
27826W        W43900   5.208  13.190  15.448  0.3181  0.3742  0.4471
27827W        W43901   7.646   9.861  15.607  0.3310 -0.0046 -0.0690
27828W        W43902  17.703  10.831  14.901 -0.1632  0.0714  0.0360
27829W        W43903  16.048   6.914   3.929 -0.1256 -0.1616  0.1026
27830W        W43904   7.154   3.379  15.970 -0.0568  0.1397  0.3059
27831W        W43905   3.426   3.585  16.676 -0.0798 -0.0292  0.1635
27832W        W43906  13.925   7.631  12.178 -0.0839 -0.2119  0.0799
27833W        W43907  17.187   2.865   2.503 -0.3418  0.0423 -0.5584
27834W        W43908  10.861   8.363  12.292 -0.1579  0.3020  0.2272
27835W        W43909   1.736   7.077  16.822 -0.0038  0.2047  0.1650
27836W        W43910   1.735   9.876   2.275 -0.2086 -0.2212  0.0370
27837W        W43911  16.003   1.366   2.080 -0.0179  0.2398  0.0506
27838W        W43912   7.518  14.956  12.879 -0.4025 -0.1178  0.0960
27839W        W43913   2.639   8.109   2.606 -0.2152  0.0458  0.3567
27840W        W43914   7.360  10.502  14.889  0.1527 -0.0899  0.2890
27841W        W43915   0.078  10.601  12.555  0.3024  0.0930  0.2003
27842W        W43916  17.036   9.755  11.941  0.1102 -0.4493 -0.1180
27843W        W43917  12.436   5.044   5.496 -0.1876 -0.2922 -0.0708
27844W        W43918  11.695  13.058  11.329 -0.0617  0.0032 -0.1613
27845W        W43919   8.229  11.083  15.673 -0.2995 -0.2337  0.1933
27846W        W43920  16.367  14.854   1.695 -0.1853 -0.0782  0.0981
27847W        W43921   8.487   7.826   5.068  0.1031  0.0521  0.2916
27848W        W43922  12.188   2.183  15.307  0.3240 -0.1982  0.0109
27849W        W43923  15.089  16.183  14.906  0.1000 -0.2659  0.2713
27850W        W43924  13.149  15.764   5.385  0.0370  0.0786 -0.1914
27851W        W43925  12.210   3.223  13.842 -0.3326 -0.2560 -0.0586
27852W        W43926   0.031  16.579  16.425 -0.0895  0.1247  0.1215
27853W        W43927  16.370   0.576  14.795  0.0944 -0.0561 -0.0053
27854W        W43928  11.829  16.447   0.741  0.3455  0.1175  0.3801
27855W        W43929   8.611  12.060   0.989 -0.0059  0.2673  0.0080
27856W        W43930  13.094  16.211  16.589 -0.0006  0.3468  0.0110
27857W        W43931   8.615   2.059   3.555 -0.1939  0.0784 -0.0287
27858W        W43932   6.194  15.458  16.143  0.0421 -0.0699 -0.2591
27859W        W43933   0.002  10.098  12.397  0.1063  0.1364  0.0739
27860W        W43934   4.504   0.461   2.807 -0.3294 -0.1630  0.0110
27861W        W43935   3.352   5.440  16.156 -0.2682  0.0875 -0.1117
27862W        W43936  14.298   6.266  12.409 -0.0043 -0.1763  0.0882
27863W        W43937   5.161   7.456   3.495 -0.4517 -0.2180  0.1858
27864W        W43938   4.726  10.188   3.511  0.0739  0.1129  0.1065
27865W        W43939  11.675   0.608   4.436  0.0697 -0.0206  0.0767
27866W        W43940  11.795   1.471   2.275  0.0803  0.0633 -0.1208
27867W        W43941  17.503   2.855   1.095 -0.1793 -0.1368  0.1966
27868W        W43942  15.811   5.990   5.107  0.0894  0.1089  0.3253
27869W        W43943  13.490   5.797  13.662  0.2061 -0.3402 -0.1672
27870W        W43944   7.407  13.007   5.349  0.1067  0.1850 -0.1388
27871W        W43945   6.904   5.618  12.119  0.0055 -0.0303 -0.1981
27872W        W43946  14.077   6.623   0.467  0.0809 -0.3015 -0.0232
27873W        W43947   4.397  17.200   0.461  0.0777 -0.1418 -0.1268
27874W        W43948   6.174   2.816  15.085 -0.0263  0.5747 -0.0787
27875W        W43949   0.693   5.153   4.254 -0.1716 -0.0561  0.0334
27876W        W43950   3.037   4.590  14.896  0.2033 -0.1503  0.2473
27877W        W43951  12.724   1.531  14.983  0.1458  0.1965 -0.0332
27878W        W43952  16.553   6.139  16.251 -0.1521  0.0346  0.0078
27879W        W43953   9.826  14.696  14.608  0.0373  0.0907 -0.1623
27880W        W43954  12.007  15.602   4.156  0.3807  0.0490  0.0188
27881W        W43955   3.351  17.464  13.429 -0.1828  0.3999 -0.1206
27882W        W43956  14.043   3.237  13.712 -0.1130 -0.0596  0.1672
27883W        W43957   9.058   0.643   4.196 -0.0111 -0.2365 -0.1547
27884W        W43958   5.342  16.856  13.760 -0.1110  0.0403  0.0068
27885W        W43959   4.314  11.717  14.397  0.0876  0.2512 -0.1107
27886W        W43960  17.653  10.670  13.196  0.0428 -0.0694 -0.2135
27887W        W43961  15.936  15.628   1.267  0.0944 -0.1072  0.3903
27888W        W43962  17.692   7.026  14.280 -0.1879 -0.0703 -0.1697
27889W        W43963   9.662  14.249  14.518  0.2018 -0.0711 -0.3232
27890W        W43964  12.305   1.290  16.225 -0.2426 -0.0514  0.0415
27891W        W43965  10.900  14.656   1.105 -0.0594 -0.0110 -0.1982
27892W        W43966   8.501   6.650  16.918  0.0451 -0.0925 -0.3668
27893W        W43967  15.477   3.684   1.222  0.0326 -0.2080 -0.2473
27894W        W43968   3.716   8.403   0.633  0.1178  0.1276  0.0724
27895W        W43969  12.037  13.560   3.970  0.0306  0.3282 -0.1044
27896W        W43970   5.183   6.725  15.477 -0.2532  0.0651 -0.0859
27897W        W43971   6.503  16.133  12.997 -0.1409 -0.4247  0.1930
27898W        W43972  13.792   7.896   5.239  0.0159  0.1504 -0.1791
27899W        W43973   5.943   3.427  13.617  0.1167 -0.2391 -0.0621
27900W        W43974  10.247   8.450  15.889  0.0130  0.1673  0.0790
27901W        W43975   4.452   6.015   1.184 -0.1774 -0.1107  0.0347
27902W        W43976   7.070   3.636  17.062 -0.3736 -0.2492 -0.0667
27903W        W43977  10.751   3.119   4.805 -0.1822 -0.2114  0.0696
27904W        W43978  13.061   3.362  15.212  0.1487  0.2568  0.0191
27905W        W43979   1.627   0.217  13.318 -0.0371  0.1447  0.3027
27906W        W43980   8.699  13.918   3.786 -0.3324 -0.1228 -0.3293
27907W        W43981  14.363   1.966  16.176 -0.1474 -0.2340 -0.2298
27908W        W43982   7.827   6.707  16.211 -0.1837 -0.1735  0.0609
27909W        W43983   8.811  14.107   1.966 -0.2109 -0.1224 -0.1480
27910W        W43984  11.763  16.930   1.381  0.0171  0.3039 -0.3206
27911W        W43985  11.638   0.156   3.472 -0.3121 -0.1818 -0.1815
27912W        W43986  10.715   7.120   0.464  0.0842  0.1238 -0.3287
27913W        W43987   1.280  10.363   6.523 -0.2722  0.5327  0.4380
27914W        W43988   8.529   2.259  14.429  0.1652 -0.1786 -0.0823
27915W        W43989  14.859   9.131   1.364  0.0422  0.0165  0.2549
27916W        W43990   5.015  16.266   4.862  0.0048 -0.1291 -0.0090
27917W        W43991   3.230   1.704  16.655  0.1636 -0.0876 -0.3403
27918W        W43992   5.215   5.870   6.270  0.0255  0.2702  0.0961
27919W        W43993   6.242   2.724   4.334 -0.0864 -0.1944  0.1312
27920W        W43994  11.784   8.480  16.241  0.4121  0.0515  0.1158
27921W        W43995  17.349  15.983   4.404 -0.0048  0.1680 -0.1888
27922W        W43996   3.832   7.246   3.918  0.0812 -0.4905 -0.0750
27923W        W43997   4.349  13.086  16.839  0.1809  0.1009 -0.0542
27924W        W43998  10.042   9.514  11.953 -0.3671 -0.1371 -0.1056
27925W        W43999   2.857  13.980   2.224  0.1252  0.1321  0.1505
27926W        W44000   8.061   9.646   6.098 -0.0740  0.0870  0.1491
27927W        W44001  12.163  16.540  14.781 -0.3198 -0.0105  0.0850
27928W        W44002  12.556   5.096  16.978 -0.0520 -0.3585  0.0299
27929W        W44003   7.243  10.447   0.230  0.1362 -0.2839  0.0648
27930W        W44004   9.010  17.540   5.315  0.1907 -0.2196  0.0430
27931W        W44005   9.577  13.040   4.840 -0.2282  0.0088  0.0628
27932W        W44006  14.305   3.361  12.764  0.0860 -0.1696  0.0144
27933W        W44007   8.683  12.542   2.751  0.0903  0.0587 -0.0167
27934W        W44008   4.832  16.237  12.233  0.5210 -0.0590  0.0778
27935W        W44009  17.424   2.154  13.930  0.2284 -0.2796  0.0774
27936W        W44010  11.626   7.869  17.065  0.0175  0.4786 -0.0142
27937W        W44011   9.055   5.225  16.731  0.2336 -0.3617  0.0997
27938W        W44012   8.281   5.914   0.465  0.0376 -0.0220  0.1991
27939W        W44013   5.894  14.218   0.376  0.2069 -0.1133 -0.1943
27940W        W44014  10.327  11.950   3.156  0.0674  0.0161  0.0846
27941W        W44015  11.029   9.404  15.276  0.4189 -0.0775 -0.0488
27942W        W44016   2.054   6.797  14.462 -0.1554 -0.0879  0.3528
27943W        W44017   8.046   5.811   4.067 -0.1176  0.1352  0.2019
27944W        W44018   2.071  14.153  14.154  0.1098 -0.0618  0.1661
27945W        W44019   7.194   5.452  16.590 -0.2254  0.0634  0.0122
27946W        W44020  10.625  11.202   3.290  0.1542 -0.1264  0.0957
27947W        W44021  17.721   8.540   6.094  0.1810  0.1641  0.0619
27948W        W44022  17.618   1.544  16.196  0.0967  0.0539 -0.0001
27949W        W44023  14.400  11.212   1.693  0.1619 -0.0127 -0.3237
27950W        W44024  12.847  10.531   4.033 -0.0109  0.1683 -0.2605
27951W        W44025  14.400  14.019   2.661  0.2702  0.1626  0.1774
27952W        W44026   4.896   2.691   1.583  0.0794 -0.0141 -0.1294
27953W        W44027  13.283   7.490   2.942  0.0054  0.1103 -0.1400
27954W        W44028  12.202   6.678  15.226  0.1504  0.1338  0.2181
27955W        W44029   3.329  13.844  13.745  0.0351  0.0597  0.2371
27956W        W44030   3.299   2.464  14.031 -0.2183  0.3471 -0.0259
27957W        W44031   0.967   1.548  12.834 -0.2287 -0.1046 -0.0393
27958W        W44032  10.860   6.962  14.853 -0.0281  0.1706  0.0843
27959W        W44033   4.536   1.226   4.968  0.2238  0.1752 -0.0509
27960W        W44034  15.934   9.923  16.501 -0.2851  0.1710  0.0782
27961W        W44035   1.417   7.263   4.109 -0.0951  0.1477  0.0283
27962W        W44036  16.347   8.960   2.952 -0.1833  0.0469  0.1165
27963W        W44037  10.256   9.997   5.177  0.1156 -0.2176  0.1127
27964W        W44038   4.860  13.735  16.322 -0.0164 -0.0273  0.5675
27965W        W44039   8.515  11.705  12.285 -0.1217  0.0989 -0.2738
27966W        W44040   6.858  11.853   1.397 -0.0184 -0.0273  0.0542
27967W        W44041   6.333  14.308  12.560 -0.1114  0.0221  0.1396
27968W        W44042  13.202   4.427  12.195  0.3118  0.2547 -0.3259
27969W        W44043  11.287   0.652   4.118  0.1592  0.1685  0.0095
27970W        W44044  13.782   3.626   0.903 -0.2250  0.0355  0.1378
27971W        W44045   1.801   3.462   3.354 -0.0794  0.0090 -0.0120
27972W        W44046   6.515   0.672  17.092  0.1667 -0.2484  0.0130
27973W        W44047  12.837  16.161  16.146  0.0168  0.2313 -0.1863
27974W        W44048   5.068  11.357  13.044  0.1105 -0.2943  0.2209
27975W        W44049   3.325  10.674   3.390 -0.1551  0.1521 -0.2647
27976W        W44050  15.070   1.471  12.973  0.0341  0.1052 -0.0820
27977W        W44051   2.961   3.491   5.789  0.2555 -0.0329 -0.2758
27978W        W44052  10.097  12.111   5.314 -0.0058 -0.4999  0.1138
27979W        W44053   6.977   1.763   2.685  0.1463 -0.0496 -0.1143
27980W        W44054   8.890   2.579  13.301  0.0118 -0.1577 -0.2273
27981W        W44055  10.976   2.913   6.129 -0.1560 -0.1254  0.1314
27982W        W44056   5.273   2.413  17.086 -0.2749 -0.0541 -0.0448
27983W        W44057  12.364  13.352  14.537  0.0122 -0.0156 -0.0160
27984W        W44058   3.288   7.842  15.065 -0.5775  0.1238  0.0127
27985W        W44059  14.435  16.500  12.628  0.2897 -0.0337  0.0647
27986W        W44060  17.663   5.792  15.061 -0.2517 -0.3313 -0.1316
27987W        W44061  14.594  16.658  16.645  0.0975  0.0354 -0.1506
27988W        W44062   7.195  14.602   1.396 -0.2502  0.0424 -0.0356
27989W        W44063  15.184  11.446   3.122  0.0304  0.1156 -0.0761
27990W        W44064  13.270  12.289   3.655 -0.0114 -0.1568  0.1672
27991W        W44065   3.129   5.139   1.789  0.0643  0.2707 -0.1327
27992W        W44066  10.074   6.833  14.241 -0.1434 -0.0869  0.0561
27993W        W44067  13.226  15.256   1.495 -0.1303  0.1961 -0.1383
27994W        W44068   9.435  14.548   6.482 -0.4746  0.0641  0.2349
27995W        W44069   3.975   1.603   1.340  0.0538 -0.1068 -0.1631
27996W        W44070  15.317  10.361   0.275 -0.0575 -0.0247 -0.2800
27997W        W44071  16.021   9.974   3.564 -0.1330  0.0226  0.0990
27998W        W44072   5.807   1.381  12.711 -0.3566 -0.2222  0.0868
27999W        W44073   3.992   6.572   4.873 -0.1182  0.1631  0.0263
28000W        W44074  16.236  16.937   2.430  0.1277  0.2316  0.0772
28001W        W44075  13.518   0.679   5.743  0.1217  0.1033 -0.2386
28002W        W44076  10.803   7.410   4.548 -0.2803  0.1536  0.2959
28003W        W44077   3.678  16.239  15.212 -0.0176 -0.1510 -0.3130
28004W        W44078   1.631  13.177  16.915  0.2597 -0.0061  0.0094
28005W        W44079   1.295   9.383   3.096 -0.0883 -0.1958 -0.2954
28006W        W44080   9.088  16.292   1.052 -0.2729  0.1694 -0.4587
28007W        W44081   0.256   7.667   4.017 -0.0234 -0.0950  0.4037
28008W        W44082  15.413  14.663   4.448  0.0066  0.0549  0.1489
28009W        W44083  15.582   8.985   3.891  0.0396  0.3182 -0.1391
28010W        W44084   3.351   7.426  12.218 -0.2445  0.1453  0.0884
28011W        W44085  16.163   4.857   1.369 -0.2512 -0.1233  0.1762
28012W        W44086   9.971  17.166  14.151  0.0629 -0.3232 -0.1749
28013W        W44087  16.964   1.647  16.681  0.2835 -0.5658 -0.0812
28014W        W44088  15.298   2.316   4.670  0.0296 -0.1599  0.0028
28015W        W44089  14.932   1.982   4.767 -0.0562 -0.0336 -0.0448
28016W        W44090   3.587  16.607   3.470 -0.0188  0.2435  0.0487
28017W        W44091   7.338   4.516   1.342  0.1884 -0.0465 -0.1775
28018W        W44092   3.999   0.737  17.126 -0.0956  0.0051  0.0107
28019W        W44093   0.902   2.211   2.135 -0.0988 -0.0142  0.0298
28020W        W44094  13.890   3.269   0.078 -0.0731 -0.0515 -0.0938
28021W        W44095   0.651   7.796   2.864 -0.1237  0.2048 -0.0777
28022W        W44096  13.680  13.413  14.239  0.2639  0.1319  0.0610
28023W        W44097  11.473   5.866  12.746  0.1445 -0.1190  0.4111
28024W        W44098  14.779   8.153   2.141  0.3609 -0.1672  0.0000
28025W        W44099   8.150   6.163   3.151 -0.3451 -0.1131  0.3097
28026W        W44100   6.584   0.140  11.812  0.0336 -0.0551 -0.2639
28027W        W44101   0.317   0.783   5.794  0.0633 -0.0777  0.2819
28028W        W44102  15.028  15.770   5.901 -0.1644  0.1621  0.0164
28029W        W44103   4.228  15.286   5.463  0.2202 -0.1343 -0.1212
28030W        W44104  15.604  16.132   1.140  0.0338  0.1304  0.0486
28031W        W44105   6.642   0.991   5.506 -0.1350  0.0847  0.0678
28032W        W44106  12.281   6.343  16.417 -0.3599  0.3621  0.2228
28033W        W44107   9.038   7.317  15.775 -0.3789  0.0335  0.6410
28034W        W44108   3.689   6.291  13.790 -0.0415  0.2890  0.2473
28035W        W44109  11.744  11.971   2.504 -0.1436  0.0214  0.2353
28036W        W44110   3.541   6.392  16.704  0.1518 -0.2505 -0.0126
28037W        W44111  12.300  15.379   5.915  0.0074  0.1198 -0.1691
28038W        W44112  11.576   9.211  16.872  0.0062  0.0219  0.0398
28039W        W44113   9.665   4.857  14.426  0.2279 -0.0767 -0.0105
28040W        W44114  16.030  12.974  12.506  0.1388  0.0500  0.1189
28041W        W44115  11.949  11.064  15.690  0.3310 -0.1774  0.1776
28042W        W44116  14.331  10.208   1.378 -0.1894 -0.2564 -0.1960
28043W        W44117   4.869  16.821  13.999  0.0974  0.1952 -0.0639
28044W        W44118   9.403   4.964   3.440 -0.0517  0.1996 -0.0192
28045W        W44119   0.075   0.360   5.061  0.0816 -0.1698  0.3127
28046W        W44120  16.748  12.947  11.897 -0.1908 -0.0009  0.1540
28047W        W44121  17.401   6.746   3.973 -0.2718 -0.0318  0.1203
28048W        W44122   9.122  13.037  14.357  0.0289 -0.1394 -0.3259
28049W        W44123   0.147  13.636  16.377 -0.1006 -0.1767 -0.0504
28050W        W44124  11.228   4.815   4.176  0.0538  0.1810  0.2335
28051W        W44125  17.732   4.278  11.821 -0.2036 -0.1444 -0.0216
28052W        W44126  16.066  11.851  13.181 -0.1025 -0.1225  0.1042
28053W        W44127  11.745   8.686   2.393  0.1903 -0.4202 -0.0293
28054W        W44128   6.496   7.184  15.893  0.0841  0.0269 -0.0507
28055W        W44129   1.743   3.251   4.483 -0.0301  0.1225  0.0731
28056W        W44130  10.949   6.422  11.796 -0.0547  0.2522 -0.2195
28057W        W44131   0.197  16.204   1.569  0.2015 -0.1277  0.1563
28058W        W44132  13.879   3.167  15.354 -0.1900  0.1416 -0.0885
28059W        W44133  14.693   7.108  16.342 -0.2189  0.0316 -0.1420
28060W        W44134   9.935   6.491   5.571  0.0705 -0.0078  0.1505
28061W        W44135   3.335   3.713  13.664 -0.1506  0.1236  0.0286
28062W        W44136   2.139   7.210  14.834  0.0956 -0.2286  0.0867
28063W        W44137  11.110   4.406   1.296  0.5073 -0.2551  0.2935
28064W        W44138   6.469  15.065  14.352  0.0466  0.0199 -0.0388
28065W        W44139   8.278  11.914   4.678  0.0712 -0.1024 -0.1956
28066W        W44140  15.081   8.922  13.605 -0.0117  0.0670  0.1626
28067W        W44141  17.523  12.547   5.140  0.1848  0.1501 -0.2031
28068W        W44142  11.728  12.779   4.035 -0.4120 -0.0993  0.0222
28069W        W44143  12.227  12.498   3.175  0.1017  0.0956 -0.0755
28070W        W44144   5.395   1.315  11.533 -0.0427  0.3364 -0.1931
28071W        W44145   3.883   0.318  13.068  0.0706 -0.0315 -0.0013
28072W        W44146   8.450   7.584  16.992  0.0583 -0.2223 -0.3574
28073W        W44147   6.827  17.032  16.679 -0.1338 -0.1219 -0.2384
28074W        W44148  15.291   0.418  12.612 -0.0329 -0.1155 -0.1215
28075W        W44149  12.703   1.192   1.967  0.0249  0.0671 -0.1557
28076W        W44150   2.221  16.099  13.112 -0.1126  0.2337 -0.2014
28077W        W44151  16.832  15.776   2.626  0.0986  0.0563  0.0959
28078W        W44152  12.522  17.128   5.191  0.4422  0.1239  0.0563
28079W        W44153  14.831   4.499  13.731 -0.0158  0.1863  0.2568
28080W        W44154  14.399   5.329   1.563 -0.1965  0.1733  0.3686
28081W        W44155  13.375   5.174   3.433 -0.1706 -0.1817  0.2882
28082W        W44156   4.566   0.989  17.151  0.0818  0.4338 -0.0540
28083W        W44157   6.600   6.336  13.300 -0.0730 -0.1201  0.1594
28084W        W44158   0.296  15.147  15.055 -0.1498  0.1740  0.1157
28085W        W44159   2.654   1.722  13.235 -0.0598 -0.1080 -0.2106
28086W        W44160   0.649  10.114   4.633 -0.0185  0.0087  0.1438
28087W        W44161   9.507   8.569   4.418 -0.0715  0.0673  0.0256
28088W        W44162  13.003  13.000  12.633 -0.1863 -0.1675 -0.2449
28089W        W44163   8.678   9.995   1.396  0.1776 -0.0602 -0.2271
28090W        W44164  10.305  17.542  12.746 -0.1188  0.4029 -0.2066
28091W        W44165  17.685  11.562   6.158 -0.0876 -0.0422 -0.0754
28092W        W44166   0.706   7.416  11.887 -0.3327 -0.1805  0.3401
28093W        W44167   2.108   1.002   3.299  0.3649 -0.1914  0.1667
28094W        W44168   7.842   3.310   1.765  0.2002  0.0132 -0.1528
28095W        W44169   8.674   2.311   2.614 -0.0738  0.0208  0.0677
28096W        W44170   9.413  17.600   2.793 -0.1055 -0.0211  0.0261
28097W        W44171  12.000   9.663  10.992 -0.0080 -0.0595  0.0799
28098W        W44172   1.640   5.770   5.614  0.2367 -0.3214  0.1768
28099W        W44173   7.565   8.432  11.933  0.0123 -0.2150  0.0346
28100W        W44174   2.867   6.725   0.428  0.1368 -0.2467  0.1455
28101W        W44175   9.097   8.566  14.784 -0.0936 -0.2675  0.0409
28102W        W44176  12.759   1.659   2.725 -0.0118  0.0906 -0.3242
28103W        W44177   1.902  11.677   3.975  0.0124 -0.0017 -0.0749
28104W        W44178   8.325  15.350   0.087 -0.3523 -0.0065 -0.1241
28105W        W44179  11.219   6.325  12.843  0.3259 -0.0710 -0.0411
28106W        W44180   2.103  15.476   2.813 -0.1852  0.1296  0.0513
28107W        W44181   3.458   6.043   6.109  0.2487 -0.2689  0.2107
28108W        W44182   9.290   9.088  14.735 -0.0668 -0.0933  0.3075
28109W        W44183   1.279   4.028   5.067  0.0242  0.0368  0.1779
28110W        W44184  15.820  13.663  15.841  0.0535 -0.2928 -0.2706
28111W        W44185  14.431   7.682   3.086 -0.3318  0.1679 -0.1943
28112W        W44186   4.414  16.601  15.269  0.3078 -0.1061 -0.2093
28113W        W44187  14.936  17.092   4.237 -0.1575 -0.1491  0.0366
28114W        W44188  11.477   5.351   6.820  0.0279 -0.0037 -0.0386
28115W        W44189  15.500   4.962   2.236 -0.1664 -0.4284  0.1972
28116W        W44190   1.528  12.154   3.699 -0.1499  0.1979 -0.0626
28117W        W44191  10.568  13.848   6.274  0.1865 -0.2692  0.0065
28118W        W44192  16.487  16.292   1.679 -0.0857  0.0922 -0.2044
28119W        W44193   1.144   1.566   6.850  0.0473  0.0414  0.0832
28120W        W44194   1.424   6.013  14.469 -0.0349 -0.3433 -0.1596
28121W        W44195  13.095  16.401   1.296  0.0294  0.1410  0.0642
28122W        W44196   9.332   5.600  16.500 -0.3966  0.0129 -0.1362
28123W        W44197   1.105   4.739   0.443  0.0963 -0.0697  0.1654
28124W        W44198  12.465   9.226  13.099 -0.0874  0.2077  0.1148
28125W        W44199   0.907   0.706  16.490 -0.0903  0.1450 -0.0787
28126W        W44200  15.586   9.588   6.434  0.0363 -0.1722 -0.0387
28127W        W44201   3.762  15.047   2.897 -0.2260  0.0077  0.0747
28128W        W44202   7.437   6.857   3.157  0.4591 -0.2395 -0.0430
28129W        W44203   2.693   1.590   2.878 -0.0842 -0.1816  0.2147
28130W        W44204   3.296  14.387  16.761 -0.2191  0.2487 -0.1770
28131W        W44205   4.521   2.846   4.009  0.0261 -0.0382 -0.2502
28132W        W44206   4.278   0.201  16.036 -0.1925  0.0523 -0.2858
28133W        W44207   0.599   4.908   0.380  0.2065 -0.0134  0.2038
28134W        W44208   2.261   0.908   4.227  0.1706 -0.0523 -0.0892
28135W        W44209   2.460   7.520  16.214  0.2856  0.1397 -0.0358
28136W        W44210   3.266  14.312   4.804 -0.0815  0.0924 -0.0771
28137W        W44211   1.918   2.030   2.211  0.2527 -0.0379  0.0733
28138W        W44212   3.076   4.599   3.990 -0.3095 -0.0853 -0.0977
28139W        W44213  10.187   6.830   4.121  0.1315  0.3560 -0.0072
28140W        W44214  16.832  17.080   0.797 -0.0166 -0.1944  0.1416
28141W        W44215  11.540   5.815   3.452 -0.0502 -0.1286  0.1252
28142W        W44216   4.240  14.776  13.609  0.0970  0.0633  0.1089
28143W        W44217  14.547  13.486  14.217 -0.2947  0.1657  0.2456
28144W        W44218   1.403  11.897  15.449 -0.2396 -0.4341  0.0105
28145W        W44219   7.112   1.463   5.209 -0.0983 -0.2300 -0.2142
28146W        W44220   9.245   6.797  12.788 -0.0775 -0.1708 -0.0726
28147W        W44221  14.915   9.914  13.673  0.0132 -0.0539  0.1491
28148W        W44222   4.249  15.975   0.703 -0.1439  0.2095  0.0419
28149W        W44223   9.233   3.819   5.950  0.1249 -0.0402 -0.1128
28150W        W44224   9.630   9.586   5.685  0.3241 -0.0271  0.3917
28151W        W44225   7.560   5.713   4.169  0.0108  0.3334  0.1697
28152W        W44226  17.585  11.169   1.933  0.1948  0.0994 -0.0452
28153W        W44227   6.719  11.986   4.034 -0.3791  0.4288  0.0877
28154W        W44228  13.949   6.536  15.016 -0.0663  0.0069 -0.2600
28155W        W44229  13.124  11.098  13.659 -0.2964  0.4017  0.1922
28156W        W44230  13.676   1.717  15.053 -0.1655  0.2000 -0.2355
28157W        W44231   8.726   6.039   5.336 -0.1952 -0.1940  0.1644
28158W        W44232  16.664   5.606  13.477 -0.0497  0.4505 -0.0733
28159W        W44233  13.261  13.353  15.513 -0.0569  0.1233  0.0646
28160W        W44234   2.139   0.390   4.054  0.0764 -0.3757  0.1101
28161W        W44235  10.138  12.848  15.309 -0.3621 -0.1132 -0.2587
28162W        W44236   8.067  17.233  14.228  0.0515 -0.0829 -0.0392
28163W        W44237   1.308  10.405  12.688  0.2082  0.0934 -0.0545
28164W        W44238   5.946   5.619  16.544 -0.0334  0.2143 -0.0641
28165W        W44239   7.274   8.391   6.148  0.1064 -0.1152  0.2063
28166W        W44240   7.483  16.912   1.868  0.1371  0.2245  0.1100
28167W        W44241   4.559  14.420   0.315  0.1703  0.0549 -0.0798
28168W        W44242  11.401  14.620   2.645  0.1175 -0.1931 -0.2187
28169W        W44243   2.066   9.258   4.417 -0.0684  0.2096  0.0565
28170W        W44244   8.266   8.560  16.983  0.3057 -0.0152  0.2622
28171W        W44245   2.149   1.641  14.313  0.2149 -0.2274  0.4282
28172W        W44246   4.860   5.150  14.985 -0.0415  0.1889 -0.1052
28173W        W44247  10.269   3.250   1.768 -0.4270  0.0822 -0.1223
28174W        W44248   6.598   4.491   1.049  0.3101  0.2781 -0.1011
28175W        W44249   3.850   2.473  13.224  0.0820 -0.0386 -0.3053
28176W        W44250   3.886   9.816   3.320  0.3948 -0.2357 -0.0334
28177W        W44251   5.253  11.832   1.632  0.1262  0.0241 -0.2206
28178W        W44252  11.177  15.399  14.603 -0.0851 -0.0053  0.2435
28179W        W44253   2.573  12.076   0.409 -0.0175 -0.0125  0.1215
28180W        W44254  15.237   3.941   2.943  0.0602 -0.0562  0.4697
28181W        W44255  16.967   2.842   4.124 -0.0153 -0.0611  0.0854
28182W        W44256  11.634   4.005  14.048  0.1444  0.2691 -0.0833
28183W        W44257   0.761   6.290  15.528 -0.0429  0.2431  0.0262
28184W        W44258   3.140   4.084  12.184 -0.1405  0.2007 -0.2969
28185W        W44259  13.391   3.191   1.752  0.0775 -0.0176 -0.2251
28186W        W44260   4.565  13.960  15.499  0.0415  0.1048  0.0158
28187W        W44261   8.534   8.488   1.778 -0.0008 -0.1051 -0.1166
28188W        W44262   6.524   3.769  16.999  0.3146 -0.0177 -0.0510
28189W        W44263   4.512   2.842  11.073 -0.1423  0.0444 -0.4824
28190W        W44264   1.568   7.420  15.718  0.0222  0.0789 -0.0089
28191W        W44265   5.649  17.369   1.524  0.0690 -0.3055 -0.2346
28192W        W44266   4.044   7.438  15.625 -0.3020  0.2342  0.0124
28193W        W44267  16.510   9.635  16.242  0.1941 -0.1917  0.0608
28194W        W44268  16.975  12.677   1.733  0.1709 -0.0012 -0.4339
28195W        W44269   8.332  12.159   2.004 -0.1540 -0.1980  0.1045
28196W        W44270   1.157  14.130  16.674  0.1023  0.0636  0.1067
28197W        W44271   4.713   0.617  11.972  0.1409 -0.1030  0.0771
28198W        W44272   6.693   3.017   4.081 -0.5586  0.1748 -0.1252
28199W        W44273   3.477  17.607   0.495  0.0098 -0.2476  0.0959
28200W        W44274   8.181   7.803   3.358 -0.0193 -0.1564 -0.1104
28201W        W44275   3.355  10.788   2.159 -0.0657 -0.1412  0.1388
28202W        W44276   0.158   6.967   0.719  0.1069  0.3534 -0.1282
28203W        W44277  10.809  10.242  16.399 -0.0176 -0.0434  0.3407
28204W        W44278   7.140  15.756  15.941  0.2525 -0.0388  0.2397
28205W        W44279   4.291  12.673   3.641 -0.4776  0.4265  0.2319
28206W        W44280   9.046   0.832   3.694  0.0615 -0.0044  0.1525
28207W        W44281   3.789  17.007   3.556  0.0342 -0.2990 -0.0173
28208W        W44282   6.127  13.356   4.900  0.1462 -0.2261  0.1784
28209W        W44283   2.851  11.671   2.172 -0.1132 -0.2434 -0.2019
28210W        W44284  10.226  16.317  15.231 -0.0718 -0.1090 -0.1467
28211W        W44285  12.209  16.189   4.454 -0.0554 -0.0873  0.0627
28212W        W44286  11.410   8.565   3.707 -0.1436 -0.2460  0.0473
28213W        W44287  12.634   0.032  12.294  0.2421  0.0996 -0.2025
28214W        W44288  10.062   9.898   1.803 -0.1999  0.2008  0.1535
28215W        W44289   1.953   9.384  17.089  0.1746  0.0067 -0.1088
28216W        W44290  12.845   7.813   0.197  0.1377 -0.0516  0.0406
28217W        W44291   8.130   3.638   0.080  0.0062 -0.1868 -0.2750
28218W        W44292   8.195  16.130   3.441  0.0431 -0.1421 -0.1819
28219W        W44293   0.163   1.137  12.270 -0.0206 -0.1321 -0.0938
28220W        W44294   4.251  17.149  15.257  0.0023 -0.0168  0.1991
28221W        W44295   8.860   5.906  14.175  0.2601  0.1179 -0.0214
28222W        W44296   0.641   0.294   5.226 -0.0148  0.4298  0.2221
28223W        W44297   8.606   0.882   1.601  0.1721 -0.0741  0.4570
28224W        W44298   2.030   5.755  13.762  0.1140 -0.1155  0.2430
28225W        W44299   7.560   8.911  12.300  0.2077  0.1292 -0.2020
28226W        W44300  15.165   9.443  14.244 -0.1068 -0.2427 -0.1897
28227W        W44301  17.484   9.198  14.373 -0.1523 -0.0393  0.1778
28228W        W44302   2.605  16.944  14.857  0.2176  0.0679 -0.2324
28229W        W44303  11.976   8.748   0.054  0.0537 -0.4276  0.1343
28230W        W44304   5.589  11.685  16.600 -0.0086  0.0190  0.1425
28231W        W44305   3.434  10.423  15.446 -0.1936  0.1581 -0.0118
28232W        W44306  16.622  14.596  11.852 -0.0198  0.0955  0.2954
28233W        W44307  10.285  16.460   5.619 -0.0027 -0.1548 -0.0908
28234W        W44308   5.325   3.553  16.259 -0.3262  0.0304  0.1787
28235W        W44309   7.255  17.149  15.330  0.0654 -0.0413 -0.2345
28236W        W44310  17.688  17.098  14.257  0.1689  0.0261 -0.2133
28237W        W44311  10.860   9.716  14.197 -0.1104 -0.1037 -0.0936
28238W        W44312   0.380   0.434   4.237 -0.2000 -0.2353  0.1355
28239W        W44313   3.833   6.853  13.080  0.2256  0.2710  0.0772
28240W        W44314   1.794  14.637   5.243 -0.0536  0.0134  0.0456
28241W        W44315   1.662   5.810   3.995 -0.1200 -0.1816  0.1765
28242W        W44316  17.318   4.654  14.752 -0.0073  0.0190 -0.0102
28243W        W44317  11.692   2.851   0.228  0.0837 -0.2329  0.1558
28244W        W44318   0.181  10.010  13.288  0.3676  0.1644 -0.0991
28245W        W44319  14.565   2.049   3.757  0.3347 -0.3109 -0.1636
28246W        W44320   8.210   1.814   6.241 -0.1604 -0.0988  0.0501
28247W        W44321  15.326   2.136  13.457 -0.0594  0.2167 -0.0376
28248W        W44322  14.741   0.011   0.989  0.2611 -0.0485 -0.0989
28249W        W44323  12.274   0.737   3.606  0.0519 -0.2035 -0.2272
28250W        W44324   5.194   2.578  15.311 -0.0657 -0.0226 -0.2680
28251W        W44325  16.264  15.462  16.577 -0.1424 -0.0013 -0.3117
28252W        W44326  15.257  13.540  16.020 -0.1961 -0.1083 -0.1944
28253W        W44327   1.002   0.736   0.284  0.1381 -0.0676 -0.2192
28254W        W44328   5.953   4.267  15.358  0.0670 -0.3064 -0.1109
28255W        W44329   6.502   3.251   4.452 -0.0107 -0.0443 -0.0195
28256W        W44330  15.346  10.530  14.898 -0.2220 -0.0147  0.2437
28257W        W44331  15.497   7.672   3.870 -0.2224 -0.2325 -0.0243
28258W        W44332   6.797  12.363  13.899  0.0350  0.1046  0.0657
28259W        W44333  12.423  16.820  13.625  0.0476 -0.2452 -0.2182
28260W        W44334   9.930  17.628   1.225 -0.1050  0.3785 -0.3905
28261W        W44335  11.257  10.784   2.165 -0.2487 -0.0021 -0.1624
28262W        W44336  11.907   1.957   3.850  0.0703  0.2332 -0.0802
28263W        W44337   6.405  14.656   5.887 -0.2702  0.2829  0.3590
28264W        W44338   1.693  10.463  14.164 -0.2481 -0.2224  0.2685
28265W        W44339   2.014   3.196   5.933  0.1263 -0.0074  0.1035
28266W        W44340   2.299   4.901   1.488 -0.2853  0.0222 -0.0029
28267W        W44341   2.967   3.005  13.391  0.2361  0.0377  0.2249
28268W        W44342  15.870  13.184   4.226 -0.1231 -0.2671  0.0752
28269W        W44343  11.969  10.182   4.393  0.1367  0.2450 -0.2416
28270W        W44344  12.585  17.705   0.791 -0.0092 -0.1650 -0.0166
28271W        W44345   8.616   2.439  13.822 -0.2878 -0.1799  0.1354
28272W        W44346  15.334   3.272   6.610 -0.1772  0.1658  0.0970
28273W        W44347  16.808   9.426  14.798  0.0728  0.3008 -0.0248
28274W        W44348  11.377  14.944   3.999 -0.1937  0.2651 -0.0737
28275W        W44349  15.141  17.716   1.299  0.0317  0.3086 -0.6002
28276W        W44350  10.169   3.372   3.122 -0.0547 -0.2603  0.2204
28277W        W44351  15.454   5.996   1.818 -0.0508 -0.4160 -0.0074
28278W        W44352  10.568   2.700   4.651 -0.0118 -0.4075  0.4118
28279W        W44353   4.663  11.607   3.263  0.1177  0.2009  0.1274
28280W        W44354   8.001   7.139   1.773  0.2179  0.0679  0.0209
28281W        W44355  17.569   3.881   4.009  0.1430  0.2182 -0.1042
28282W        W44356   7.893   8.236  15.247  0.2246  0.0101  0.0379
28283W        W44357   1.058   7.248  14.580 -0.0478  0.5683 -0.0180
28284W        W44358  15.254   0.649  16.483 -0.1767  0.0409  0.1759
28285W        W44359  14.495   5.933   5.103 -0.1799 -0.1601  0.0611
28286W        W44360   5.975  15.378  16.723  0.0531 -0.1530 -0.1448
28287W        W44361   2.574  10.334   0.131  0.1569 -0.0713 -0.1011
28288W        W44362   8.705  14.868   5.534 -0.1467  0.1441 -0.0616
28289W        W44363  15.967  10.536   1.784 -0.1274  0.0210  0.1543
28290W        W44364  10.712  13.696  16.332  0.0166 -0.0359  0.1732
28291W        W44365  13.349   5.066  17.059 -0.3085  0.0063  0.0761
28292W        W44366  17.125  13.704   4.697  0.0594 -0.0396  0.0571
28293W        W44367   4.428   6.634   5.060 -0.1467  0.1522  0.0978
28294W        W44368   3.911  10.643   4.629  0.0080 -0.0170 -0.1813
28295W        W44369   7.398   2.592   3.726  0.1193 -0.1076 -0.2456
28296W        W44370   6.041   4.466   0.380  0.1585 -0.3328  0.0384
28297W        W44371  10.069  16.839  14.513 -0.0886 -0.2322  0.0645
28298W        W44372   9.085   1.823   0.409  0.4142 -0.1415  0.0067
28299W        W44373  13.979  16.172   3.515 -0.2544 -0.3170  0.0352
28300W        W44374  15.873   4.301  16.548  0.0593  0.1186  0.1206
28301W        W44375  16.722   3.928  12.814  0.3783  0.3812 -0.1034
28302W        W44376   0.433   2.214   1.959 -0.1263  0.0647  0.0228
28303W        W44377  13.610   5.049  15.522  0.2713 -0.1848  0.3301
28304W        W44378   6.439   8.864  15.060  0.0072 -0.0254  0.1421
28305W        W44379   7.911   1.081  15.750  0.3041  0.0147 -0.0393
28306W        W44380  14.080   7.497   5.142 -0.0329 -0.1572  0.0276
28307W        W44381  15.178   6.379   4.665  0.0817  0.1427  0.0185
28308W        W44382   8.466  14.634  12.808 -0.0012  0.0031  0.2667
28309W        W44383   5.271   9.886   2.033  0.1190 -0.2366  0.0007
28310W        W44384  12.517   9.183   0.632  0.2414 -0.0690  0.1278
28311W        W44385   8.945  16.703  17.123 -0.1153 -0.1020 -0.1241
28312W        W44386   3.435   1.460   1.990  0.0293 -0.0440 -0.0554
28313W        W44387  15.190  15.812   1.921  0.4092  0.1370 -0.1219
28314W        W44388   6.924   1.488   4.654  0.2280  0.2156  0.3120
28315W        W44389   5.950   9.809   3.365 -0.0138 -0.3451 -0.0687
28316W        W44390  12.947   1.114  13.438  0.1912  0.2724  0.1074
28317W        W44391  10.543  12.707  13.894  0.0046 -0.1222  0.0240
28318W        W44392   2.128  14.879   1.535 -0.0214 -0.0184 -0.0670
28319W        W44393  12.622  17.515   4.545  0.0995  0.1203  0.3007
28320W        W44394  15.438   4.891  14.928  0.0844 -0.2088  0.0354
28321W        W44395  11.739   2.155  13.802 -0.0677  0.2875 -0.0521
28322W        W44396   4.760  10.026  14.032 -0.2323  0.2359 -0.4334
28323W        W44397  10.962  15.003   2.212  0.2140 -0.2070  0.0343
28324W        W44398  15.474  17.540  16.538 -0.2479  0.1232  0.0839
28325W        W44399   1.561   5.965  16.045 -0.1165  0.1793  0.1162
28326W        W44400  12.224   8.549  12.967  0.1025 -0.1717  0.0481
28327W        W44401   1.394   4.810   0.033  0.4505 -0.2471  0.3105
28328W        W44402   5.561  14.213  15.920  0.2176 -0.0978  0.0447
28329W        W44403  11.228   8.151   4.046 -0.1657  0.1439  0.1673
28330W        W44404  12.787  13.279   1.281  0.1202  0.0645 -0.0850
28331W        W44405  13.265  11.868  14.735  0.2782  0.3901 -0.0610
28332W        W44406   0.862  13.636  11.454 -0.3259  0.0211 -0.0291
28333W        W44407  17.437   3.223   1.380  0.1068 -0.1175  0.2316
28334W        W44408  17.283   3.644   6.499  0.0491 -0.0812 -0.0754
28335W        W44409  10.886  16.293  14.637  0.1260 -0.0800 -0.2203
28336W        W44410   5.318   5.772  13.978 -0.1992  0.4933  0.1087
28337W        W44411   4.369   2.912  15.144 -0.1275  0.0377  0.0681
28338W        W44412   9.730   1.674   3.379  0.2566 -0.0929  0.1228
28339W        W44413  13.890   7.927   2.871 -0.1049 -0.1678 -0.0446
28340W        W44414  14.395   5.086  16.716 -0.1931 -0.0863  0.0201
28341W        W44415  16.962   7.263   2.332 -0.2743 -0.1512 -0.1627
28342W        W44416   3.554   1.290  13.776  0.4286  0.2192 -0.3698
28343W        W44417  12.880   2.130  11.728  0.3532  0.2714  0.0445
28344W        W44418   4.079   8.932  11.525  0.1589  0.0006 -0.4727
28345W        W44419   3.734   5.144  13.558 -0.0920  0.1055  0.0170
28346W        W44420   5.317  15.652  14.738  0.0205 -0.1224  0.3008
28347W        W44421   5.225  11.149   3.649 -0.2100  0.3018  0.1719
28348W        W44422  12.614   0.918   0.332 -0.0733  0.2840  0.2678
28349W        W44423   7.536   6.409  12.970  0.0315 -0.0377  0.1793
28350W        W44424  17.687   0.147   4.198  0.0788  0.1236  0.3077
28351W        W44425   0.083   7.525  16.381 -0.0690 -0.1201 -0.0446
28352W        W44426   7.756   3.174  12.553 -0.0493 -0.0026 -0.1539
28353W        W44427   9.747  14.454   2.027 -0.2633  0.0076 -0.2179
28354W        W44428   8.114  11.290  13.784  0.2063 -0.2078  0.3121
28355W        W44429   6.694   9.113   2.374 -0.1276  0.0476 -0.0352
28356W        W44430  15.827  15.391  14.408  0.3150 -0.2227 -0.1818
28357W        W44431  10.630  10.722  16.605  0.1436 -0.0910  0.5537
28358W        W44432   6.113   2.328   2.998 -0.1121 -0.0449  0.0142
28359W        W44433  16.133  10.100   4.955  0.1171 -0.1323  0.0176
28360W        W44434   8.615   6.917  14.314  0.0583 -0.0235 -0.3041
28361W        W44435  12.562   3.683  15.302 -0.0385 -0.1151 -0.1497
28362W        W44436   4.871  17.582   0.316 -0.1281  0.1835  0.0325
28363W        W44437  11.250  14.777  12.388  0.2205  0.1439  0.1379
28364W        W44438   0.652   5.722  12.285  0.1470  0.1660  0.0460
28365W        W44439   6.650   1.565   3.119 -0.1154 -0.1388  0.1155
28366W        W44440  15.216   1.931  11.662  0.4343  0.0118  0.0268
28367W        W44441   2.638  11.398  15.082  0.1217 -0.0952 -0.1055
28368W        W44442  17.028   7.016  16.136 -0.2851 -0.0171  0.0490
28369W        W44443   3.418   5.906   0.610  0.2506  0.3062 -0.3095
28370W        W44444   0.355   3.920   1.828  0.0956 -0.1795 -0.0705
28371W        W44445  16.731  14.653  13.392  0.1767 -0.0408  0.1221
28372W        W44446  17.234  16.380  15.725  0.0452 -0.3673  0.2937
28373W        W44447  11.093   1.622  12.337 -0.1644 -0.0719 -0.0971
28374W        W44448  12.285  13.286   0.336 -0.2388  0.0971  0.2231
28375W        W44449   3.490  14.810  15.353  0.0447 -0.0425  0.0461
28376W        W44450   4.301  15.055   4.220  0.4595  0.3596 -0.1140
28377W        W44451   6.315   9.246   3.687 -0.0850  0.1660 -0.3362
28378W        W44452  16.468  12.249  15.783 -0.0386 -0.1570  0.0533
28379W        W44453  15.932  12.270  14.159  0.1283 -0.0952 -0.1254
28380W        W44454  15.686  17.612   4.729  0.0307  0.5345 -0.0591
28381W        W44455  14.541   3.608  11.787  0.4124 -0.5321  0.3217
28382W        W44456  14.107  13.428   3.985 -0.0718 -0.1441  0.2414
28383W        W44457   3.681   6.462   3.316  0.0751  0.2792 -0.2394
28384W        W44458  10.362   8.983   2.636 -0.3056 -0.1202 -0.0819
28385W        W44459   1.900   9.873  16.968 -0.1887  0.1114 -0.1978
28386W        W44460   5.360   2.205  14.043 -0.0706  0.0467 -0.0022
28387W        W44461   3.716  14.371   2.191  0.1482 -0.0003 -0.2077
28388W        W44462  16.793   7.174   1.084  0.1695 -0.1291  0.0676
28389W        W44463   3.225   2.514   0.096  0.0098 -0.1218 -0.2016
28390W        W44464  14.283  14.529  14.435  0.1997 -0.0013  0.1058
28391W        W44465   0.936   9.188  16.516  0.0797  0.2693 -0.0985
28392W        W44466  14.014  12.978   4.755 -0.0673  0.2294  0.0061
28393W        W44467  11.812   4.228  15.480  0.1541  0.2155 -0.0389
28394W        W44468   6.434   0.242   0.166  0.0086  0.3129  0.0368
28395W        W44469   0.660   2.018   4.074  0.0428 -0.0333  0.1417
28396W        W44470  12.202   6.944   1.768 -0.2074 -0.1495 -0.0255
28397W        W44471   8.946   2.856   1.359 -0.0794  0.1514 -0.1803
28398W        W44472  11.758   5.276  13.643 -0.2107 -0.2207 -0.0629
28399W        W44473  14.384   3.253  14.667 -0.0541  0.1461 -0.0243
28400W        W44474   9.339  12.065  12.654  0.2051 -0.0988 -0.0757
28401W        W44475   5.983  10.600   3.901 -0.0464 -0.1256  0.1449
28402W        W44476  12.397  13.110  16.035  0.2021 -0.0368  0.1432
28403W        W44477  14.603   6.728  16.749  0.1508  0.1310  0.2407
28404W        W44478   4.868  14.600   3.460 -0.0644 -0.2081  0.2452
28405W        W44479  12.830  10.487  16.822 -0.2722  0.0220 -0.1318
28406W        W44480   2.249   9.937   1.968 -0.1144 -0.1142 -0.0328
28407W        W44481  14.906   4.891   1.650 -0.1855 -0.2012  0.0619
28408W        W44482  17.048   5.238   2.369 -0.1127  0.0864 -0.2622
28409W        W44483  14.218  16.664   5.275 -0.0650 -0.1992 -0.2793
28410W        W44484  15.781   2.478  16.152  0.2216  0.1909 -0.2055
28411W        W44485  16.899  12.843   2.230 -0.0069  0.0316  0.0523
28412W        W44486   8.840   6.219  16.819 -0.3045 -0.2078  0.0546
28413W        W44487  15.840  12.514   5.021 -0.2976 -0.1773  0.1362
28414W        W44488  10.912   9.542  13.255  0.2324 -0.1041 -0.1559
28415W        W44489  14.889  15.065   3.288  0.0524 -0.3045 -0.0829
28416W        W44490   1.574   2.863   0.244 -0.1556 -0.1399 -0.0820
28417W        W44491  14.132   5.582   4.810 -0.1355 -0.0663  0.2867
28418W        W44492  15.776  17.629   3.749  0.2438  0.0729 -0.1695
28419W        W44493   5.471   0.058   1.386  0.0591 -0.1598 -0.0978
28420W        W44494  12.415   0.664  12.325 -0.0156  0.1741 -0.1129
28421W        W44495  14.514   1.298   0.554 -0.1288  0.1292 -0.1851
28422W        W44496  14.566  13.970  13.232 -0.1341 -0.1791 -0.0841
28423W        W44497  10.230   3.592  15.424 -0.0167 -0.0241  0.0863
28424W        W44498  10.840  12.002   2.372 -0.0626  0.1204  0.1037
28425W        W44499   5.389   3.477   1.136 -0.1815 -0.0843  0.1500
28426W        W44500   0.178  11.257   0.866 -0.1804  0.2392  0.1970
28427W        W44501  13.458   4.772   4.561 -0.1392  0.0713  0.0666
28428W        W44502   2.345   4.543   5.770  0.1211 -0.0423  0.0062
28429W        W44503   8.277   4.276  12.738  0.0778  0.0085 -0.0948
28430W        W44504   1.527   8.614  12.820 -0.1142  0.1854  0.0036
28431W        W44505   7.883   9.420  14.487 -0.1970  0.0351 -0.1309
28432W        W44506  16.290   7.676   0.096 -0.1138 -0.1768 -0.0826
28433W        W44507   5.427   5.522  14.467  0.1757 -0.1675  0.0433
28434W        W44508   0.666  11.887   4.215  0.1900 -0.1475 -0.2503
28435W        W44509  12.453   7.856   4.499  0.0460 -0.1734 -0.1713
28436W        W44510   0.038   5.429   3.118 -0.2293 -0.1263 -0.0531
28437W        W44511  13.081  15.885  11.962  0.0427 -0.0586 -0.5096
28438W        W44512   6.439   0.604  13.789 -0.1513 -0.2063 -0.1255
28439W        W44513  15.239   6.848   4.801 -0.0852 -0.2401 -0.1370
28440W        W44514   7.107   5.617   4.935  0.2279 -0.0352 -0.2306
28441W        W44515  13.690   9.278   5.590  0.1858  0.1434  0.0576
28442W        W44516  13.823   3.558   2.493  0.2162  0.0158 -0.1729
28443W        W44517  11.595  14.322  14.992  0.3275  0.4239 -0.1155
28444W        W44518  11.612   6.807   1.061 -0.1581 -0.1243 -0.5273
28445W        W44519   0.527  14.274  15.625 -0.3583  0.2578 -0.1137
28446W        W44520   3.088  15.795   0.525  0.0542 -0.1752  0.1251
28447W        W44521   1.143   3.208  12.909  0.1887 -0.2910 -0.2015
28448W        W44522   8.439   0.598   0.786 -0.0512 -0.1816  0.1461
28449W        W44523   8.404  15.435   2.483  0.3109  0.1096  0.0592
28450W        W44524  13.771  10.794   6.330 -0.2922  0.2468  0.0132
28451W        W44525  10.928  15.139  15.754  0.0331  0.0600 -0.3033
28452W        W44526   8.482  16.660  16.941  0.0890 -0.0504 -0.2955
28453W        W44527   3.779   2.284  16.240 -0.1436 -0.1008  0.2114
28454W        W44528   4.404   7.047   2.237 -0.2055 -0.4708  0.2294
28455W        W44529  12.323  16.736   6.238 -0.1535  0.0936  0.2237
28456W        W44530  12.612  15.647  14.795 -0.5902 -0.0946 -0.0056
28457W        W44531  15.020   5.669   2.784  0.0250 -0.1181  0.0793
28458W        W44532   0.467  16.569  14.859 -0.1669 -0.0287 -0.1154
28459W        W44533   7.045  14.058  13.487 -0.0007 -0.0528 -0.1810
28460W        W44534  14.289  14.802   2.480 -0.2213  0.2787  0.1946
28461W        W44535  17.660   2.463   4.870 -0.0250  0.0258  0.1891
28462W        W44536  11.005   3.155  17.106  0.0531  0.0978 -0.0997
28463W        W44537   4.944   7.722  12.334 -0.2345  0.0233 -0.0296
28464W        W44538   9.278   5.413   2.025  0.1139 -0.1106 -0.0039
28465W        W44539   9.128  10.751  15.425  0.3427 -0.1306 -0.0446
28466W        W44540   3.919   2.389   5.140  0.3471  0.2497 -0.0074
28467W        W44541   7.413   4.251   4.243  0.3910  0.1658 -0.2137
28468W        W44542  12.055   1.615   1.395 -0.3437 -0.0721 -0.1122
28469W        W44543   4.667  11.508   1.355 -0.1970 -0.3109 -0.0522
28470W        W44544   7.834   3.339   0.744  0.0566  0.1699 -0.3314
28471W        W44545   6.141  13.148  13.023 -0.2389 -0.0959 -0.3116
28472W        W44546  16.653   9.960  13.842 -0.1060 -0.0168 -0.1783
28473W        W44547  17.065   5.151  14.683 -0.2764 -0.1907  0.1441
28474W        W44548   0.226  11.307   4.525 -0.0710  0.0503 -0.0544
28475W        W44549  12.389  16.786  15.629  0.0348 -0.2890  0.4855
28476W        W44550   3.123  11.053   0.401  0.0735  0.3046  0.1800
28477W        W44551   2.671   3.867   3.598  0.1388  0.1850 -0.0984
28478W        W44552   0.371   4.600   2.947  0.1927 -0.1102  0.1388
28479W        W44553   0.547   7.935  11.761 -0.0844  0.0698  0.0985
28480W        W44554   6.827   5.373  13.042 -0.0367  0.1450 -0.2712
28481W        W44555   4.081   9.434   5.506  0.0011  0.4355 -0.1142
28482W        W44556  14.467  11.296  14.610 -0.1060  0.1049 -0.0177
28483W        W44557  14.925  15.671   5.426 -0.0294  0.0193 -0.2164
28484W        W44558   0.753  10.989  13.075  0.0608  0.1836  0.1124
28485W        W44559  13.153   5.162   4.778  0.4593 -0.1583  0.0976
28486W        W44560   5.180  15.355  13.505  0.0694 -0.2753 -0.0216
28487W        W44561   3.403   9.733  17.095  0.0020  0.1475  0.0200
28488W        W44562  12.699  14.611   5.485  0.0472 -0.2209  0.0383
28489W        W44563   3.440   0.567  14.359 -0.0674  0.0848  0.2112
28490W        W44564   3.288   4.564  12.628 -0.0406 -0.1235  0.0159
28491W        W44565   0.559   1.371   2.827  0.0983  0.0127 -0.0569
28492W        W44566   5.410   1.122   5.157 -0.0542  0.0104 -0.1041
28493W        W44567  10.775   7.520   0.173 -0.2997 -0.1681 -0.0478
28494W        W44568   2.380   8.551   2.667  0.0701 -0.0630 -0.0562
28495W        W44569  12.448   6.778  12.265  0.1022 -0.0207  0.0340
28496W        W44570   9.819   9.416   4.026 -0.2228  0.2766  0.1274
28497W        W44571   6.225  17.716  12.158  0.3102  0.0603 -0.0699
28498W        W44572   3.013  10.402   4.325  0.0020  0.2219 -0.1085
28499W        W44573  11.787  14.136   2.198 -0.0861  0.2951  0.1693
28500W        W44574  14.888   7.553   1.470 -0.2198  0.1976 -0.0507
28501W        W44575   5.519   4.035   1.285 -0.1177  0.3133 -0.1929
28502W        W44576  13.501  14.867   6.225  0.0524 -0.3097 -0.1148
28503W        W44577   1.077   6.779  14.800 -0.0685 -0.4420 -0.1125
28504W        W44578  10.010   5.893  15.912 -0.0678  0.2467 -0.0236
28505W        W44579  12.944   1.999  13.831  0.3840  0.0321  0.3403
28506W        W44580   5.980  14.865  17.071 -0.1571 -0.2513 -0.1476
28507W        W44581   6.927   4.382  12.064  0.1444 -0.2100 -0.0724
28508W        W44582  11.834  11.973   0.443  0.2321 -0.1270 -0.1200
28509W        W44583  13.713  14.093   1.363  0.0043 -0.2563  0.2182
28510W        W44584   3.513   0.520   0.419  0.1250 -0.1699 -0.0048
28511W        W44585  16.732   4.310  14.166  0.4235  0.0577 -0.2024
28512W        W44586   9.937   3.889   2.258 -0.1031  0.2136  0.0594
28513W        W44587  13.378  17.103   0.439 -0.0251 -0.3927  0.3025
28514W        W44588  17.017  14.240  14.143 -0.0276  0.2466 -0.1211
28515W        W44589  13.921   8.597  13.807 -0.0023 -0.0895 -0.1205
28516W        W44590   3.318  13.586  17.071  0.3532 -0.0521  0.1280
28517W        W44591   4.148   4.684  14.597  0.0823 -0.1930  0.0787
28518W        W44592   5.976  15.269  11.249 -0.2766 -0.0807 -0.4025
28519W        W44593   0.241  10.192   6.252 -0.3092  0.0984  0.1464
28520W        W44594   1.406   6.581   2.793  0.0741 -0.1753 -0.1158
28521W        W44595   3.061   4.780  15.751 -0.1615 -0.0773 -0.0701
28522W        W44596   0.731  15.466  16.380  0.1672 -0.0513  0.1235
28523W        W44597   2.561   5.141  14.055  0.2544 -0.1418  0.2495
28524W        W44598  15.920   7.665  15.630  0.1286 -0.0808 -0.2059
28525W        W44599  12.681   2.266  14.164 -0.0457  0.2033  0.1640
28526W        W44600   6.348  10.891   5.171  0.0029  0.1525 -0.1022
28527W        W44601  10.099  15.102   3.949  0.0109 -0.2229  0.0076
28528W        W44602  16.429   8.896   0.684 -0.3538  0.2121  0.2507
28529W        W44603   4.053   5.152  14.518  0.0498  0.0861  0.1684
28530W        W44604  11.376   8.749  16.086 -0.2322 -0.0320 -0.1169
28531W        W44605  13.736  12.145  15.482  0.2266 -0.0838  0.0315
28532W        W44606   8.693   9.173   6.379 -0.0582  0.3056  0.1208
28533W        W44607  13.630  16.528  15.983 -0.1521  0.1868  0.1146
28534W        W44608   8.998  13.814   5.951  0.0611  0.3151  0.0340
28535W        W44609   9.692   6.735   1.126 -0.1635  0.2086 -0.2980
28536W        W44610  15.442  16.062   2.518  0.0619  0.0019 -0.2389
28537W        W44611   0.250  10.445   2.899  0.0168 -0.0275  0.2789
28538W        W44612  10.289  12.050   3.758 -0.2270 -0.1919  0.4389
28539W        W44613  16.883  10.831  16.950  0.1614 -0.0403  0.0885
28540W        W44614   5.393  16.822  12.678 -0.1328  0.4117  0.3157
28541W        W44615  16.903   5.627  13.910  0.2644  0.0359 -0.2778
28542W        W44616   2.748  17.164  12.549 -0.1739 -0.1312  0.0593
28543W        W44617  11.904  12.102  14.535 -0.0944 -0.1244  0.0224
28544W        W44618  15.680   9.434  16.607 -0.0545 -0.0855 -0.2470
28545W        W44619  11.929  11.601  12.992  0.0786  0.0008  0.1410
28546W        W44620  11.917   9.148   2.230  0.0576 -0.0179 -0.1020
28547W        W44621  11.741  15.684   6.093 -0.1731 -0.2021 -0.0956
28548W        W44622   7.534   7.297  12.300 -0.1060 -0.0271  0.1514
28549W        W44623   4.498   7.594  15.406  0.0911  0.1405 -0.2305
28550W        W44624  12.260   9.054  14.447  0.1766 -0.0906 -0.2709
28551W        W44625   7.508   6.042   0.090  0.1368  0.1913 -0.0413
28552W        W44626   1.335   4.222  12.449 -0.0132 -0.5745  0.1516
28553W        W44627  14.272  15.044  15.792  0.0679 -0.1426  0.0343
28554W        W44628   8.100  13.017  15.399 -0.2134  0.2405  0.1584
28555W        W44629  12.675  12.727   5.867 -0.0338  0.0832 -0.3244
28556W        W44630  12.000   5.249   3.554  0.0365 -0.0591 -0.1846
28557W        W44631   7.899  11.142  11.692 -0.0161  0.0660 -0.3034
28558W        W44632   3.713  13.188   4.425  0.3222  0.1081  0.2457
28559W        W44633   0.870   4.036  11.750 -0.0434 -0.0212 -0.1939
28560W        W44634  11.763  11.526  13.558 -0.0863 -0.0352 -0.1278
28561W        W44635  15.164  13.623  12.326  0.2978 -0.2157  0.3042
28562W        W44636  13.515  13.722  16.408  0.3100 -0.0438 -0.3292
28563W        W44637   7.321  15.444   2.293 -0.2746  0.0304 -0.1866
28564W        W44638   0.135   5.066  12.160  0.0112 -0.1700  0.1014
28565W        W44639   7.571  13.040   0.153  0.3336 -0.1201 -0.2646
28566W        W44640   3.185   6.241   0.320  0.0573 -0.1581 -0.1074
28567W        W44641  11.166  11.093  11.838  0.0557 -0.1117  0.4657
28568W        W44642   6.908   7.329   2.155  0.0775  0.1378  0.2609
28569W        W44643   9.457   6.297   0.200 -0.0172  0.1125 -0.3851
28570W        W44644   9.630  12.990  16.403  0.0505  0.0671  0.1923
28571W        W44645  16.286   3.185  13.750 -0.0603 -0.3513  0.1573
28572W        W44646  15.509  17.054  14.178  0.2294  0.1014  0.2979
28573W        W44647   5.550  16.969  14.789  0.0100  0.2988  0.3178
28574W        W44648  16.515   6.518  14.710 -0.2008  0.0127 -0.0111
28575W        W44649   4.811   8.521   3.202 -0.1839  0.2836 -0.0082
28576W        W44650  14.366  15.122   2.109  0.0890  0.3018 -0.2067
28577W        W44651  15.898  12.737   3.893 -0.2818  0.2132  0.0383
28578W        W44652   9.345   5.586   5.342 -0.1341 -0.0144 -0.0486
28579W        W44653  15.101   8.555  14.020 -0.0474  0.1447  0.1431
28580W        W44654   9.191   2.325  11.981  0.2613  0.1291  0.1352
28581W        W44655  10.847   1.474  14.617  0.3274 -0.2202 -0.0109
28582W        W44656  16.522   4.524  14.649  0.0043 -0.1511  0.3730
28583W        W44657   5.180   4.799   0.260  0.0838 -0.0596  0.0358
28584W        W44658  11.572  15.629   4.676 -0.1634 -0.0445  0.2481
28585W        W44659  13.340  11.780   4.640 -0.0794  0.0941 -0.4451
28586W        W44660  11.733   0.991   4.735  0.4475 -0.0864 -0.0716
28587W        W44661  11.269  13.563   5.969 -0.3774  0.0982 -0.1118
28588W        W44662   2.690   7.538  17.048 -0.0397 -0.0162  0.1744
28589W        W44663   1.322  16.610  14.727  0.0859 -0.0895  0.0529
28590W        W44664   1.937  15.634   1.219 -0.0406  0.1316 -0.0251
28591W        W44665  16.769  13.448  12.707 -0.5585 -0.2137  0.0078
28592W        W44666   1.770  16.758   1.817 -0.2903  0.0626 -0.1626
28593W        W44667  11.376  13.555   4.044 -0.1561 -0.0962  0.2082
28594W        W44668   5.846   0.976  15.010 -0.0245  0.0003 -0.3455
28595W        W44669   8.088  17.072  11.759  0.0690  0.4024 -0.1158
28596W        W44670   8.549  17.718   1.436 -0.1943 -0.1943 -0.0711
28597W        W44671   5.862   3.980   3.830  0.1502  0.2769 -0.0443
28598W        W44672   0.857  12.539   1.134  0.0865  0.1026 -0.0082
28599W        W44673  16.451  12.847   2.533 -0.2243 -0.1692  0.0862
28600W        W44674   0.788   2.109  15.023  0.1703  0.1629 -0.1870
28601W        W44675   6.817  15.691  13.169 -0.1249  0.2013 -0.0689
28602W        W44676  17.319   8.154   2.071 -0.2416 -0.3068  0.3003
28603W        W44677   3.772  13.199  12.746  0.0347 -0.0214 -0.0636
28604W        W44678  14.538  14.267   6.449  0.2254 -0.3021  0.3053
28605W        W44679   5.685  16.320  15.085 -0.2083  0.1358  0.3949
28606W        W44680   6.098   5.420  11.987  0.3810 -0.3192  0.2485
28607W        W44681   6.860  16.066  16.719 -0.0851 -0.1498  0.0410
28608W        W44682  17.069   3.962   3.794  0.0033  0.3643 -0.1996
28609W        W44683  13.890   3.334  13.086 -0.0169 -0.0304  0.2380
28610W        W44684   9.896   0.969   4.717  0.1084 -0.1198 -0.0040
28611W        W44685   9.326  10.442   5.794 -0.0907 -0.0169  0.1139
28612W        W44686   1.304  16.652   3.268  0.1331 -0.2288  0.0478
28613W        W44687  12.138   6.744   5.507  0.0622 -0.1631  0.0390
28614W        W44688  16.543   4.133   1.391  0.1419 -0.2002 -0.1780
28615W        W44689  12.656   2.796  12.587 -0.1521 -0.1251  0.1333
28616W        W44690  16.351  12.916   4.861  0.0656 -0.1245 -0.4324
28617W        W44691  17.260   5.966  15.438 -0.2148 -0.1073 -0.1297
28618W        W44692  16.021   1.701   2.468 -0.0028 -0.0122  0.1164
28619W        W44693   7.445   1.987  15.782 -0.1561  0.1074  0.1722
28620W        W44694   9.303  10.645   5.203 -0.0462 -0.0158 -0.0137
28621W        W44695   8.722  17.264   4.378  0.0565 -0.1810 -0.2355
28622W        W44696  10.218  15.683   1.369 -0.0351 -0.2737  0.0684
28623W        W44697  12.208   4.767  14.294 -0.0028  0.2373  0.2246
28624W        W44698   3.764   2.770  12.539  0.2539 -0.0637  0.1391
28625W        W44699   6.314  13.734   5.194 -0.0917  0.1420  0.0992
28626W        W44700   4.525  15.951  12.491 -0.0446 -0.2007  0.0990
28627W        W44701   4.137  14.862  15.742 -0.2279 -0.3719  0.1923
28628W        W44702   7.953  10.176   4.660 -0.2038 -0.3191  0.1395
28629W        W44703   3.286   8.461   3.122 -0.0788 -0.0731 -0.0045
28630W        W44704  12.014   9.786  14.993 -0.3186 -0.1332 -0.0054
28631W        W44705   4.134  13.453  12.511 -0.0092  0.1603 -0.1205
28632W        W44706  15.164   0.631   4.679  0.0122  0.0544  0.2522
28633W        W44707  10.055   3.596   0.912 -0.0833 -0.1924  0.1472
28634W        W44708   1.113   9.246  12.410 -0.0316 -0.1657 -0.0254
28635W        W44709  15.818   6.746   2.345 -0.2389 -0.2628 -0.2350
28636W        W44710  15.228  11.658  14.128  0.2814  0.0117 -0.0340
28637W        W44711  15.519   0.942   0.195 -0.0741  0.1510  0.1696
28638W        W44712  16.607  10.784  13.621  0.1663 -0.1965  0.0629
28639W        W44713   3.261   8.758  15.770 -0.2267  0.0717  0.1495
28640W        W44714   4.960  11.954  15.853 -0.2384 -0.2303 -0.0466
28641W        W44715   3.815  14.022   1.850  0.1142 -0.1966 -0.0546
28642W        W44716   7.933   6.684  12.764  0.1925 -0.0233  0.0607
28643W        W44717   9.888  13.591  16.454  0.0204 -0.0717 -0.0603
28644W        W44718  10.035  15.469  15.348 -0.1937 -0.1195  0.2909
28645W        W44719   9.474   5.587   1.087 -0.3324 -0.0961  0.1181
28646W        W44720   6.174   2.228  13.660  0.0507  0.0099 -0.0604
28647W        W44721   9.188   1.310  15.517  0.3251  0.3849  0.0135
28648W        W44722   6.837  11.466  12.625 -0.1420 -0.1068 -0.1731
28649W        W44723  11.967   1.525   4.133 -0.1771  0.1669  0.2797
28650W        W44724  11.608   4.707   0.540 -0.1959 -0.0691 -0.2043
28651W        W44725  15.931   9.539   3.331 -0.1578 -0.0377  0.3192
28652W        W44726   3.964   0.263   1.243 -0.2126 -0.0369 -0.0634
28653W        W44727   7.770   2.991   2.829  0.2912 -0.1635  0.0494
28654W        W44728   3.400   3.412   4.554  0.1306  0.2688 -0.2503
28655W        W44729  14.341   9.805   1.029 -0.1118 -0.4098  0.0781
28656W        W44730  17.404   5.738  14.146  0.1627 -0.0593  0.3102
28657W        W44731  10.416  15.201  12.844 -0.1480 -0.3286 -0.1622
28658W        W44732   3.094  11.362   4.654 -0.2163 -0.1607  0.0953
28659W        W44733   1.039   8.971   0.878  0.0196 -0.1171 -0.1704
28660W        W44734  12.064  12.211   5.256 -0.0971 -0.2098  0.0010
28661W        W44735  10.892   2.912   4.269  0.3026 -0.0579 -0.4003
28662W        W44736   3.883  17.087  11.396  0.0496 -0.3733  0.3655
28663W        W44737   4.653  11.540  15.744  0.1802 -0.0193 -0.3806
28664W        W44738  14.991   1.995   3.454  0.1473 -0.3662 -0.0455
28665W        W44739  14.036   1.321   4.903 -0.2597 -0.0959  0.3806
28666W        W44740  17.037  12.692  15.016  0.1324 -0.0719  0.0062
28667W        W44741   4.191  15.728   2.933  0.0390 -0.0469  0.1205
28668W        W44742   6.519  15.991   4.735  0.1189 -0.3353  0.2462
28669W        W44743  12.338   2.550  13.409 -0.1399  0.3830 -0.0667
28670W        W44744   2.045  10.011  13.743  0.1553  0.3309 -0.3445
28671W        W44745  11.732  12.493   5.736 -0.0850  0.0033  0.0882
28672W        W44746   7.900  10.313  12.781 -0.0543  0.1788  0.2290
28673W        W44747   9.017   8.015   4.986 -0.2481 -0.0023  0.2888
28674W        W44748   6.491  17.250  16.174 -0.3693  0.1588  0.0556
28675W        W44749  15.089  15.590   3.359  0.1332 -0.1006  0.0295
28676W        W44750   4.115  17.682  13.779  0.2262  0.0121  0.0335
28677W        W44751  16.154   4.432  13.400 -0.3587  0.1086 -0.1680
28678W        W44752   0.432   9.405  16.560 -0.1754  0.3127 -0.1640
28679W        W44753  13.018  11.847   3.710  0.2194  0.2136 -0.2488
28680W        W44754   3.425  12.463   0.524  0.0746 -0.3295 -0.0646
28681W        W44755   8.591  14.539  14.208 -0.2613 -0.1539  0.0431
28682W        W44756  10.300   2.825   3.085 -0.0785 -0.1697 -0.4494
28683W        W44757   7.968   9.030  12.653 -0.0544 -0.1383  0.2488
28684W        W44758  16.053  13.545  13.980 -0.2893  0.1864  0.1020
28685W        W44759  16.833  10.487  13.960 -0.2811 -0.0340  0.1662
28686W        W44760   0.904   0.806   1.158 -0.3950  0.1729 -0.2800
28687W        W44761   3.983   4.539   0.530 -0.0538 -0.0279  0.0674
28688W        W44762  10.542  13.424  12.621 -0.0333 -0.1325  0.0491
28689W        W44763   8.502  15.292   3.763  0.2030  0.4117  0.0541
28690W        W44764   5.562   9.925   1.448  0.0931  0.1094 -0.0493
28691W        W44765   7.904   1.333  15.293 -0.4132  0.3577 -0.0750
28692W        W44766  17.737   3.794  13.556 -0.1005  0.2384 -0.0649
28693W        W44767   5.269   2.686   4.647 -0.0903  0.0938 -0.1461
28694W        W44768  11.298   1.470  14.353  0.0247 -0.3187  0.2537
28695W        W44769  10.104   0.533   2.754  0.3555 -0.1630 -0.2791
28696W        W44770   1.013   6.767   2.540 -0.0431 -0.4348 -0.2184
28697W        W44771   9.026  11.166   0.135 -0.1354 -0.2112  0.1522
28698W        W44772  12.038  13.705   4.819 -0.0563  0.2811  0.0323
28699W        W44773   2.090  10.623   4.009  0.1156 -0.2413 -0.2038
28700W        W44774   5.004  12.110   0.083  0.0772  0.2455 -0.1429
28701W        W44775   5.110  15.419  11.926  0.0841 -0.2277 -0.0220
28702W        W44776  15.577  13.434  13.321  0.0085 -0.0362 -0.1718
28703W        W44777  16.395   4.176   4.386 -0.3608  0.2654 -0.0897
28704W        W44778  10.534  12.028   4.630  0.4150 -0.1244  0.0130
28705W        W44779   7.229  10.039  13.995  0.0340 -0.0401  0.1244
28706W        W44780   9.243   4.046  15.587  0.2019  0.0274  0.0496
28707W        W44781   2.053   8.746   0.811  0.2535 -0.1818  0.0761
28708W        W44782  11.402  15.491   2.592 -0.2803  0.1816 -0.1086
28709W        W44783   0.561   9.019   5.358  0.0202 -0.3302 -0.2630
28710W        W44784  14.946   8.288   3.700 -0.0335 -0.1088 -0.3338
28711W        W44785  13.062  14.585  16.026  0.0650  0.0379  0.1163
28712W        W44786   1.975   8.036   3.443  0.4285 -0.1196  0.1481
28713W        W44787  14.656  17.370  15.831 -0.0166  0.0809 -0.2694
28714W        W44788   7.561  12.005  13.578  0.3140 -0.4460  0.1663
28715W        W44789   1.633  12.974   2.124 -0.1793 -0.2836 -0.3309
28716W        W44790  14.182   6.502  16.948  0.2631  0.0254 -0.2001
28717W        W44791  12.116  12.597   4.836  0.0987  0.0280 -0.0432
28718W        W44792   6.584  17.708  12.568 -0.0084  0.2378  0.3865
28719W        W44793   9.649   1.602   0.906  0.0748 -0.2236  0.0917
28720W        W44794  15.271  14.250  15.464  0.1177  0.1693  0.0200
28721W        W44795   5.960  12.298   1.160 -0.4500  0.2212  0.0821
28722W        W44796   6.241  12.845   1.161 -0.0613 -0.1798  0.0546
28723W        W44797   0.759   8.352   2.263 -0.2283  0.2929  0.0393
28724W        W44798  13.665  14.060   3.772 -0.0885  0.0436 -0.1923
28725W        W44799  11.828  10.681  16.042  0.1908  0.0146 -0.4824
28726W        W44800   2.960   5.633  16.430 -0.0317 -0.1159  0.0513
28727W        W44801   1.767   1.505   4.735  0.1050  0.3219 -0.2592
28728W        W44802   8.210   5.193   0.409 -0.0000 -0.0591  0.1089
28729W        W44803  11.262   5.836  17.101 -0.0733  0.1578 -0.1550
28730W        W44804  13.760  14.083   3.279  0.3492 -0.1174 -0.0698
28731W        W44805  11.610   1.162   4.230 -0.1458  0.0792 -0.2548
28732W        W44806  16.905   0.867   1.222  0.1926 -0.2856 -0.1852
28733W        W44807   0.913  12.411   0.114  0.0490 -0.0533 -0.0005
28734W        W44808   2.884  13.920  16.254  0.1963 -0.0409  0.2243
28735W        W44809  15.110  11.864  13.656 -0.1950  0.0223 -0.0960
28736W        W44810   6.930  17.739   0.230  0.3501  0.1719 -0.1497
28737W        W44811  11.978  15.417   2.600  0.0798  0.1015 -0.1148
28738W        W44812  10.123   7.847  12.170  0.1081  0.1568 -0.0536
28739W        W44813   8.281  15.870   0.781 -0.2238  0.1361  0.0451
28740W        W44814  13.607   0.849  12.827 -0.0913  0.0841  0.0249
28741W        W44815  17.412  13.004  13.786 -0.0337  0.1751  0.2685
28742W        W44816  17.512   7.276   4.060 -0.3053  0.0887  0.0794
28743W        W44817  16.961   1.802   4.939  0.1202  0.1482  0.0356
28744W        W44818   1.117   8.544  16.030  0.0592 -0.0663 -0.1273
28745W        W44819   0.602  16.066  14.736 -0.0199 -0.3533 -0.1923
28746W        W44820  14.842  16.301  13.790  0.0789  0.2322 -0.0385
28747W        W44821  15.824  13.448  12.876  0.0460 -0.3369  0.1408
28748W        W44822   6.890  12.892   1.918 -0.1958 -0.0584  0.0508
28749W        W44823   2.941  12.733  15.701  0.0208  0.0741 -0.1230
28750W        W44824   6.371   0.136   3.109  0.3792  0.2169  0.2639
28751W        W44825   9.293  11.401  15.287  0.2924  0.1343 -0.0062
28752W        W44826   8.748  14.878  12.466  0.0450 -0.2205 -0.0174
28753W        W44827  11.724   1.783   0.858 -0.1788  0.2748 -0.0509
28754W        W44828   4.921  17.024   6.059 -0.0812 -0.1213  0.2947
28755W        W44829   0.393  11.897  15.881 -0.1374 -0.0334  0.2604
28756W        W44830   8.563   1.018   3.490  0.2865 -0.1460  0.2269
28757W        W44831  10.504   3.468   0.976 -0.3809  0.0561 -0.2287
28758W        W44832  14.822  14.394  15.553  0.2570 -0.3021 -0.2499
28759W        W44833   3.202   0.665  16.662 -0.1064  0.2184  0.2385
28760W        W44834  15.829  11.621   1.767  0.2503  0.2877 -0.2147
28761W        W44835  14.251   5.257  14.777 -0.0019 -0.2711 -0.0971
28762W        W44836   7.936   8.536   4.097  0.2259  0.2001 -0.2066
28763W        W44837   5.642  12.984  15.374 -0.0446 -0.0071 -0.4094
28764W        W44838   3.788   4.576  16.381  0.1365  0.0028 -0.0502
28765W        W44839  14.376  11.656  16.707  0.1163 -0.2883 -0.1602
28766W        W44840   6.527  14.377  14.295  0.1504 -0.0214  0.0073
28767W        W44841   6.213  15.718  11.380 -0.0551  0.0511  0.1119
28768W        W44842   2.167   3.422  11.669 -0.1401  0.1593 -0.2446
28769W        W44843  15.138   5.893  15.701  0.0136  0.1476 -0.0026
28770W        W44844  10.595   7.468   0.775 -0.1932 -0.1056  0.2190
28771W        W44845  15.702   6.172  14.411 -0.0334 -0.2303  0.1726
28772W        W44846   9.602   3.823  17.085  0.1306  0.3175 -0.0471
28773W        W44847   4.954  17.283   4.729  0.0309  0.4229 -0.0773
28774W        W44848   5.600  12.549  16.261 -0.3003 -0.2544 -0.2266
28775W        W44849   5.997   4.643   1.481 -0.0754 -0.1850  0.0978
28776W        W44850  10.326  14.554  13.284  0.1478  0.3136  0.2452
28777W        W44851  15.054   0.149  15.312  0.1373  0.0227 -0.0952
28778W        W44852   7.333  12.986   1.651 -0.1014 -0.2003  0.1155
28779W        W44853   1.255   4.741  14.745 -0.3054  0.1376  0.1006
28780W        W44854  17.225  13.110  12.500  0.0731  0.0312  0.0394
28781W        W44855   1.856   5.482  15.042 -0.0340 -0.1655 -0.1925
28782W        W44856   6.268  17.342  11.833  0.1459  0.1259 -0.3017
28783W        W44857  10.310  11.063   3.894 -0.0726 -0.0029 -0.0338
28784W        W44858   0.724   2.226   2.855 -0.0346  0.0947  0.1823
28785W        W44859  13.474   9.713   4.310 -0.0520 -0.0012 -0.0917
28786W        W44860   6.287  17.082   2.491 -0.0511 -0.0308 -0.1170
28787W        W44861   1.461  17.297  15.485 -0.0130 -0.0050  0.2825
28788W        W44862   6.573   6.758  13.018 -0.0433 -0.0499  0.0981
28789W        W44863  16.227  14.467  13.579  0.1072  0.0981  0.1279
28790W        W44864  12.623   1.132   4.500  0.1414 -0.0064  0.2821
28791W        W44865  11.377  14.325  13.835  0.4851  0.0573  0.5569
28792W        W44866   1.383   4.455   4.141  0.0659 -0.1663  0.0654
28793W        W44867  13.192   6.638  13.282  0.0630  0.0867 -0.3421
28794W        W44868  14.555   3.721   1.143 -0.3807  0.2028 -0.0185
28795W        W44869  14.013  13.842   1.018  0.0648  0.1941 -0.0267
28796W        W44870   0.125  11.877   1.640  0.1302  0.1673 -0.0411
28797W        W44871   3.356   0.509   2.155 -0.0550 -0.1539 -0.0583
28798W        W44872  16.143   9.862  13.838  0.0296 -0.0714 -0.3675
28799W        W44873  16.099  13.642   3.781  0.2552 -0.1636  0.0772
28800W        W44874   1.573   4.576   5.358 -0.0034  0.0900 -0.0780
28801W        W44875   7.326  12.732  16.943  0.0641  0.0516 -0.0825
28802W        W44876  16.946   2.262  12.768  0.0165  0.1002  0.0494
28803W        W44877  15.100   7.474   5.249  0.0242 -0.1231 -0.2227
28804W        W44878  13.618   8.371   0.613 -0.2840  0.0729 -0.1342
28805W        W44879  11.148   4.945   0.503 -0.1042 -0.0061 -0.1469
28806W        W44880   6.919   9.224   5.600 -0.2704 -0.1895  0.0009
28807W        W44881   6.276  14.511  16.770 -0.1308  0.0632  0.1486
28808W        W44882  13.655   6.522  13.294  0.2215 -0.0563  0.0148
28809W        W44883   8.191  10.469   1.218 -0.1642  0.0095 -0.1494
28810W        W44884   4.905   8.569  16.896 -0.0549 -0.1605 -0.2169
28811W        W44885   8.487   7.514   1.735 -0.1864 -0.0344  0.0516
28812W        W44886  13.563  14.119   0.068 -0.0572 -0.0379 -0.1246
28813W        W44887  16.713  12.395   2.100  0.1227 -0.0334  0.2359
28814W        W44888  13.495  12.975  14.637  0.3298  0.0842 -0.1442
28815W        W44889   3.898   9.425  13.842 -0.0896 -0.2077 -0.1761
28816W        W44890  12.455   4.618  16.597 -0.3184  0.2670 -0.1645
28817W        W44891   2.625   6.180   1.393 -0.0696  0.1463  0.0031
28818W        W44892   5.073   5.440   4.232 -0.2949 -0.0677  0.0452
28819W        W44893  15.709   9.162  11.827  0.2851  0.0627 -0.1289
28820W        W44894   5.603  15.673  15.918 -0.3420  0.2936  0.1060
28821W        W44895   8.711  10.376  17.108 -0.2737 -0.3882 -0.2349
28822W        W44896   2.894   7.745   3.043  0.1439 -0.1109 -0.0436
28823W        W44897  12.657  17.417   2.514  0.2302  0.2071  0.0867
28824W        W44898   6.805   9.903   2.909 -0.1344 -0.3453 -0.0475
28825W        W44899  15.349  15.012   4.884  0.0026  0.2093  0.1686
28826W        W44900  17.160  14.073   2.851 -0.0049  0.1138 -0.0442
28827W        W44901  15.698   7.542   4.320  0.1421 -0.0170  0.0140
28828W        W44902  17.093  14.545   3.450 -0.0990  0.2562  0.0882
28829W        W44903  11.969   0.163  12.246  0.0130  0.2257 -0.0691
28830W        W44904   3.002   5.427   3.502 -0.0600  0.0318 -0.1133
28831W        W44905  15.709  17.139   4.516  0.1301 -0.1366  0.1273
28832W        W44906   1.708  11.206   0.998 -0.0658 -0.1068  0.2204
28833W        W44907   2.202   9.964   2.476 -0.3480 -0.1669  0.1847
28834W        W44908   3.272  15.706   3.433 -0.1610  0.1337  0.0915
28835W        W44909   0.963  17.444  14.738  0.1311 -0.1399  0.6056
28836W        W44910  12.385  10.807  14.008 -0.0851 -0.1518 -0.0601
28837W        W44911   0.967   2.621  16.606  0.1388  0.2736 -0.0920
28838W        W44912  13.273  13.783   0.454  0.1884 -0.1289  0.0953
28839W        W44913   5.942   6.146   1.840  0.2773  0.3530  0.1465
28840W        W44914  10.976  11.237  12.945  0.1437  0.0040 -0.2315
28841W        W44915  13.337   1.081  15.766 -0.1127  0.1058 -0.1553
28842W        W44916   6.827   7.174   0.876  0.0959  0.1376 -0.0976
28843W        W44917   5.490   5.809  12.328  0.2341 -0.0903  0.0110
28844W        W44918  11.440  17.137  14.588  0.1011 -0.2678  0.1218
28845W        W44919  12.034  12.862   2.240 -0.3559  0.1930  0.0670
28846W        W44920   7.161  12.248  13.329  0.3637  0.0152  0.0155
28847W        W44921   3.601   2.824  12.020 -0.5630  0.1556  0.0096
28848W        W44922  12.684  12.852   0.236 -0.1019 -0.0346  0.1909
28849W        W44923   2.304   1.769   5.683  0.0035  0.3741  0.1018
28850W        W44924   9.320  12.299  13.200 -0.0981 -0.0479 -0.0373
28851W        W44925   2.452  11.207   0.256 -0.3970  0.4027  0.1221
28852W        W44926  16.276  15.092   4.897  0.1743 -0.0825  0.1247
28853W        W44927  12.681  11.518   2.271  0.1288 -0.3749 -0.0553
28854W        W44928   2.120   3.865   5.346  0.2378 -0.0490  0.1141
28855W        W44929  10.830   5.676  15.502 -0.0646 -0.1194 -0.0298
28856W        W44930   4.167  17.638   5.024 -0.0457  0.0041  0.3826
28857W        W44931  15.945  13.102  13.594 -0.2647 -0.1727  0.1314
28858W        W44932   5.471   3.020   0.351 -0.2917 -0.0077  0.2752
28859W        W44933   3.447   2.459   5.424 -0.0197  0.1199 -0.0945
28860W        W44934  16.758  14.385  15.751 -0.4072 -0.2200  0.1961
28861W        W44935   3.600  12.100   2.646  0.1365  0.1872  0.4872
28862W        W44936  14.626   1.205   3.927  0.0698  0.0999 -0.3095
28863W        W44937   9.836   0.464   4.784  0.1025  0.1304 -0.2081
28864W        W44938  11.616  10.865  14.074  0.0138 -0.2387  0.0539
28865W        W44939   8.335   7.278  14.618  0.0066 -0.2457  0.3215
28866W        W44940   1.701   5.532  14.095 -0.1481  0.4299  0.1314
28867W        W44941   1.207  14.773  14.131 -0.0768 -0.2409  0.3726
28868W        W44942   3.084  17.621  15.621 -0.1580  0.1426  0.0509
28869W        W44943   5.341   0.459   1.076 -0.2110  0.1359  0.0437
28870W        W44944   7.648  13.474  12.069  0.1058  0.1070 -0.0537
28871W        W44945   6.555  16.286   2.203  0.1542  0.0395  0.1475
28872W        W44946  16.329  13.968   2.007  0.2367 -0.1330 -0.1209
28873W        W44947  15.725   7.089   3.594 -0.0166 -0.1791  0.1651
28874W        W44948  14.279   0.852  13.340 -0.1655  0.1851  0.4260
28875W        W44949   1.890  15.823  12.808  0.0998  0.1052 -0.1301
28876W        W44950  11.374  12.645  16.952  0.3395  0.1515 -0.1038
28877W        W44951  13.135  14.238   0.319  0.2888  0.2493  0.0179
28878W        W44952   9.488   0.891  13.068 -0.2594 -0.3302  0.0188
28879W        W44953  16.430   2.192   2.366 -0.2310  0.1690 -0.3124
28880W        W44954  13.891   4.715  13.437 -0.0615  0.1068  0.1849
28881W        W44955  16.451  16.160   4.685  0.1550 -0.2462  0.0690
28882W        W44956  12.720  14.960   1.449  0.0879  0.2797 -0.2633
28883W        W44957   1.502   3.324   5.787  0.4117 -0.3346 -0.0072
28884W        W44958   9.230  16.676  11.722  0.2710  0.0098  0.0522
28885W        W44959  13.386  10.991  15.113 -0.0820 -0.0828  0.3277
28886W        W44960   1.458  12.037   6.756 -0.4451 -0.0245  0.2910
28887W        W44961  12.085  10.604  14.350  0.1950  0.2235 -0.0355
28888W        W44962   4.980  11.822  14.942 -0.0770 -0.0076 -0.2022
28889W        W44963   1.048   1.802   3.129 -0.2414 -0.0235  0.1511
28890W        W44964  15.511   9.327   4.829  0.0833  0.0042 -0.2491
28891W        W44965  17.582   8.190   3.337 -0.1363  0.1634 -0.1915
28892W        W44966   3.891   7.726   2.532  0.2787 -0.1588  0.2014
28893W        W44967  13.950   3.694  17.001 -0.0574 -0.1732  0.1507
28894W        W44968  14.701   5.786  14.268  0.0043 -0.0284 -0.3036
28895W        W44969   6.442   3.639   5.657  0.1692 -0.2875 -0.3382
28896W        W44970   0.187   1.019  13.740 -0.0448 -0.1005  0.1558
28897W        W44971   1.296   6.015   5.333  0.0711 -0.3048  0.1116
28898W        W44972   0.046   7.909  16.049 -0.2338  0.0511  0.1632
28899W        W44973   2.962   4.297  11.461 -0.0685 -0.0047 -0.0872
28900W        W44974   6.382   8.434  16.356 -0.1442  0.2921  0.0580
28901W        W44975   0.867   6.252   5.180  0.1136 -0.0149  0.1073
28902W        W44976  16.049  13.958  12.246  0.4908  0.1096  0.1476
28903W        W44977   2.777  17.442  16.249  0.4321 -0.1102  0.0281
28904W        W44978   2.255   5.205   3.616 -0.1232 -0.2763 -0.1315
28905W        W44979  14.333  11.031   5.722 -0.0144  0.1522 -0.0519
28906W        W44980   3.833   1.651   6.293 -0.1347 -0.1205  0.0512
28907W        W44981   6.265   5.773   1.869 -0.1621  0.2090 -0.2009
28908W        W44982  10.729  10.029  13.269  0.0773 -0.5696 -0.0545
28909W        W44983  11.701   3.294  15.299  0.1225 -0.1153  0.0494
28910W        W44984   8.731  12.679  14.815  0.3143 -0.3151 -0.2036
28911W        W44985   1.502   0.181  16.130  0.1661 -0.0036  0.2093
28912W        W44986   2.300   0.290   2.111  0.2502 -0.1400 -0.0968
28913W        W44987   3.729  14.789  14.824 -0.0452  0.1372  0.2141
28914W        W44988   2.009   6.273   4.248  0.0944 -0.0738  0.2106
28915W        W44989  17.347   6.357   0.980  0.1957  0.1402 -0.2637
28916W        W44990   9.789   6.100   3.692  0.2100 -0.0801 -0.0977
28917W        W44991   2.973   5.611   1.888 -0.2397 -0.3570  0.3084
28918W        W44992   8.935  10.780   4.116 -0.1405 -0.2752 -0.2302
28919W        W44993  12.146   3.235   6.314 -0.2147  0.0301 -0.3584
28920W        W44994  14.085  13.705  16.366 -0.2407 -0.1906 -0.1689
28921W        W44995   9.435  13.256  15.238 -0.0116  0.1064 -0.0660
28922W        W44996  11.518   5.876   0.990 -0.2574 -0.1919  0.0112
28923W        W44997   5.645  13.306   5.593 -0.0271  0.0572  0.0412
28924W        W44998  14.961  10.416  14.650  0.0595  0.5021  0.3032
28925W        W44999   1.281  14.794  16.041 -0.1960 -0.1980 -0.0003
28926W        W45000  14.329   5.234  11.763 -0.1178 -0.0992  0.0845
28927W        W45001  15.005  13.138   3.625 -0.0111 -0.0660  0.2233
28928W        W45002   4.307  11.920  12.684  0.1000 -0.1510 -0.0202
28929W        W45003  11.286   4.979  12.139 -0.3046 -0.1815  0.0475
28930W        W45004   0.519  16.086   3.533  0.0168  0.3640 -0.3758
28931W        W45005  11.583   1.605   3.024  0.0311 -0.1750 -0.1887
28932W        W45006   6.766   5.606  15.410  0.1489  0.0511 -0.1866
28933W        W45007  14.557  14.550   3.832 -0.1768 -0.1824  0.0776
28934W        W45008   2.188  17.531   2.303 -0.2143 -0.0579 -0.1151
28935W        W45009  15.951   9.277   0.210  0.1534  0.0310  0.0768
28936W        W45010  13.512   4.886   0.334 -0.2707  0.2333 -0.0250
28937W        W45011   8.945   4.962  11.460 -0.0895 -0.3500  0.0083
28938W        W45012  15.014  17.017  14.373  0.0693  0.0419 -0.1875
28939W        W45013   0.264   1.843   4.313  0.0656  0.1044  0.2418
28940W        W45014  11.361   2.250  13.433  0.3070 -0.2898  0.1101
28941W        W45015   7.282  15.659   5.101 -0.2346  0.3879  0.0683
28942W        W45016  17.248  13.746  12.675 -0.1229 -0.0965  0.3236
28943W        W45017  14.557  13.131   3.982 -0.0125  0.4943 -0.0164
28944W        W45018  17.496  17.597  12.285 -0.0834 -0.2153  0.1397
28945W        W45019   5.565   4.262   3.041  0.3250 -0.2613 -0.2651
28946W        W45020  12.669  14.592   1.034 -0.0014 -0.0411 -0.0934
28947W        W45021   6.348   9.191  14.248 -0.2814  0.1586  0.0384
28948W        W45022   4.547   2.551  16.646 -0.1343 -0.2635  0.0582
28949W        W45023   5.564  14.391   5.361  0.0930  0.3872  0.0488
28950W        W45024   5.473   0.721   3.389 -0.2140 -0.5070  0.2114
28951W        W45025   8.733  16.663  12.902  0.4952  0.0834  0.0791
28952W        W45026  10.050  16.191  15.796  0.0624  0.1457  0.0527
28953W        W45027  16.677   3.767   4.220 -0.2396 -0.3324  0.0033
28954W        W45028   5.792   9.921  14.937  0.0163 -0.0939  0.0640
28955W        W45029   8.360  10.902  14.379 -0.3244 -0.1176  0.2259
28956W        W45030   7.321   0.102   2.055  0.0332 -0.2076  0.1192
28957W        W45031  13.489  16.822  14.875  0.3582 -0.0329  0.1271
28958W        W45032  10.958   5.649   0.933 -0.2215 -0.0706 -0.0509
28959W        W45033   4.642   5.076  13.612  0.0284 -0.2549  0.0917
28960W        W45034   9.482   4.178   1.420  0.1491 -0.0493  0.1650
28961W        W45035   5.180  10.911   2.740  0.0622  0.2139  0.0884
28962W        W45036   1.169   8.792   3.503  0.0417 -0.0822  0.1768
28963W        W45037   1.639  17.455  16.511 -0.0524  0.1150  0.0981
28964W        W45038   1.361   4.787  12.657 -0.0786 -0.2030  0.1289
28965W        W45039  16.090  15.325  15.757  0.0487  0.2245 -0.1752
28966W        W45040  14.520  11.686  15.073  0.0099  0.0561  0.0327
28967W        W45041   0.049   2.023  16.624 -0.2435  0.0128  0.0267
28968W        W45042  17.338   1.316  15.691  0.1369  0.0199  0.1958
28969W        W45043   2.834  13.225  13.936 -0.1038  0.2137 -0.0153
28970W        W45044  12.284  17.324   4.824 -0.3498 -0.1091  0.0757
28971W        W45045   3.321   7.787  16.550  0.1959 -0.0103 -0.1497
28972W        W45046   3.838  15.157   2.389  0.1351 -0.0208 -0.3291
28973W        W45047  10.801  13.627  14.126 -0.0048  0.1022  0.1466
28974W        W45048  10.851   7.567   2.064  0.0231  0.2882 -0.2258
28975W        W45049   2.590   0.572   3.854 -0.0484  0.1314  0.3123
28976W        W45050   2.381  16.301  14.332 -0.3338  0.3078  0.1097
28977W        W45051  12.739  12.635  16.370  0.3379 -0.3116 -0.0422
28978W        W45052   9.631   8.734  16.424 -0.3340 -0.0648  0.0275
28979W        W45053   1.197  10.533  16.916  0.2452 -0.0101  0.0866
28980W        W45054   5.438   4.101  15.520  0.1687  0.3000  0.0221
28981W        W45055   6.339   6.575   4.370  0.0959  0.1043 -0.2338
28982W        W45056  15.279  16.824   1.842  0.0684 -0.3611 -0.2606
28983W        W45057  13.338   0.572   3.114  0.4120  0.0663  0.0343
28984W        W45058   1.259   1.830  15.116 -0.0322 -0.3445 -0.3595
28985W        W45059   8.907   3.327   4.786 -0.0410 -0.0271 -0.4151
28986W        W45060  11.243   4.499   2.958 -0.0344  0.0396 -0.1308
28987W        W45061   6.395  13.725   4.177  0.0256 -0.1983  0.1238
28988W        W45062  13.074   6.131   1.716  0.0789 -0.1025 -0.0605
28989W        W45063   0.217   4.284   1.004 -0.1375 -0.4519 -0.0759
28990W        W45064   6.940  15.027  13.150 -0.2725  0.2168  0.0754
28991W        W45065  12.671  16.047  14.436  0.1012  0.1174 -0.0035
28992W        W45066   8.292  12.565   1.492 -0.1649  0.1214 -0.2281
28993W        W45067  10.331   9.650  12.575  0.1263 -0.0734  0.1655
28994W        W45068   8.243   7.387  15.998 -0.2489  0.0728  0.2037
28995W        W45069   7.183   9.307   0.234  0.1105  0.1898 -0.0706
28996W        W45070   7.370  10.203  12.871 -0.1821  0.3993 -0.0826
28997W        W45071   9.664   7.513   6.020 -0.0335  0.1559 -0.0314
28998W        W45072  16.959   9.722  16.925 -0.0576  0.1183  0.3060
28999W        W45073   3.471  15.612  13.329  0.1443 -0.0966 -0.2230
29000W        W45074   1.518   5.943   0.405 -0.1749 -0.3411  0.2412
29001W        W45075   1.158   3.741   3.747  0.0597 -0.1399  0.0458
29002W        W45076   5.399   9.014  15.282 -0.0722  0.0556  0.0040
29003W        W45077  15.326   6.207  13.428 -0.2281 -0.2344  0.2824
29004W        W45078  11.337  13.946  16.421 -0.1133  0.0124 -0.0399
29005W        W45079  15.104  15.717  16.127 -0.2432 -0.0539 -0.2731
29006W        W45080   6.718   1.498   0.833  0.1520 -0.0454  0.0793
29007W        W45081  10.746  16.317  15.192  0.2041 -0.1371  0.0723
29008W        W45082   7.854  10.755  12.517 -0.0767 -0.2344  0.2070
29009W        W45083  12.633  15.041   0.162  0.1481 -0.1075 -0.1917
29010W        W45084   7.749  15.181   4.234  0.0373 -0.1155  0.1132
29011W        W45085   0.374  17.262  13.988 -0.1108  0.0045 -0.2446
29012W        W45086  17.676   8.491   2.312 -0.1267 -0.0500 -0.0106
29013W        W45087   6.874  15.474   4.419 -0.0303 -0.0350 -0.0942
29014W        W45088   6.068  14.448   4.080 -0.4100 -0.3682 -0.0538
29015W        W45089  12.398   9.902   5.158 -0.0205 -0.0108  0.0120
29016W        W45090   4.965   3.093  13.198  0.1354  0.0686  0.1824
29017W        W45091   7.901   6.496   5.388  0.0844 -0.1534  0.3771
29018W        W45092  16.242   7.175   1.078 -0.0900  0.2685  0.2367
29019W        W45093  17.447  13.534  16.171 -0.0002  0.3521 -0.1431
29020W        W45094  13.052   4.998   3.829 -0.4535 -0.0370  0.1008
29021W        W45095   2.423   0.305   5.046  0.0033  0.2176  0.0705
29022W        W45096   6.072  10.602  13.751 -0.2928 -0.0375 -0.1786
29023W        W45097   2.676   8.616  16.559 -0.3550 -0.0569 -0.1950
29024W        W45098  15.023  10.582   5.304 -0.1295  0.1480  0.0018
29025W        W45099   3.988  13.667   5.648  0.0468  0.0101 -0.0684
29026W        W45100   0.267   4.578  15.538 -0.1534  0.0314  0.2122
29027W        W45101   4.601   2.851   1.998  0.2345  0.0947 -0.1723
29028W        W45102  10.813  11.078  12.275 -0.1451  0.1052  0.3437
29029W        W45103  17.261  16.662  16.512 -0.1600  0.0498  0.1466
29030W        W45104   7.955   5.098  13.536 -0.1620 -0.0551  0.1423
29031W        W45105   2.634  15.943   0.461  0.0240 -0.0539 -0.3581
29032W        W45106   3.327   7.845   3.268 -0.1579 -0.3633 -0.1472
29033W        W45107   9.189   5.036  15.144  0.0329 -0.0451  0.0562
29034W        W45108   5.697   3.274   3.945  0.2407  0.2683 -0.2676
29035W        W45109  16.211  11.957   1.689 -0.0141 -0.1530 -0.2608
29036W        W45110  10.291  13.788  12.907  0.1677  0.0871  0.2710
29037W        W45111   9.927   1.743  12.452 -0.0066  0.2485  0.0801
29038W        W45112   0.279  11.188   3.545  0.0966 -0.1133 -0.0013
29039W        W45113   1.252   5.153   4.059  0.0680  0.3520  0.1275
29040W        W45114   4.265   5.529   5.598  0.1165 -0.0145  0.0360
29041W        W45115   5.272  13.555   2.420 -0.0587 -0.0337 -0.1163
29042W        W45116  15.559   9.832   0.225  0.1502  0.0012  0.1424
29043W        W45117  12.928  15.365   2.168 -0.2703  0.3165 -0.1553
29044W        W45118   0.323  15.771   3.174  0.0494  0.0668 -0.0353
29045W        W45119   2.292   0.633   5.952  0.2743 -0.0977 -0.2819
29046W        W45120  15.765  12.524  15.100 -0.1523 -0.1798 -0.1281
29047W        W45121   3.656  11.828   3.398 -0.0382  0.2593 -0.0035
29048W        W45122  14.933   1.896   0.807 -0.1050  0.0557  0.2552
29049W        W45123   5.240  16.276  15.392  0.2078  0.3316 -0.0423
29050W        W45124  11.982   6.084  14.489  0.1251  0.0453 -0.0947
29051W        W45125   4.161   5.979  14.827 -0.1729 -0.0182  0.0106
29052W        W45126  14.946   2.557   0.018  0.0177 -0.0836  0.0116
29053W        W45127  11.210   3.705  14.878  0.1175 -0.0157  0.1063
29054W        W45128   5.660  11.682  10.862 -0.1712 -0.1157  0.0568
29055W        W45129  15.076  16.056   2.817  0.0314 -0.2416  0.0652
29056W        W45130  13.115  12.754   2.693  0.1653  0.0147  0.1644
29057W        W45131   0.726  12.451  15.505  0.0914 -0.0713 -0.0204
29058W        W45132  17.739   0.472  15.911 -0.0376 -0.3028  0.4102
29059W        W45133   4.515  13.111  12.678 -0.1866 -0.0140  0.0672
29060W        W45134  16.029   4.259   0.185 -0.0636  0.0129  0.0986
29061W        W45135   3.226   9.482   2.954  0.0384  0.1115  0.0132
29062W        W45136   8.143   4.576   5.904  0.3332  0.2399 -0.1758
29063W        W45137   2.443   6.363  15.596  0.1267 -0.3524  0.2816
29064W        W45138   8.989   3.897  16.966 -0.1780  0.0547 -0.0342
29065W        W45139  15.631   6.703   0.106 -0.1531 -0.0961 -0.2269
29066W        W45140   8.942  13.394  16.090 -0.1034 -0.0453 -0.0137
29067W        W45141   2.578   1.311  13.517  0.3509  0.2967  0.4063
29068W        W45142   2.911  12.347  14.919  0.1281 -0.2151  0.0681
29069W        W45143  17.050   5.229   5.555  0.3190 -0.3845  0.1734
29070W        W45144   0.916   2.118  12.096 -0.2237 -0.0941  0.0798
29071W        W45145   7.827   5.070   1.939  0.0395  0.0699 -0.1201
29072W        W45146   7.963  10.965  16.064 -0.1705  0.1953  0.0148
29073W        W45147  14.329   7.711  14.574 -0.1198 -0.0880  0.3330
29074W        W45148   0.775   1.775  12.374  0.0972  0.1060 -0.0190
29075W        W45149   4.726  12.094  16.265  0.0873 -0.3273  0.0575
29076W        W45150  11.106   9.086   6.342  0.0138  0.1720 -0.0255
29077W        W45151   8.665  14.023   5.156 -0.3831 -0.0141  0.0136
29078W        W45152  14.832   6.144  11.359  0.0812  0.0152  0.1166
29079W        W45153  17.540  14.208  11.847 -0.0303  0.2854  0.5339
29080W        W45154   4.126   4.063   0.442 -0.0538 -0.1321  0.0562
29081W        W45155  13.750   2.887   0.547 -0.2126  0.2629  0.0125
29082W        W45156  15.620  14.411   0.468  0.2871  0.2052  0.1770
29083W        W45157  12.461   8.701   0.224 -0.0755  0.1123  0.0867
29084W        W45158   8.818  14.505  13.425 -0.0486 -0.2092 -0.1074
29085W        W45159   9.651   0.008   5.543 -0.3629 -0.0189  0.1818
29086W        W45160  10.689   0.367   4.638 -0.2877  0.1128 -0.1815
29087W        W45161   2.261   3.434  15.032 -0.0465  0.3621 -0.4700
29088W        W45162   4.272   1.943   1.028 -0.1991  0.0118  0.2071
29089W        W45163   0.312   1.641   5.228  0.0147 -0.0193 -0.1073
29090W        W45164  14.351   9.750  16.461  0.1806  0.1408 -0.1329
29091W        W45165  17.553  11.287   2.452 -0.0262 -0.0218 -0.1509
29092W        W45166   2.180  13.452   4.260  0.1637 -0.1822 -0.1793
29093W        W45167  14.297   9.388   2.358  0.2999 -0.1838  0.0566
29094W        W45168   5.509   7.395   3.854 -0.0461  0.0614  0.4868
29095W        W45169   1.420   6.945  12.455 -0.0286 -0.2312 -0.0724
29096W        W45170   4.129   1.532   2.256 -0.0537 -0.1492 -0.0309
29097W        W45171  10.083  12.940   3.945 -0.2102  0.3488 -0.0890
29098W        W45172   9.891  17.602  15.241 -0.1239  0.0318  0.1685
29099W        W45173   2.231   8.121   5.103 -0.1607  0.0463  0.1995
29100W        W45174  11.926   3.381   0.891  0.2272  0.1113 -0.0289
29101W        W45175   4.332   0.521   3.305  0.1204 -0.1001  0.0926
29102W        W45176   0.398  10.487   0.272 -0.0620  0.1860  0.0649
29103W        W45177   4.922   8.487   1.987 -0.0018  0.0287  0.0159
29104W        W45178  13.931   2.896  13.315 -0.2269  0.0509 -0.0321
29105W        W45179   4.807  15.932   3.206  0.2547  0.0537 -0.2800
29106W        W45180  16.217  14.819  11.593 -0.0919  0.1471  0.1163
29107W        W45181   2.279   1.974  13.395  0.0316  0.0582  0.0680
29108W        W45182  15.067   4.692   3.711 -0.0137 -0.1971 -0.0786
29109W        W45183   2.443  14.274  16.326  0.1582 -0.0419 -0.2267
29110W        W45184  13.245   7.413  13.750  0.2198  0.0427  0.0612
29111W        W45185  13.372   5.368   3.923  0.1674 -0.0126  0.0245
29112W        W45186   3.826   3.680  16.331  0.1989 -0.2856  0.1537
29113W        W45187   6.362  12.677  12.239  0.0894 -0.0951  0.0019
29114W        W45188   4.201   2.849  12.386  0.1170  0.1122 -0.0158
29115W        W45189   6.777  10.847   3.990  0.0922 -0.0953 -0.1856
29116W        W45190  13.866   1.746   5.172 -0.0208  0.0103  0.4014
29117W        W45191   5.407  15.605   0.916 -0.2854 -0.2050  0.0169
29118W        W45192   3.470  10.224   2.446 -0.0304 -0.0082  0.3586
29119W        W45193   7.092   7.192   4.518 -0.3711 -0.1386 -0.1768
29120W        W45194   0.928  17.254  16.833 -0.0207  0.0379 -0.0200
29121W        W45195  16.090   0.471   2.988  0.1238  0.1201  0.1263
29122W        W45196  14.327  14.266   4.166 -0.2071  0.1907 -0.0759
29123W        W45197   5.106   1.811   4.293 -0.1306 -0.3532  0.0024
29124W        W45198   4.136   6.426   0.420 -0.1411 -0.1251 -0.0940
29125W        W45199   1.809  16.189   0.720 -0.0277  0.2017  0.0270
29126W        W45200   8.435   9.062  13.718  0.1814  0.1217  0.0210
29127W        W45201  13.921   0.289  16.182 -0.2346 -0.0510 -0.0124
29128W        W45202  12.869   8.770  16.470 -0.0098 -0.1691  0.1220
29129W        W45203  10.601  11.853   4.114 -0.0226  0.0261 -0.0026
29130W        W45204  15.456  13.206  13.789  0.0717  0.1844  0.3031
29131W        W45205  14.630  11.466  12.285 -0.1218 -0.1660 -0.0951
29132W        W45206   1.377  11.089  13.805 -0.2541  0.0545  0.1039
29133W        W45207   5.181   4.359  15.927  0.1324  0.0677  0.0506
29134W        W45208   0.314   7.515   2.592  0.3297  0.1646 -0.0171
29135W        W45209   9.713  15.320   4.826  0.0275  0.0471  0.0651
29136W        W45210   6.170   5.250  15.258 -0.0659 -0.2251 -0.1317
29137W        W45211  12.983   5.390  16.313  0.1881 -0.3448  0.4357
29138W        W45212   6.962  16.992   2.897  0.1920  0.0380 -0.1415
29139W        W45213  10.075  11.750  15.923 -0.0830  0.0994 -0.0681
29140W        W45214  13.918  15.181  16.079 -0.3533 -0.2257  0.1223
29141W        W45215  16.130   2.040  15.116 -0.0487 -0.0078  0.1968
29142W        W45216  14.004   1.488  15.335  0.2435  0.1282  0.0999
29143W        W45217   7.356  14.509  14.234  0.0975  0.1028 -0.0226
29144W        W45218   8.757  13.022   2.778 -0.1427  0.1085  0.0783
29145W        W45219   8.739   4.415  13.710 -0.0847  0.1422  0.2335
29146W        W45220  13.281  13.317  16.223 -0.1705 -0.0769 -0.1810
29147W        W45221   5.676   7.963  12.893  0.2206  0.1642 -0.1360
29148W        W45222   5.368   4.010   4.917 -0.1074  0.0428  0.2954
29149W        W45223   6.768  17.148   0.382 -0.1811  0.0533  0.0291
29150W        W45224  11.483   4.424   5.943 -0.1717 -0.1035 -0.1336
29151W        W45225   4.740   8.183  14.687 -0.2038 -0.0292  0.0367
29152W        W45226   1.978   2.097  16.833  0.0527  0.0051  0.1634
29153W        W45227  10.939   8.892  17.010 -0.0901  0.0479  0.1465
29154W        W45228  15.538   1.921   3.259 -0.1790  0.1431 -0.1662
29155W        W45229   6.430  13.013  14.405 -0.2822  0.0230 -0.1947
29156W        W45230   6.296  17.052  12.784  0.5967 -0.1418 -0.1326
29157W        W45231   8.013  16.475  16.688 -0.0506 -0.1130 -0.2280
29158W        W45232  15.673   3.297  12.254 -0.2903  0.2965  0.0006
29159W        W45233   6.743   8.804  14.615  0.0439  0.0627  0.0633
29160W        W45234   3.346   4.361  11.796  0.0055 -0.1602 -0.3574
29161W        W45235   0.217  17.609   5.332  0.0567 -0.3588 -0.1749
29162W        W45236   8.976   5.722   0.924 -0.5054 -0.0867  0.1427
29163W        W45237  16.006  13.365   0.195  0.2841  0.0700  0.4438
29164W        W45238  15.977   0.969   0.480 -0.1833 -0.1429 -0.0317
29165W        W45239   6.068   1.656  15.592  0.1289 -0.0779  0.0231
29166W        W45240  12.493  10.374  14.227 -0.0493 -0.2335  0.0963
29167W        W45241   1.130   4.459   1.960 -0.1886  0.2218 -0.1085
29168W        W45242  16.202  11.499   3.467  0.1377 -0.2490 -0.0993
29169W        W45243   9.056  16.240  13.768 -0.2062  0.3391  0.3249
29170W        W45244   0.158   5.073  15.478  0.3067 -0.0371  0.0388
29171W        W45245  12.571   7.394  12.058 -0.0086  0.1482 -0.3189
29172W        W45246  13.770  14.558   0.257 -0.0452  0.2033  0.1465
29173W        W45247   1.946  10.556   0.414 -0.0270 -0.0918  0.0650
29174W        W45248   0.654   3.672   1.521 -0.0634 -0.1062  0.1451
29175W        W45249   4.726   5.797   6.313  0.1896 -0.1132 -0.0215
29176W        W45250  13.100  15.730  13.090  0.3384 -0.0058 -0.1292
29177W        W45251  16.909   8.998  16.293  0.2242 -0.0354 -0.1735
29178W        W45252   4.462   5.479   2.442 -0.1296  0.3363  0.0460
29179W        W45253   4.643   0.035  12.794  0.0748  0.0261  0.1759
29180W        W45254  10.122  15.606   1.880 -0.0577 -0.1968 -0.1354
29181W        W45255   0.255   0.700  12.492 -0.0456 -0.1371 -0.1687
29182W        W45256  13.848  10.434  14.722  0.2793 -0.0175 -0.1464
29183W        W45257   8.217   8.281   2.807  0.2065  0.0216 -0.1019
29184W        W45258  12.639   8.513   3.298  0.0797 -0.0674  0.0476
29185W        W45259  14.619  11.752  14.592 -0.2899  0.1127  0.3402
29186W        W45260   2.532   5.371   3.234 -0.0124 -0.0090  0.2304
29187W        W45261  11.503   5.763   5.350  0.1782  0.2665  0.1897
29188W        W45262   6.680   7.602  15.053  0.0377  0.1537 -0.1206
29189W        W45263   8.938   3.297  15.268  0.1322  0.2435 -0.4226
29190W        W45264  17.496   8.471  15.806 -0.0059 -0.0542  0.0425
29191W        W45265  13.044   4.389  15.165  0.2387 -0.1314 -0.0161
29192W        W45266   7.626  12.515  12.606  0.4610 -0.0829  0.3055
29193W        W45267  10.881   6.892  11.605 -0.1029  0.1283  0.0427
29194W        W45268  11.133  15.537  15.345  0.1390  0.1104  0.0225
29195W        W45269  15.713  12.911  14.735 -0.1892  0.0396  0.1955
29196W        W45270  14.938   4.108   0.911  0.0406  0.0585 -0.0245
29197W        W45271  11.324   4.129  11.950 -0.1245  0.2937 -0.0824
29198W        W45272   9.551  12.078  15.795 -0.1406 -0.2562  0.0434
29199W        W45273   6.995  15.968  15.069 -0.0172 -0.0966 -0.0880
29200W        W45274  11.260  17.051  13.320 -0.2377 -0.0907  0.0540
29201W        W45275   1.105   4.998  12.310 -0.1261 -0.1536  0.1759
29202W        W45276   1.700   5.194   3.829  0.2527 -0.2734 -0.1667
29203W        W45277   7.835   0.551  12.242 -0.0468 -0.0662 -0.0246
29204W        W45278  15.113  15.809   0.063 -0.0301 -0.1212  0.2766
29205W        W45279   5.160   1.326   0.596  0.0854  0.4870  0.0509
29206W        W45280   8.390   6.918  16.143  0.0017 -0.0637 -0.2711
29207W        W45281  17.329   0.318   1.252 -0.2098  0.0932  0.0072
29208W        W45282  13.176   0.763  13.079 -0.1872  0.1418  0.1041
29209W        W45283   7.370   9.797  15.199  0.4408  0.1343 -0.2686
29210W        W45284  11.483   3.521   4.177  0.0583  0.1410  0.0715
29211W        W45285  17.024  13.367   3.319 -0.2121 -0.0745  0.3696
29212W        W45286   5.100  10.016   2.949 -0.0065  0.1327 -0.2696
29213W        W45287  13.188  15.689   5.933  0.3651 -0.0851  0.4485
29214W        W45288   7.748   1.398   2.136  0.0253 -0.1777  0.0348
29215W        W45289   8.362   3.050   2.235  0.2931  0.1860  0.0104
29216W        W45290   6.078  12.882  15.507 -0.0203  0.0674  0.0601
29217W        W45291   8.814   8.141   1.101  0.0613 -0.3496 -0.0860
29218W        W45292   9.864   9.738  15.151  0.2652 -0.1385  0.1413
29219W        W45293   7.145  11.190   4.104  0.2630 -0.1388  0.0791
29220W        W45294   1.135   1.104  16.824  0.3515  0.2284 -0.0614
29221W        W45295   1.031   1.038   4.767 -0.2795  0.1408  0.3439
29222W        W45296   5.250  10.825  16.533  0.0093 -0.1128  0.1118
29223W        W45297  14.542   8.009   3.957  0.1432  0.0880 -0.4440
29224W        W45298  10.094   2.561   4.739 -0.4076 -0.1137 -0.0615
29225W        W45299   9.059   2.015  14.763 -0.2071 -0.1064 -0.1198
29226W        W45300   6.974  13.549   2.752 -0.1054  0.0766  0.5076
29227W        W45301   4.876  12.489  13.299 -0.2349  0.1108 -0.0464
29228W        W45302   1.691   4.396   4.485  0.1864  0.3683  0.1890
29229W        W45303   8.224   0.686   3.329 -0.1485  0.0264  0.2683
29230W        W45304  14.859  12.371  12.006  0.0061 -0.2935 -0.0837
29231W        W45305   2.790   6.808   2.646  0.1412 -0.0262 -0.2404
29232W        W45306   0.597  14.002   4.320 -0.2691  0.1431 -0.1922
29233W        W45307   7.921  13.853  14.085 -0.0068 -0.1020 -0.2714
29234W        W45308   6.885   6.191  16.587  0.3840 -0.3032 -0.0488
29235W        W45309   4.714  11.979   1.527  0.0979  0.1663  0.6742
29236W        W45310   1.802  12.272  15.032 -0.1331  0.0310  0.4107
29237W        W45311  15.539   2.987  15.988  0.0725 -0.1383  0.2828
29238W        W45312  10.779  14.357   5.524 -0.3302 -0.2068 -0.0687
29239W        W45313   4.022   1.469  16.311  0.2075 -0.4743  0.0465
29240W        W45314   3.877   3.316  12.323  0.2248 -0.0111 -0.2720
29241W        W45315  13.077   8.983   1.268  0.3658 -0.3705 -0.4165
29242W        W45316  16.673   8.595  15.300 -0.1695 -0.1409 -0.0082
29243W        W45317   8.701   1.814  16.664 -0.1217  0.2679  0.2085
29244W        W45318   8.164  14.615   5.362 -0.1764 -0.0732 -0.0605
29245W        W45319   5.304   0.611   5.190 -0.2946  0.0115 -0.0340
29246W        W45320   3.155  16.580  13.163  0.0745  0.3885 -0.0583
29247W        W45321   2.448   3.754  11.932 -0.0242  0.0854 -0.0078
29248W        W45322   5.484   8.796   4.092  0.2409 -0.0049 -0.0574
29249W        W45323  12.128   2.568  11.905 -0.1187  0.4350 -0.1712
29250W        W45324   5.317  15.867  13.879 -0.2668 -0.1822 -0.1117
29251W        W45325   3.051  17.528  16.660 -0.2798  0.2885  0.2581
29252W        W45326   4.454   9.517   0.108 -0.1943  0.1539  0.0602
29253W        W45327  10.603   7.070   5.487 -0.0136 -0.3735  0.0993
29254W        W45328   6.402   3.513  13.945 -0.0848 -0.2781 -0.1311
29255W        W45329  13.793  12.939  13.119 -0.4057  0.0111 -0.1239
29256W        W45330   5.229  17.530   3.926  0.0029 -0.3134 -0.1877
29257W        W45331  17.233   7.306   1.362  0.1932  0.1397  0.3776
29258W        W45332   5.552  15.148  16.909 -0.0100  0.1878 -0.0751
29259W        W45333   0.117  16.577  13.521  0.1216 -0.0674  0.3726
29260W        W45334  12.829   3.570   5.249 -0.1618 -0.3852  0.2948
29261W        W45335  14.358  11.336   3.248 -0.4195  0.0854  0.0491
29262W        W45336  15.526   8.402   4.600 -0.1498  0.0304  0.0940
29263W        W45337  12.261   7.919  15.584  0.1848 -0.0591  0.0834
29264W        W45338   8.585   8.488  16.353  0.1544 -0.0113 -0.1273
29265W        W45339   0.548   5.155  15.092  0.0328  0.1866  0.2426
29266W        W45340   4.129   3.141   0.613  0.0974 -0.3294  0.2893
29267W        W45341  14.415  17.427   1.739 -0.1031 -0.0503  0.1837
29268W        W45342  17.325   9.662  12.310 -0.3964  0.2281 -0.1050
29269W        W45343   8.322   6.364   0.707  0.0537 -0.0231 -0.2367
29270W        W45344   0.506   4.959  16.972  0.0569  0.0081 -0.4415
29271W        W45345   4.479   9.055  12.628  0.5148  0.1189 -0.0094
29272W        W45346  15.936   4.055   5.303 -0.0600 -0.0282 -0.0947
29273W        W45347   7.473  16.547  12.995  0.1131  0.2774  0.0420
29274W        W45348  16.196  13.283   3.286  0.1138 -0.0524 -0.1605
29275W        W45349   6.346   7.769  12.776  0.0635  0.0104 -0.2698
29276W        W45350   4.833  14.883  12.704  0.0873 -0.0202 -0.0603
29277W        W45351  10.172  12.540   4.491  0.1834  0.2450 -0.1613
29278W        W45352  12.535  10.710  16.056  0.2013 -0.1268  0.0718
29279W        W45353   4.851   6.074  16.694 -0.0518  0.1913  0.2594
29280W        W45354  10.507  15.350  15.962  0.1009  0.0028  0.1287
29281W        W45355  12.337  12.874   1.749  0.2082  0.0456 -0.1363
29282W        W45356   6.147  14.116  14.088  0.0013  0.1415  0.1495
29283W        W45357  12.954  10.890   2.575 -0.1731  0.1369  0.1287
29284W        W45358  12.244   9.803  12.958 -0.2270 -0.0232 -0.0321
29285W        W45359  14.425   4.841   0.537  0.2367 -0.2000 -0.2947
29286W        W45360   5.469   3.919   0.775  0.0478 -0.1005 -0.0271
29287W        W45361  11.807   8.457  14.776  0.0053 -0.0061 -0.0583
29288W        W45362   7.030   9.900  16.537  0.0316  0.0427  0.2079
29289W        W45363   9.787  17.265  16.616  0.2457  0.1043  0.0226
29290W        W45364   2.709  10.469  14.798 -0.0692  0.0821 -0.0740
29291W        W45365  12.154   2.655   1.121 -0.2175 -0.2207 -0.0589
29292W        W45366   2.024   9.254   0.727 -0.0534  0.0964 -0.0145
29293W        W45367   9.280  17.694  12.128  0.1851 -0.1385 -0.0262
29294W        W45368  11.624   7.241  15.720 -0.1019  0.4713 -0.4043
29295W        W45369  14.713  12.613   2.435  0.1775  0.0502 -0.0622
29296W        W45370   4.971   4.574   5.603  0.0683 -0.2660 -0.3693
29297W        W45371   5.614  10.205   0.489 -0.0912  0.0722  0.2674
29298W        W45372  17.191   0.182  16.392 -0.0827 -0.2694  0.1382
29299W        W45373   6.407   3.265  13.490  0.2551  0.1052 -0.1698
29300W        W45374  16.820  15.996  16.025 -0.0819  0.0536  0.0556
29301W        W45375  16.918  12.228  14.813 -0.1615 -0.3099 -0.2268
29302W        W45376   1.126   9.126   5.418 -0.1171  0.3213 -0.2189
29303W        W45377   5.992   8.438  11.709  0.1753 -0.0020 -0.0136
29304W        W45378  11.398   6.304   3.742 -0.2736 -0.0330  0.1188
29305W        W45379   1.410  15.103   3.915 -0.2468 -0.0007  0.0635
29306W        W45380  13.760   9.364  15.798 -0.3682 -0.1125  0.1218
29307W        W45381  13.712   7.711   2.421  0.1202 -0.0094  0.1181
29308W        W45382   4.208   6.603  15.304  0.1578 -0.0709 -0.0491
29309W        W45383   6.774  11.623   0.725  0.0865 -0.1195  0.0450
29310W        W45384  14.229   4.264   4.007  0.0784  0.0031 -0.1612
29311W        W45385  13.066   6.568  11.923 -0.0665  0.2497 -0.0263
29312W        W45386  16.490   3.382   1.814 -0.4167  0.0706 -0.0599
29313W        W45387   1.881  14.080  16.088  0.1000 -0.0497 -0.0102
29314W        W45388   1.501  12.578   4.517  0.0768  0.2117 -0.1980
29315W        W45389   9.604   7.608  15.811 -0.3220 -0.3408  0.0631
29316W        W45390  12.290   6.492  16.850  0.0317 -0.0618 -0.1030
29317W        W45391   9.856  14.775  15.829 -0.3017 -0.1836 -0.1228
29318W        W45392  16.718   4.669  15.952  0.3797  0.0712 -0.3150
29319W        W45393   5.596  17.562   5.775 -0.0681 -0.1371 -0.1721
29320W        W45394   0.491   7.721   0.959 -0.0268 -0.1673 -0.1045
29321W        W45395   5.502   4.722  16.777  0.0400 -0.0653 -0.1579
29322W        W45396  10.284   5.039   0.687  0.1763 -0.1196 -0.0220
29323W        W45397   0.911   1.314   1.314 -0.0328  0.1373 -0.2238
29324W        W45398  11.125   5.608   5.708 -0.2014  0.0391  0.1474
29325W        W45399   6.381  12.625  15.792  0.1686  0.0946  0.3222
29326W        W45400   3.913  14.034   5.249 -0.2743  0.0649 -0.0802
29327W        W45401   4.288   8.260   4.134 -0.3226  0.1371  0.0791
29328W        W45402   4.826  12.009  11.801  0.0560  0.2515  0.0346
29329W        W45403  16.208   4.458  13.982 -0.5808 -0.1118  0.0944
29330W        W45404   8.576  15.389   4.639  0.1477  0.1878  0.1985
29331W        W45405  10.051  14.812  11.971  0.1976  0.1034 -0.0554
29332W        W45406  10.455  13.062   4.780  0.3163 -0.0422  0.2294
29333W        W45407   5.440  14.462   0.256  0.0492  0.3949  0.0762
29334W        W45408  17.459  16.230  16.671 -0.0794 -0.2501 -0.3742
29335W        W45409   2.371   0.977   1.473 -0.3529 -0.1960 -0.0644
29336W        W45410  13.556   9.072  14.492  0.1523 -0.0064  0.2441
29337W        W45411   7.504  10.096   0.490  0.1105  0.0797 -0.0367
29338W        W45412   4.025  13.704  16.819 -0.0983 -0.3268  0.3412
29339W        W45413  11.792   7.830  15.500 -0.3580  0.0695  0.1426
29340W        W45414  11.883  10.166  14.220 -0.3314 -0.1777  0.2090
29341W        W45415  13.680  11.559  16.223  0.2429 -0.3810 -0.0442
29342W        W45416   4.350   5.390  16.893  0.5064  0.1735  0.3229
29343W        W45417  16.182   8.816  16.651 -0.1379  0.3136  0.1630
29344W        W45418  13.641   2.671   5.093  0.1596  0.1293 -0.0489
29345W        W45419   3.926  11.546   5.509  0.0405 -0.3391 -0.1396
29346W        W45420  10.801   3.008   5.587 -0.0360 -0.1549 -0.0289
29347W        W45421   2.758   5.955  11.502 -0.0525 -0.0777  0.0322
29348W        W45422   3.314   9.978  14.376  0.5121 -0.2769 -0.0572
29349W        W45423   7.256   3.173   0.000  0.2020 -0.0040  0.2981
29350W        W45424  10.088   2.933  12.068  0.0451 -0.2233 -0.0197
29351W        W45425   3.413   4.714   2.566  0.1417  0.2261 -0.0185
29352W        W45426   1.950  11.834  15.352  0.1048 -0.2400 -0.3655
29353W        W45427   4.880   1.378   0.094  0.1172 -0.0196 -0.1007
29354W        W45428   0.305  12.419  11.830 -0.0738 -0.1211  0.2051
29355W        W45429  13.691   6.656  14.585  0.0857 -0.2335 -0.3709
29356W        W45430  10.719  10.146  12.468 -0.0158 -0.0074 -0.2820
29357W        W45431  16.300   4.139  14.366  0.0582 -0.0040  0.0464
29358W        W45432   1.041   4.381   5.956 -0.5511  0.0475  0.1142
29359W        W45433   0.556   4.586   2.341 -0.0246  0.4058 -0.0415
29360W        W45434   7.540  11.883   3.537 -0.0107  0.1541 -0.0405
29361W        W45435   8.139   6.174  16.256 -0.1923 -0.1831  0.2874
29362W        W45436   1.492   0.909  11.580 -0.2028  0.0444  0.0685
29363W        W45437  14.292  12.098   1.760 -0.5113  0.0790 -0.2741
29364W        W45438  12.724   2.139   5.705 -0.1868  0.0356  0.0952
29365W        W45439   7.999   6.758   3.901 -0.1739  0.0114  0.3134
29366W        W45440  11.531  12.269   1.656  0.0765  0.1490  0.4223
29367W        W45441   6.925  11.031  12.736 -0.0904 -0.0197 -0.1100
29368W        W45442   5.150  12.567   4.673 -0.0560 -0.0518  0.0383
29369W        W45443   8.618  14.759   2.331  0.0344  0.0509  0.1327
29370W        W45444   6.218   0.480   0.986  0.1249  0.2825  0.1189
29371W        W45445   7.780   3.889  16.306  0.1950  0.0575 -0.0328
29372W        W45446   5.624   3.322   5.352 -0.0011 -0.1649 -0.1089
29373W        W45447  12.513   5.624   0.882 -0.0009 -0.0882  0.1704
29374W        W45448  11.417   3.554  16.250  0.0179  0.2138 -0.1651
29375W        W45449   9.252   0.935   0.151  0.0491 -0.1718 -0.2429
29376W        W45450  10.949  17.099  11.919  0.2283 -0.1401 -0.4177
29377W        W45451   3.048  17.551   0.962 -0.0955 -0.1021 -0.1329
29378W        W45452   9.568  10.715   4.735  0.0846 -0.1531  0.2098
29379W        W45453   7.780  13.394   1.466  0.3199 -0.0555 -0.1035
29380W        W45454   5.555  11.146  14.685  0.0784  0.1781 -0.1405
29381W        W45455   5.315  16.769   6.161  0.2921 -0.3055  0.1239
29382W        W45456  16.336  17.163  16.835  0.1177  0.1771 -0.2671
29383W        W45457  14.159   7.510   0.410 -0.1051 -0.1499  0.2346
29384W        W45458   0.493  10.883   5.304  0.2662  0.1687  0.0863
29385W        W45459  14.207   0.207   3.041  0.2064  0.0405  0.1463
29386W        W45460  12.429   5.266  15.053  0.2523 -0.2144  0.1231
29387W        W45461  13.290  10.513  14.757 -0.1478  0.3652 -0.1475
29388W        W45462  15.446  17.321   4.137 -0.0726  0.2389  0.1729
29389W        W45463   7.822   0.066  15.935  0.0459  0.0928  0.2909
29390W        W45464   2.116  14.343  14.927  0.0945 -0.0432 -0.4756
29391W        W45465   8.621  15.578  16.536 -0.1133  0.1078  0.1214
29392W        W45466  12.561   9.801   3.451 -0.0531  0.0753 -0.1555
29393W        W45467  14.429  12.884   0.243 -0.4082 -0.0414  0.3105
29394W        W45468  12.740  14.928  15.541 -0.0396  0.0638 -0.2357
29395W        W45469   2.405  17.545  14.974 -0.0380 -0.1789 -0.2785
29396W        W45470  12.047   0.630   1.264  0.1050 -0.0847  0.2066
29397W        W45471   0.585   4.743  12.216  0.2436 -0.0568 -0.0703
29398W        W45472  12.378   4.697   1.303  0.0533 -0.1934  0.0908
29399W        W45473   5.946   0.729   4.074  0.0265 -0.0083  0.0558
29400W        W45474   3.941   7.967  13.756  0.1307  0.3649 -0.1278
29401W        W45475   7.601  11.182  13.676  0.1727  0.1921  0.2439
29402W        W45476  15.955   8.713  11.878  0.0994  0.1260 -0.2086
29403W        W45477   7.981  14.314   3.195  0.1434 -0.2096  0.0161
29404W        W45478  12.783  13.139  14.670  0.1296  0.1488 -0.2768
29405W        W45479   9.607   0.969  13.540 -0.0650 -0.1286  0.1146
29406W        W45480  10.704  14.279   5.020  0.1119 -0.0210  0.0727
29407W        W45481  16.386   5.812   1.783  0.3088  0.5256  0.0373
29408W        W45482   6.636   4.750   4.770 -0.0821 -0.1093 -0.1109
29409W        W45483  16.804  13.207   1.824 -0.4408 -0.1832 -0.2079
29410W        W45484   4.551  10.177  13.321 -0.0085  0.1041  0.1796
29411W        W45485  14.115  13.882  11.492  0.2073  0.0212  0.2494
29412W        W45486   3.986   3.846   1.235  0.1130  0.1153 -0.1232
29413W        W45487  17.520   5.423  15.352 -0.0154 -0.0976  0.1009
29414W        W45488  11.380   9.846  15.221  0.0746 -0.0157  0.1394
29415W        W45489  13.754   0.220   0.725  0.1310  0.2266  0.2093
29416W        W45490   2.713  10.027  15.181 -0.0156  0.2019 -0.2013
29417W        W45491   5.060   7.393   5.425  0.0289  0.1736  0.0111
29418W        W45492  17.740  14.757   0.334  0.2440 -0.0533 -0.1733
29419W        W45493  11.030  10.478  16.787  0.4704  0.1159  0.0830
29420W        W45494   6.581  14.889   0.297 -0.0575 -0.0690 -0.2831
29421W        W45495   4.218  14.743  16.603 -0.1132 -0.0464  0.1748
29422W        W45496  14.072  12.938   5.239 -0.0530  0.1158  0.1635
29423W        W45497   4.886   4.284   2.119  0.1907 -0.1194 -0.0665
29424W        W45498   5.463   5.033   0.979 -0.2830 -0.0943  0.4094
29425W        W45499   1.107  12.857   2.401  0.1250  0.1694  0.0912
29426W        W45500  13.126  12.296   1.152  0.0309 -0.0190  0.1962
29427W        W45501   4.531   3.672   3.796 -0.0845  0.0177 -0.1657
29428W        W45502  12.126   4.547  15.655  0.0816 -0.0695  0.1282
29429W        W45503   0.055   2.152   2.698 -0.1495 -0.0513  0.3835
29430W        W45504   8.458   2.415  15.789 -0.1872  0.2023  0.2641
29431W        W45505  10.814   2.978  15.136  0.0928 -0.1615  0.0334
29432W        W45506  15.168  10.855  13.390  0.1672  0.1198  0.0089
29433W        W45507   0.467   2.337   4.486 -0.1091 -0.2406 -0.2162
29434W        W45508   1.206   6.494   5.559 -0.2953  0.2048  0.1248
29435W        W45509  16.191   8.367   4.093  0.1167 -0.2025 -0.0068
29436W        W45510  13.234  16.499  13.426 -0.0525 -0.1591  0.1474
29437W        W45511   9.425   7.560  13.960 -0.2312 -0.1734 -0.1403
29438W        W45512   0.307  12.645   5.082 -0.1945 -0.0901  0.0445
29439W        W45513   4.723   8.245  15.219 -0.0893  0.0523  0.2844
29440W        W45514   0.741  17.356  13.672 -0.1655 -0.1765  0.0891
29441W        W45515  14.116  13.143   3.119 -0.0672  0.1596 -0.0916
29442W        W45516  10.059  13.561   3.185 -0.0430 -0.2300 -0.1559
29443W        W45517  16.769  12.693  16.460 -0.1856  0.2373  0.1182
29444W        W45518   3.407   1.040   4.932 -0.1249 -0.3409 -0.2956
29445W        W45519   0.562  11.594   0.705 -0.0257  0.1214 -0.1556
29446W        W45520   6.461  11.308   3.967 -0.1829  0.1763  0.3136
29447W        W45521  16.942   3.308   2.638 -0.0006  0.1256  0.1224
29448W        W45522  12.077   5.726   4.703 -0.0096  0.1158 -0.0355
29449W        W45523  11.674   3.519  13.903  0.1599 -0.3580  0.1168
29450W        W45524  14.874   1.817  16.409  0.2455  0.2539 -0.0585
29451W        W45525   5.943   9.430  14.963 -0.0680 -0.0296 -0.0705
29452W        W45526  11.498   8.661   6.019 -0.1786 -0.1167  0.1450
29453W        W45527  14.791   5.162  16.351 -0.4719 -0.2247  0.0666
29454W        W45528  13.184  16.638  14.020  0.2171  0.3448 -0.1973
29455W        W45529   9.333  14.871   5.724  0.2930  0.1118 -0.1304
29456W        W45530   6.771   9.012  17.004  0.1699 -0.1268 -0.2255
29457W        W45531  17.207  12.046   4.341 -0.1678 -0.1155  0.0359
29458W        W45532   5.178  11.206   0.291  0.4123 -0.1499 -0.0841
29459W        W45533   3.915   8.876  12.555 -0.2396  0.0324  0.1817
29460W        W45534  15.745   9.542   0.642 -0.1239  0.0589  0.0878
29461W        W45535   5.950  12.830  15.977  0.1027 -0.2513  0.1399
29462W        W45536   6.567  14.961   2.140 -0.0505  0.0526 -0.2057
29463W        W45537   7.632   2.643  13.348  0.2595  0.1965  0.0657
29464W        W45538   2.427  15.951   2.371 -0.3018 -0.2954  0.1694
29465W        W45539  13.227   3.619   0.259  0.0500  0.0620 -0.0050
29466W        W45540  13.646   6.281  15.332 -0.0499 -0.1167  0.3569
29467W        W45541   4.037   6.107   3.025 -0.1687 -0.0817  0.0590
29468W        W45542   1.389   5.726   4.439 -0.2321 -0.1754  0.2904
29469W        W45543  14.901   3.648   0.149  0.0007 -0.0933  0.0893
29470W        W45544  12.684   2.804  16.985  0.2422  0.2127  0.0722
29471W        W45545  16.658  16.226  12.823  0.0435  0.0615 -0.1801
29472W        W45546  16.301   0.654   1.987  0.2704  0.2366  0.1163
29473W        W45547   7.730   9.476   4.783 -0.1918 -0.0688  0.1120
29474W        W45548  13.623  11.735   0.583 -0.2567  0.2962 -0.0989
29475W        W45549   2.550  14.154   0.125 -0.1220  0.1161  0.1790
29476W        W45550  11.890   5.188   4.587 -0.1823  0.3719  0.0785
29477W        W45551  11.375   1.013   1.128  0.0244  0.2779  0.0148
29478W        W45552   1.001   8.681  17.034  0.3198  0.2691 -0.1681
29479W        W45553  13.411   4.129  12.890  0.1594  0.0155  0.0890
29480W        W45554   1.585   0.606  15.828 -0.0789 -0.2368  0.0289
29481W        W45555   8.837   4.665  15.033 -0.0954 -0.1959 -0.0415
29482W        W45556  10.092   0.154   3.070  0.0120 -0.0718  0.0234
29483W        W45557   0.435  14.026   4.960  0.2785 -0.1390 -0.2646
29484W        W45558   7.135   1.781   4.270 -0.2388  0.1769  0.0999
29485W        W45559  12.683   3.626  14.247  0.0648 -0.2719 -0.1650
29486W        W45560  13.335  16.306   2.200  0.0200  0.1023  0.2031
29487W        W45561   3.411   3.694   2.410  0.3992 -0.1591  0.1583
29488W        W45562  13.385   3.948   3.223  0.2016 -0.2977 -0.1703
29489W        W45563   3.670   8.229  15.208  0.2327 -0.0512 -0.1896
29490W        W45564   2.285  13.744  17.102  0.0625  0.2797  0.1534
29491W        W45565   0.464   1.324   1.037 -0.1756  0.1262  0.1106
29492W        W45566   0.762   4.489  14.721  0.0136 -0.1694  0.1553
29493W        W45567  17.522   4.067  13.898 -0.0832  0.0489 -0.0816
29494W        W45568   2.251  16.853  13.662 -0.1757  0.1964 -0.1474
29495W        W45569   5.373   7.277   3.056  0.1986  0.0532 -0.0242
29496W        W45570  16.707  15.016   0.480 -0.0770  0.1124 -0.1917
29497W        W45571  10.697  10.302   5.843  0.0999  0.1637  0.1808
29498W        W45572  16.446   8.620  12.604 -0.0392  0.2598  0.1768
29499W        W45573  13.172   0.576   4.298 -0.0494 -0.1394 -0.3921
29500W        W45574   6.208  10.258   5.158  0.2473 -0.0332 -0.3051
29501W        W45575   8.595   3.087  11.986 -0.0730  0.1941  0.0508
29502W        W45576  12.068  15.962  13.195 -0.2707 -0.1106 -0.1438
29503W        W45577  15.380   8.539   6.078  0.1986  0.2436 -0.1246
29504W        W45578  10.343   4.388  14.392  0.1413  0.0689 -0.0600
29505W        W45579   7.854  17.294   1.862 -0.1000 -0.0585 -0.1607
29506W        W45580   6.777  15.539   2.548 -0.2289 -0.0206 -0.0784
29507W        W45581  14.400   4.465   0.134  0.0503  0.0721 -0.2792
29508W        W45582   3.414   3.794  14.895 -0.0187 -0.0035 -0.3603
29509W        W45583   0.384   5.125   4.992 -0.1698 -0.2525  0.0931
29510W        W45584   4.433  11.338   5.732  0.2560  0.3219  0.1492
29511W        W45585   6.488  10.441   4.007  0.2057  0.1307  0.2610
29512W        W45586   6.764  10.858   4.847 -0.0011  0.0048  0.1990
29513W        W45587   1.949  12.314   4.734 -0.2602  0.2830  0.1970
29514W        W45588  14.209   7.692   4.183  0.0993  0.3064  0.1101
29515W        W45589  16.306  12.225   6.010  0.2605  0.5079 -0.2102
29516W        W45590  10.926  17.304  16.442  0.0128 -0.1071 -0.3645
29517W        W45591  16.504  13.593  14.646  0.0542  0.0407 -0.1279
29518W        W45592   9.936  13.975  13.644 -0.1659  0.2318  0.2038
29519W        W45593  11.182  17.589   5.347  0.0184 -0.0959 -0.0289
29520W        W45594   8.897   5.384   2.807 -0.0019 -0.0150 -0.1028
29521W        W45595  11.825  16.794   6.148 -0.2962 -0.0174 -0.3525
29522W        W45596   8.623   1.341  16.787  0.0434 -0.0610 -0.0263
29523W        W45597  15.990  12.082  15.236  0.3234 -0.2007 -0.0141
29524W        W45598   8.728  13.509  13.568  0.0555 -0.0024  0.1032
29525W        W45599   5.969  11.888  14.109  0.1402 -0.1253  0.0239
29526W        W45600   8.665  14.804   6.149 -0.1739 -0.3461  0.0173
29527W        W45601  16.562   1.200  14.591 -0.2456 -0.0117 -0.2247
29528W        W45602   3.471   0.093  16.530  0.1498  0.0377  0.3069
29529W        W45603   8.245  13.958  17.147  0.3775  0.0722  0.0844
29530W        W45604   5.657  12.778  13.734  0.1731 -0.0302  0.0516
29531W        W45605  11.669   9.914  14.672  0.0808  0.1033  0.1306
29532W        W45606   5.228   9.109  16.776 -0.0891  0.0036 -0.2672
29533W        W45607   3.302  11.111  14.917 -0.3405 -0.1270  0.0109
29534W        W45608  11.279   8.791   2.261 -0.0867  0.2260  0.1822
29535W        W45609  16.630   8.274  13.401  0.0303 -0.2076  0.3284
29536W        W45610  15.922  15.374  13.231 -0.1425 -0.1418 -0.1702
29537W        W45611  15.864  12.028   5.886  0.0841 -0.1348  0.0988
29538W        W45612   6.005   6.495   4.767 -0.2725  0.2104  0.0098
29539W        W45613  15.909   2.800   3.997  0.1631  0.1276 -0.2617
29540W        W45614  16.556   2.935   0.837 -0.1368 -0.0095  0.0761
29541W        W45615   0.171  14.043  14.835  0.0568  0.4474 -0.5692
29542W        W45616  12.245   6.704   2.888  0.1913  0.2732 -0.3043
29543W        W45617   5.887  11.720   2.417  0.2849 -0.1937 -0.1333
29544W        W45618   6.839   6.315   4.901 -0.2384 -0.3887  0.0322
29545W        W45619   0.111   3.408   1.733 -0.1996 -0.0719 -0.1467
29546W        W45620  14.763   0.350   5.108  0.5797 -0.0369 -0.1821
29547W        W45621   2.759   4.939  12.941  0.0620  0.1406 -0.0815
29548W        W45622   6.228   8.568  13.489 -0.1767  0.0050 -0.0874
29549W        W45623   0.178  12.202   1.991  0.1817 -0.1959 -0.0357
29550W        W45624  10.388  10.541   2.733 -0.1344  0.4007  0.1585
29551W        W45625   9.479   4.528  13.189 -0.3179 -0.2512 -0.1381
29552W        W45626  17.415  11.703  16.129 -0.0566 -0.1559  0.0923
29553W        W45627   8.028  12.650   5.046  0.1290  0.0269 -0.1799
29554W        W45628  15.296   2.224  12.060  0.1391 -0.1136  0.0084
29555W        W45629   6.024  13.441   0.881 -0.1239 -0.1281  0.1980
29556W        W45630   8.333  10.633  15.878  0.2011  0.0314  0.2611
29557W        W45631   2.624   9.807  16.516 -0.1669 -0.0761 -0.1412
29558W        W45632   3.986   9.908   0.926 -0.0028  0.0188 -0.0350
29559W        W45633   5.918   2.224  12.310 -0.1268  0.1766  0.1421
29560W        W45634   3.271  12.341  11.977 -0.0560  0.1262  0.0154
29561W        W45635   7.618  10.606   2.873  0.1097 -0.0114 -0.1478
29562W        W45636   5.362  13.162  13.795 -0.0224  0.0408  0.1311
29563W        W45637   6.840   7.421  15.644 -0.1535 -0.2321  0.0605
29564W        W45638   9.777   8.294   3.701 -0.0660 -0.1822  0.0173
29565W        W45639  12.482  15.978   5.428  0.1073 -0.2360 -0.1161
29566W        W45640   4.528  17.533  15.348  0.1224  0.0817  0.0527
29567W        W45641  15.411   7.443   1.772 -0.0824 -0.0819 -0.2954
29568W        W45642   4.714  15.984  16.240 -0.1039  0.0714  0.2605
29569W        W45643   7.183  13.693   4.806  0.0988 -0.0187 -0.0756
29570W        W45644  13.245   5.415  12.785  0.3677  0.3909 -0.1666
29571W        W45645  16.348   1.131  16.037 -0.0211  0.1837  0.1354
29572W        W45646  14.861   8.519  14.446 -0.1572  0.3538 -0.1906
29573W        W45647  16.726  13.277   2.486  0.1511 -0.2882  0.1562
29574W        W45648   4.247  15.840  15.825  0.0368  0.2071  0.0023
29575W        W45649  10.931  14.986  16.256 -0.1740 -0.1552 -0.0740
29576W        W45650   3.974  10.574  12.570 -0.1893 -0.0412  0.1832
29577W        W45651   6.222   1.077   5.205  0.0164  0.0688  0.2093
29578W        W45652  15.111   5.212   4.991 -0.1046 -0.0116  0.2383
29579W        W45653   2.797   1.454   4.274 -0.0668  0.0583  0.0789
29580W        W45654  11.483   4.056   2.974  0.0598  0.1098  0.1923
29581W        W45655  11.743  15.991   4.288 -0.1829 -0.0297  0.2962
29582W        W45656  11.449  10.520  16.533 -0.1549  0.1820  0.3845
29583W        W45657   4.099   2.864   5.234  0.0242 -0.0363  0.1190
29584W        W45658   2.986  14.392  12.210 -0.2189 -0.1713 -0.1537
29585W        W45659   5.681  15.054   2.481  0.1280  0.2294 -0.0067
29586W        W45660   2.557   3.948  15.816 -0.1032  0.1220 -0.2433
29587W        W45661   5.524   0.916   0.951  0.2738 -0.1206  0.0324
29588W        W45662  12.562  17.056  12.441 -0.2123  0.2982  0.0304
29589W        W45663   0.524   9.676  16.973  0.0793 -0.0120  0.0309
29590W        W45664  11.358   2.388  12.437  0.0821 -0.0258 -0.2530
29591W        W45665   3.933  10.810  15.694  0.0723  0.1309 -0.1121
29592W        W45666   6.418   9.818   3.624  0.2009 -0.2287  0.1349
29593W        W45667  10.757   9.177  14.898 -0.3837 -0.0368  0.0483
29594W        W45668   1.179   7.535   3.707 -0.0817  0.3752 -0.0598
29595W        W45669  17.398  12.052  16.554  0.3188 -0.3085 -0.0012
29596W        W45670   7.805  13.302   0.960 -0.1114  0.0566 -0.2349
29597W        W45671   7.648  16.375  16.376  0.2305 -0.1473 -0.1220
29598W        W45672  17.725  17.332   3.355 -0.2787  0.0907 -0.1040
29599W        W45673  17.543  11.696  13.923  0.1588 -0.1619  0.3871
29600W        W45674  11.134   3.724   2.132  0.2443  0.1767 -0.0542
29601W        W45675  12.969   8.168   5.647 -0.0269 -0.0551  0.2016
29602W        W45676   7.538  17.061   0.130  0.0661 -0.1294  0.0801
29603W        W45677  13.809  14.746  15.372 -0.1381 -0.0372  0.4420
29604W        W45678   8.234  16.412  13.286 -0.0013  0.0548 -0.0910
29605W        W45679  15.705  13.001   2.549 -0.0842 -0.0275 -0.1986
29606W        W45680   8.179   6.264   4.255  0.0444  0.1959  0.2278
29607W        W45681   0.081   1.743  14.285 -0.0243  0.1404  0.3194
29608W        W45682   8.977   0.462  16.524  0.0250  0.0697  0.0978
29609W        W45683   2.685  12.586  14.135  0.3272 -0.0904 -0.1697
29610W        W45684   5.347   5.994  15.346 -0.0807 -0.1889 -0.0447
29611W        W45685  15.834   1.952   5.896  0.0184 -0.2158  0.1146
29612W        W45686  12.189   6.634   4.378  0.0590 -0.0506  0.0505
29613W        W45687   6.594  16.906   6.370 -0.1207 -0.0315 -0.0759
29614W        W45688  12.631   3.549   1.200 -0.1055 -0.1360 -0.2649
29615W        W45689  14.282  11.744  11.908  0.1480  0.3590  0.1473
29616W        W45690  13.873  16.687   2.202 -0.1548 -0.1067 -0.0523
29617W        W45691  15.828  17.670   2.336 -0.2110 -0.0434  0.0513
29618W        W45692   7.164  12.800  12.427 -0.0654  0.0172 -0.1338
29619W        W45693   5.552  13.944   3.551 -0.1270 -0.1163  0.1937
29620W        W45694   5.856   3.619  16.320 -0.0713  0.0248 -0.2179
29621W        W45695  16.328   8.210  11.741 -0.4386 -0.1057 -0.0920
29622W        W45696   5.997   8.825   3.551 -0.4280  0.1203  0.3110
29623W        W45697  11.615  17.382   1.748  0.0123  0.2605  0.0279
29624W        W45698  10.624  10.062  15.938  0.0289 -0.1737  0.1339
29625W        W45699  12.265   3.662   2.588 -0.0124 -0.3167 -0.5161
29626W        W45700   7.063   8.540  13.804  0.2553 -0.0222 -0.1759
29627W        W45701   8.017   8.166  12.393 -0.0471  0.0651  0.0924
29628W        W45702  13.085  10.969  14.725 -0.2821 -0.4125  0.2260
29629W        W45703   2.039   6.951  13.640  0.2229 -0.1950 -0.1839
29630W        W45704   2.529  15.504   2.060 -0.1629 -0.2541 -0.1649
29631W        W45705  16.789   5.776   1.531  0.0941  0.1326 -0.3585
29632W        W45706  10.583   8.063  14.076  0.2278  0.2083  0.0872
29633W        W45707  15.095   9.910   2.074  0.4601  0.0917  0.1432
29634W        W45708   3.112   7.371  16.759  0.2628  0.1474 -0.2260
29635W        W45709   7.655   1.370  13.359 -0.1151 -0.2175 -0.3869
29636W        W45710  11.450  16.561  13.232 -0.0732  0.0173  0.0818
29637W        W45711  13.435   6.397   5.083 -0.1163 -0.2113  0.0204
29638W        W45712   8.778   6.578  14.643  0.0790 -0.1700  0.1714
29639W        W45713   0.201   4.608   3.643  0.1467  0.0087 -0.1330
29640W        W45714  14.404  15.854   3.598 -0.1963 -0.1964  0.0252
29641W        W45715   0.502   6.827   1.335  0.2132  0.1020 -0.2115
29642W        W45716   5.052   6.773   1.093 -0.3988  0.3135 -0.1441
29643W        W45717  11.116   7.346  15.814 -0.2835 -0.2394  0.2469
29644W        W45718  10.059   9.794   0.172  0.1143 -0.1445  0.0989
29645W        W45719  17.364  13.373  14.836  0.1139  0.2151  0.0093
29646W        W45720   9.695  14.297   2.871 -0.2679  0.2342 -0.0655
29647W        W45721   1.368   2.063   0.074 -0.0609  0.4694  0.1355
29648W        W45722   5.538  11.086   0.727 -0.1456  0.0285 -0.0006
29649W        W45723   3.229   2.987  14.118  0.0191  0.2342  0.1029
29650W        W45724  16.152   3.378  14.706 -0.0488 -0.1211  0.1267
29651W        W45725   8.204   3.353  13.459 -0.3510 -0.1613  0.1077
29652W        W45726   2.339   2.197   4.897  0.0704  0.0762 -0.2367
29653W        W45727  11.085   8.458   0.428 -0.1480  0.0704 -0.4330
29654W        W45728   4.973   7.381  11.685 -0.0460  0.1254  0.0966
29655W        W45729  16.973  11.491   1.806  0.2145 -0.0733  0.0442
29656W        W45730  17.216  13.277   2.390 -0.3170 -0.0956  0.1422
29657W        W45731  13.416  16.957  16.253  0.0845  0.0191 -0.0398
29658W        W45732   2.146  10.181   6.466  0.1720 -0.0098  0.0012
29659W        W45733   9.327   9.211   0.268  0.1619 -0.1560  0.1415
29660W        W45734   5.185   8.027  14.452  0.0987 -0.3645  0.3415
29661W        W45735  13.647   8.657  14.272 -0.0309  0.3696  0.3289
29662W        W45736  12.433  15.119  12.060  0.0040 -0.2217  0.2045
29663W        W45737  16.722  15.602  15.017 -0.2418 -0.2034  0.1479
29664W        W45738   9.144  17.385  16.791  0.0439 -0.1186 -0.1222
29665W        W45739   3.081  12.949   5.134  0.0540 -0.0764  0.1612
29666W        W45740   0.720   8.899  15.767 -0.1556 -0.0774 -0.0141
29667W        W45741  11.279   0.880   4.578  0.3657  0.1402 -0.1911
29668W        W45742   3.876  14.167  15.275 -0.1635 -0.1200 -0.1104
29669W        W45743   6.296   0.689   0.504 -0.0263 -0.1377 -0.2628
29670W        W45744  15.290   7.328   5.866 -0.0600 -0.0209  0.0789
29671W        W45745   9.380  16.002   4.359 -0.0043  0.1229 -0.0091
29672W        W45746  16.432   7.511   3.955 -0.4303  0.1368 -0.1083
29673W        W45747   6.806  12.579  11.975  0.0398  0.0149 -0.0147
29674W        W45748   2.669   7.065   4.290 -0.2792  0.1540  0.0475
29675W        W45749   1.909   8.481  12.062 -0.2648 -0.1446 -0.2900
29676W        W45750  14.227   0.131   5.975 -0.1555  0.1214 -0.0945
29677W        W45751   1.471  11.806   5.995  0.1513 -0.2301 -0.1159
29678W        W45752  12.430  11.650  12.987 -0.0795 -0.4737  0.1139
29679W        W45753  11.073   4.398   5.049 -0.0892 -0.0885  0.1235
29680W        W45754   9.214  13.040   3.035  0.3484 -0.2102 -0.0238
29681W        W45755   7.313  16.013  15.512 -0.1830  0.1063 -0.2415
29682W        W45756  14.475  12.789  15.910 -0.0151 -0.0889 -0.1992
29683W        W45757   3.785   3.793   2.007  0.1381  0.0153  0.1977
29684W        W45758  17.611  15.820  11.885 -0.2421  0.0188 -0.3278
29685W        W45759   2.018   3.179   4.037  0.0363 -0.1737 -0.2623
29686W        W45760  15.705  17.157   3.081 -0.1003  0.0649  0.0176
29687W        W45761  16.103  16.013   0.942  0.1600 -0.2072 -0.2505
29688W        W45762   8.694  15.007   2.768  0.4762  0.1863 -0.4022
29689W        W45763   9.160  11.860   3.242  0.2002  0.0602  0.1445
29690W        W45764  16.657   5.389   1.964  0.0313  0.1453  0.3883
29691W        W45765  17.543   1.108   4.647  0.0479  0.0691 -0.0265
29692W        W45766   8.612  10.410   3.523 -0.0300 -0.0112 -0.2441
29693W        W45767  16.792   9.770   5.038  0.2054 -0.2091 -0.2309
29694W        W45768  10.564   6.116  13.956  0.3523  0.1925 -0.0481
29695W        W45769  11.644  12.158  16.739  0.0125  0.1732  0.1987
29696W        W45770  14.763  10.240   3.151 -0.0061  0.0593 -0.0411
29697W        W45771   8.763   9.019  14.782  0.2589 -0.0578 -0.1693
29698W        W45772   6.410  13.081  14.998  0.0154  0.3138  0.1290
29699W        W45773  15.218  12.727  15.253 -0.1303 -0.2121  0.3508
29700W        W45774  16.657  14.048   3.774 -0.0108  0.1515 -0.0135
29701W        W45775   4.138   7.014   5.267 -0.1419 -0.3161  0.2149
29702W        W45776   0.004   7.864  11.741  0.1031  0.0831  0.0289
29703W        W45777   9.760  16.521  16.044  0.3808 -0.1327  0.0516
29704W        W45778  15.512   3.496  12.715 -0.1655 -0.4243  0.3190
29705W        W45779   7.812   2.534   2.866  0.0862  0.4001 -0.1374
29706W        W45780   3.913   1.816  13.136  0.1005  0.0223  0.1122
29707W        W45781  12.681  11.564  11.958  0.2681  0.1195 -0.0591
29708W        W45782  14.050   5.595  16.724 -0.0612 -0.1752 -0.0388
29709W        W45783   1.657  16.188   0.134 -0.0013 -0.2625  0.1013
29710W        W45784  12.384   4.837  14.775  0.0329 -0.0658 -0.0926
29711W        W45785  12.818   8.332   0.945 -0.2220  0.1011 -0.0201
29712W        W45786  17.268  10.539  16.597 -0.0462  0.0168  0.0545
29713W        W45787  10.554   5.755   3.516  0.4229 -0.1652 -0.0100
29714W        W45788  17.149   5.401  13.492 -0.3887 -0.1959 -0.0117
29715W        W45789  13.442  16.930   3.739  0.4592 -0.2271  0.0037
29716W        W45790  17.709  17.488  13.805  0.1458  0.3104  0.0341
29717W        W45791   8.555   2.090  12.566  0.1537  0.2123  0.2361
29718W        W45792   4.470   6.898   0.464 -0.2227 -0.1467  0.1088
29719W        W45793  10.325   9.497   1.907  0.1323 -0.0253 -0.1092
29720W        W45794   9.882   3.050  15.094 -0.0097  0.0406  0.0015
29721W        W45795  17.397   8.789  16.259 -0.0326  0.1382 -0.4757
29722W        W45796  16.179   1.683   1.123 -0.1963 -0.0854  0.0007
29723W        W45797  12.585   6.345   4.236 -0.2373 -0.1191 -0.0558
29724W        W45798   4.637  12.879  15.299 -0.4722  0.2815  0.1176
29725W        W45799   3.748  15.051   1.562 -0.0687 -0.1954 -0.0381
29726W        W45800   9.437   7.494   3.723 -0.2308  0.1169 -0.2138
29727W        W45801  14.318  16.247   0.624 -0.1242  0.1777 -0.1479
29728W        W45802   8.097  13.729   4.424  0.0269  0.0154  0.0013
29729W        W45803   1.262   8.937  15.809 -0.0697 -0.0983 -0.2394
29730W        W45804   1.506   2.989  13.249  0.2674 -0.0404 -0.0894
29731W        W45805   8.351   4.619  14.586  0.2006 -0.1561  0.1732
29732W        W45806   8.386  11.392  11.848  0.0545  0.0945  0.4262
29733W        W45807  17.585   5.157  15.864  0.0600 -0.1719 -0.1227
29734W        W45808  14.960   5.288  14.041 -0.0682 -0.0643 -0.1465
29735W        W45809   5.519  10.122  15.807 -0.2531 -0.2075  0.1622
29736W        W45810  13.777  13.270  16.292  0.2110  0.2584 -0.3979
29737W        W45811   2.153   1.926   1.340  0.2212  0.0982  0.0047
29738W        W45812  11.926   5.646   0.760  0.4173  0.1630 -0.0728
29739W        W45813  11.418   0.911   5.497  0.0703 -0.0098  0.1426
29740W        W45814  12.209   1.044   0.641  0.0569 -0.0088 -0.0149
29741W        W45815   3.648  10.161  16.882  0.0363 -0.0245 -0.1372
29742W        W45816  13.280   6.028  14.457  0.3046 -0.0573 -0.2692
29743W        W45817   9.826   2.449   3.930  0.1875 -0.3382 -0.2862
29744W        W45818   0.985   5.439  13.209 -0.0223 -0.0200 -0.0296
29745W        W45819  12.324   2.280  12.951 -0.0901  0.2258  0.2246
29746W        W45820  12.822   1.436  15.714 -0.1456  0.0128  0.2124
29747W        W45821   1.310   6.408   1.343 -0.1797 -0.1600 -0.1485
29748W        W45822   9.701   0.462   5.291 -0.2033 -0.0846 -0.1133
29749W        W45823   9.860   2.148  13.020  0.0152  0.1306 -0.1043
29750W        W45824   5.127  10.405   2.623  0.2794 -0.1617  0.2142
29751W        W45825  17.233  14.290   2.429  0.0992  0.0367  0.1157
29752W        W45826   0.157  12.724   2.777 -0.1176 -0.0558  0.0184
29753W        W45827   5.422   6.984  14.479  0.0489 -0.1075 -0.1497
29754W        W45828  14.105   2.485  15.145 -0.2887 -0.0123 -0.0086
29755W        W45829  11.473   0.335  12.225 -0.1066  0.1650 -0.3503
29756W        W45830  12.640  10.957   5.502 -0.0665 -0.0814  0.0747
29757W        W45831   4.758  17.731  14.897  0.1325 -0.1716  0.2159
29758W        W45832  15.469  12.120  13.972 -0.1794 -0.1540  0.0330
29759W        W45833  16.718   2.668   3.209 -0.2242  0.1036 -0.2146
29760W        W45834   0.505   6.396   4.366  0.1967  0.1690 -0.0960
29761W        W45835   8.874  14.448   6.534 -0.1033 -0.1660  0.1052
29762W        W45836  12.524   0.236  15.101 -0.2771 -0.1158 -0.1228
29763W        W45837   0.152  14.473   5.045  0.1888 -0.2804  0.0269
29764W        W45838   1.512   2.082  11.721  0.3440 -0.0675  0.1413
29765W        W45839  17.572  14.777   5.193  0.0498 -0.0921 -0.3103
29766W        W45840   0.590   5.845  13.223  0.0324 -0.0036 -0.1670
29767W        W45841   0.762  12.566   5.626 -0.1132  0.4312  0.1448
29768W        W45842   9.411   9.869   4.163  0.0179  0.0114  0.2526
29769W        W45843   0.447  10.948  16.168  0.1286 -0.0232 -0.2675
29770W        W45844  13.716  13.228   5.118  0.1355 -0.1844  0.3876
29771W        W45845   4.775  10.995   5.787  0.1011 -0.1106 -0.0642
29772W        W45846   8.895   7.499   5.093  0.0623  0.0495  0.0916
29773W        W45847   0.474  13.681   1.682 -0.2497  0.0220  0.1379
29774W        W45848   9.823   1.301   2.162 -0.2480  0.3303  0.2952
29775W        W45849   2.914  14.442   0.345 -0.1495 -0.5087  0.0242
29776W        W45850   5.104   9.515  16.470 -0.0040  0.2292  0.0593
29777W        W45851  11.029   8.796  12.414 -0.0963 -0.1508 -0.1514
29778W        W45852  12.759   1.949   3.620  0.0831 -0.0418  0.0250
29779W        W45853  11.576  17.408  13.043 -0.0629  0.2417 -0.2117
29780W        W45854  14.068  11.117  13.278  0.0277 -0.1602 -0.2198
29781W        W45855  13.763  13.878  14.464 -0.3807  0.4040 -0.1312
29782W        W45856   6.876   4.685   1.449  0.1492 -0.1933  0.0329
29783W        W45857   0.837   5.320  14.238 -0.0893 -0.0742 -0.1934
29784W        W45858  14.393  12.978  14.251 -0.1009 -0.0114 -0.0198
29785W        W45859   1.546   8.658  16.254  0.0559  0.1536 -0.1572
29786W        W45860  15.250  15.271   0.783 -0.0898  0.0130  0.0103
29787W        W45861   6.482   9.803  16.457 -0.1011 -0.0690  0.0048
29788W        W45862  17.457  11.545  12.922 -0.1646 -0.2099 -0.0458
29789W        W45863  15.554   1.239   0.635 -0.1249  0.0327 -0.2270
29790W        W45864   0.965   4.652  16.085 -0.0548  0.1979 -0.0946
29791W        W45865   5.935  12.344  15.820 -0.1449 -0.3971 -0.0397
29792W        W45866  13.506   1.083   2.357 -0.0299  0.0073 -0.2980
29793W        W45867  11.468  16.787  16.602 -0.1251  0.0331  0.2871
29794W        W45868   0.461  11.963  11.466 -0.0653 -0.1281  0.0582
29795W        W45869   9.619  11.773  15.136  0.1977 -0.5123 -0.1464
29796W        W45870   1.577   2.033  16.142  0.0079 -0.1021  0.1466
29797W        W45871  15.582  12.743  12.602 -0.2538  0.1362  0.0448
29798W        W45872   9.914  10.699  16.875 -0.0971  0.0194 -0.0348
29799W        W45873  17.327   2.372   0.541  0.1640  0.1908  0.1868
29800W        W45874   9.729  15.120  13.410  0.0411  0.0573  0.4286
29801W        W45875   3.322  13.345   4.166  0.2131  0.1167 -0.0204
29802W        W45876   2.090   1.286   5.218 -0.1451  0.0979  0.1128
29803W        W45877  14.625  11.798  15.911 -0.2279 -0.2892 -0.2986
29804W        W45878   3.726  13.522   4.898  0.0067  0.0159  0.0371
29805W        W45879   2.273  10.892  14.098 -0.2851  0.0838 -0.1388
29806W        W45880  14.225   2.699   2.359  0.2190  0.0467  0.1067
29807W        W45881   9.288  13.337   3.485  0.0209  0.2365  0.1589
29808W        W45882  11.043  12.815   2.464  0.1709 -0.1852  0.3141
29809W        W45883  15.532   7.350  13.864 -0.0581  0.2485  0.0702
29810W        W45884  11.449  12.371  15.016 -0.1089  0.0972 -0.1933
29811W        W45885   8.094  17.160   5.102 -0.2487  0.1694 -0.0900
29812W        W45886  16.572  13.421  15.297  0.2740  0.2320  0.1790
29813W        W45887   3.304  13.707  13.173 -0.1444  0.1406  0.1537
29814W        W45888   1.263   8.564   5.908 -0.1895 -0.1647 -0.1471
29815W        W45889  12.417  16.681   5.368  0.2345  0.0291  0.1394
29816W        W45890  17.015   1.555   0.663 -0.0474  0.0039  0.4037
29817W        W45891   9.399   3.574  12.470 -0.1076  0.0785 -0.2933
29818W        W45892  17.541  11.611   4.514 -0.2824  0.1248  0.2567
29819W        W45893  17.355   2.087   4.694  0.1842  0.0553  0.0019
29820W        W45894   1.498   0.079   3.558  0.4586 -0.4543  0.1345
29821W        W45895   7.919   1.253   6.414  0.3168  0.1855  0.1203
29822W        W45896   7.308   6.383  16.877  0.3046  0.2613  0.0858
29823W        W45897  11.459  16.936   1.973  0.1165  0.0868 -0.1350
29824W        W45898  16.699  12.956   5.247  0.0105  0.2745 -0.1321
29825W        W45899  14.245   0.625   4.334 -0.2541  0.1122 -0.6435
29826W        W45900   7.761   4.199  12.678  0.2037  0.0589  0.0934
29827W        W45901   3.184  15.352  16.419 -0.0670  0.0413 -0.1482
29828W        W45902  10.829   1.586  13.871  0.0136  0.1288  0.0297
29829W        W45903   1.381  13.639  13.890  0.1292 -0.2477 -0.0913
29830W        W45904   8.327  11.515  15.475  0.2345  0.1254 -0.1183
29831W        W45905   7.981   4.764  14.957  0.0812  0.1271 -0.0598
29832W        W45906   0.416  11.474  12.356 -0.0327 -0.0658  0.2743
29833W        W45907   6.128  15.253   2.356 -0.2871 -0.2656  0.1951
29834W        W45908   9.239   6.065  15.008 -0.1147  0.0904  0.1757
29835W        W45909  13.219   5.090  14.264  0.0235 -0.0034  0.2822
29836W        W45910  11.208   2.026   4.948  0.0111 -0.1331  0.0645
29837W        W45911   9.006   3.658  13.249  0.0789  0.0087 -0.2182
29838W        W45912   3.142   6.592   0.804  0.0828  0.1148 -0.0188
29839W        W45913  12.500   8.433  16.251  0.1117 -0.0663 -0.0066
29840W        W45914   1.879  11.474   1.417 -0.1075 -0.0519  0.1870
29841W        W45915   0.546   9.869  13.626 -0.0721  0.2356  0.0380
29842W        W45916   1.435  11.915   2.007  0.2444  0.5947  0.2497
29843W        W45917  12.385   6.077   1.713 -0.1449 -0.0376  0.0998
29844W        W45918   4.483   6.474  16.161  0.2980  0.0925 -0.0233
29845W        W45919  15.830   9.377   3.827 -0.0549 -0.1991 -0.2659
29846W        W45920  17.274   5.552   0.457  0.3658  0.0646  0.2729
29847W        W45921   5.505  14.346   1.718 -0.0864 -0.0581  0.0270
29848W        W45922   0.079   9.710   0.031  0.1352  0.1785 -0.2370
29849W        W45923  10.234   6.583  15.387  0.1931  0.0805 -0.0313
29850W        W45924  13.567  10.000  14.611  0.2398 -0.1535 -0.0349
29851W        W45925  12.279  14.388  11.528 -0.1574 -0.0440  0.1943
29852W        W45926  11.510   1.938   5.788 -0.2626  0.2329 -0.0272
29853W        W45927   4.805   0.471   4.959  0.1049  0.0349  0.3831
29854W        W45928   9.161   9.125   1.275  0.2465  0.1552 -0.4040
29855W        W45929  10.027   0.618  16.524 -0.4248  0.0655 -0.1885
29856W        W45930   4.377  16.484  12.581 -0.0610 -0.0040  0.0929
29857W        W45931   6.015  10.233   3.041 -0.2570  0.0536 -0.0959
29858W        W45932  13.618  11.783   0.119 -0.2469  0.0581 -0.3940
29859W        W45933   0.777   7.369   4.644  0.2311 -0.0927 -0.1132
29860W        W45934  13.390  13.261   3.692 -0.0011  0.0401 -0.0340
29861W        W45935   6.300  15.782  12.658  0.4015 -0.2535 -0.1041
29862W        W45936  17.000   0.010   1.943  0.0004  0.1994  0.2733
29863W        W45937   9.904   5.769   5.912 -0.1409  0.1114 -0.1408
29864W        W45938  17.338   2.296   2.498 -0.2628 -0.1483  0.0955
29865W        W45939  10.389   3.018   0.684 -0.0733 -0.0246 -0.1429
29866W        W45940   1.357  10.412  13.299 -0.0728 -0.3470 -0.0797
29867W        W45941   5.505  10.061  12.373  0.0223  0.0228 -0.4536
29868W        W45942  17.182  16.281  11.867  0.1326  0.1090 -0.1575
29869W        W45943  13.223   3.459  16.016  0.2608 -0.0699 -0.1531
29870W        W45944  10.128   1.238  12.170  0.0455 -0.0892  0.1222
29871W        W45945   1.668   0.085  14.280 -0.3055 -0.0615 -0.1514
29872W        W45946   6.852  14.657   5.594 -0.2633  0.1177 -0.1104
29873W        W45947   9.426   6.289  13.666 -0.1214 -0.2140  0.0969
29874W        W45948   8.769  13.432   6.164 -0.1182  0.2631 -0.0516
29875W        W45949  13.219  17.299  15.837  0.0902  0.0293  0.0367
29876W        W45950   9.766  17.365  16.130 -0.1863 -0.1518 -0.2709
29877W        W45951  11.125  15.932   0.279 -0.1173 -0.1329  0.0798
29878W        W45952   0.499  12.173  16.298  0.2664  0.1566 -0.0863
29879W        W45953  13.595   4.653   0.757  0.3206  0.1207  0.1378
29880W        W45954   4.397  11.135  13.375  0.1740 -0.1457 -0.1170
29881W        W45955  12.613   4.528   3.415 -0.2625 -0.2046 -0.3027
29882W        W45956  15.955   8.879   4.293  0.1715  0.1925  0.0182
29883W        W45957   7.593   0.198  14.037 -0.2302  0.3521 -0.2772
29884W        W45958   6.438  12.105  15.757 -0.0054 -0.1658  0.0820
29885W        W45959  11.707   6.409   4.216  0.0745  0.1688  0.2168
29886W        W45960  11.460   4.773   5.486 -0.1329 -0.0486 -0.1110
29887W        W45961   8.840   0.806   0.453 -0.1643 -0.2098  0.0940
29888W        W45962  16.232  17.740   0.515 -0.1231 -0.0144  0.3450
29889W        W45963  12.578  14.752  12.464 -0.1027 -0.2001  0.0492
29890W        W45964  16.813   8.619  14.203  0.0843 -0.0628 -0.3467
29891W        W45965  15.317  17.194  16.928  0.1406 -0.0861  0.3086
29892W        W45966   1.127  12.315   4.664  0.1626  0.0040 -0.0837
29893W        W45967  10.321  10.303   4.723  0.1182 -0.4541 -0.2601
29894W        W45968   2.015   1.138  17.039  0.2893  0.3117  0.2324
29895W        W45969  14.014  13.367  12.964  0.1689  0.3644 -0.1915
29896W        W45970   8.997   4.216   3.049  0.0869 -0.0906 -0.1417
29897W        W45971  14.479  16.731   0.631  0.0115  0.0767 -0.0974
29898W        W45972   8.003   1.292  16.190  0.1882 -0.0196  0.1042
29899W        W45973   0.874   2.814  15.589  0.1367  0.3046 -0.3078
29900W        W45974   3.718  15.600   6.180  0.2105  0.0696  0.1526
29901W        W45975   3.494  11.261   2.661 -0.1210 -0.0974 -0.2807
29902W        W45976  14.774   8.310   5.421 -0.2838  0.0589 -0.1143
29903W        W45977   8.593   3.931  12.187 -0.1337  0.1872  0.1698
29904W        W45978   0.072  14.472   5.926  0.1683 -0.2116 -0.1776
29905W        W45979  14.161  14.261   3.598  0.0064 -0.0774 -0.1556
29906W        W45980  15.009   7.580  17.070  0.1112 -0.4304  0.0147
29907W        W45981   0.516  14.117  12.798 -0.1571 -0.0656 -0.0949
29908W        W45982   3.820   1.345  12.840 -0.0013 -0.0431 -0.1373
29909W        W45983  12.048  14.413  16.901 -0.1719 -0.1352 -0.0539
29910W        W45984  11.356  15.409   0.309  0.1224 -0.2639 -0.0244
29911W        W45985  17.432   8.854  11.948 -0.1015  0.1395 -0.2353
29912W        W45986   0.062   8.325   5.122 -0.0067  0.0457 -0.0156
29913W        W45987   8.916  14.550   4.134  0.1725  0.0859 -0.1466
29914W        W45988  15.319   4.455  12.926  0.3703 -0.1279 -0.0889
29915W        W45989  15.749   5.233   4.564 -0.2389  0.0444  0.1471
29916W        W45990   7.259  10.480   1.198  0.1567  0.0491 -0.3714
29917W        W45991  14.416   4.163   2.537  0.1065  0.2121  0.1497
29918W        W45992   0.462  12.847   4.469  0.0313  0.2373  0.0289
29919W        W45993   2.384   3.319   0.135 -0.2874 -0.0848  0.2435
29920W        W45994  11.212   8.231  17.141 -0.1596 -0.0035 -0.2021
29921W        W45995  14.072  17.590  12.414 -0.4299  0.0402  0.1521
29922W        W45996   5.750  13.739  15.861 -0.0265  0.2008 -0.0068
29923W        W45997  11.486   5.248   3.343  0.1122 -0.0368  0.2949
29924W        W45998   2.621  16.517   5.120  0.0631  0.3280 -0.1047
29925W        W45999  17.006  14.341   1.512  0.1427 -0.0958  0.2531
29926W        W46000  16.769   6.896   3.285 -0.0450  0.0484  0.3457
29927W        W46001   3.003   5.697  10.501 -0.0328  0.2562  0.3633
29928W        W46002   7.598   1.536  12.346 -0.3388  0.3106 -0.2172
29929W        W46003   0.553   7.052  16.525 -0.3643  0.0747 -0.2798
29930W        W46004  11.025  10.192  12.883 -0.2978 -0.0487 -0.0991
29931W        W46005   7.045   2.368   3.325 -0.0421 -0.0254  0.1531
29932W        W46006  12.634  15.513  13.121  0.2582 -0.0154  0.1578
29933W        W46007  12.094   6.822  13.314  0.0582  0.3642  0.1725
29934W        W46008  11.065   6.578  13.799  0.0825 -0.0383 -0.0329
29935W        W46009   4.367   0.588   0.277 -0.5182 -0.2702 -0.0202
29936W        W46010   5.994   8.291  14.196 -0.3010  0.1510  0.3398
29937W        W46011  11.822   9.548  16.032  0.0663  0.0497 -0.0460
29938W        W46012   9.623  13.055   3.700 -0.0697  0.0926 -0.1563
29939W        W46013  15.005  14.180  12.219 -0.1516  0.0076  0.0020
29940W        W46014  12.732  12.098  12.753 -0.0678  0.1575  0.1614
29941W        W46015  10.208  12.448  14.666 -0.1689 -0.0850  0.0999
29942W        W46016   5.192  12.291   5.040 -0.2969  0.0696 -0.1561
29943W        W46017   7.707   0.802   0.442 -0.1061  0.2820 -0.0581
29944W        W46018  13.876  17.621  11.965  0.1495  0.3032  0.4768
29945W        W46019   7.799   6.284   1.386  0.0423 -0.1233 -0.0550
29946W        W46020   2.157   0.125   4.593 -0.0115 -0.1473  0.0327
29947W        W46021  16.099   1.507  16.919 -0.0076 -0.2180  0.3269
29948W        W46022   4.811   1.041  14.215 -0.1104 -0.1436  0.2262
29949W        W46023   6.223   2.760   5.790 -0.1645 -0.0449 -0.1919
29950W        W46024   1.230   6.115  13.902 -0.0267  0.0301  0.1226
29951W        W46025  11.597  11.197   2.188 -0.0322 -0.1501 -0.0234
29952W        W46026  17.600   7.961  14.921  0.2827 -0.0165  0.0452
29953W        W46027  14.270  16.421  16.420  0.0202  0.1328  0.1815
29954W        W46028  13.532  14.555   5.539 -0.3016  0.0916 -0.0961
29955W        W46029  14.095  13.611  15.875  0.3547 -0.4044  0.1040
29956W        W46030   8.811   2.458   0.738  0.0347 -0.2026 -0.0554
29957W        W46031  10.229   1.730  12.061  0.1781 -0.2715 -0.0643
29958W        W46032   0.467   9.603  13.091 -0.1674  0.0833 -0.1520
29959W        W46033  14.576  10.828   3.081 -0.0404  0.1101  0.2193
29960W        W46034  12.306   8.427   4.942  0.0618 -0.1138 -0.2572
29961W        W46035   1.412   4.819   3.683 -0.0352 -0.0854 -0.0354
29962W        W46036   1.472   5.219   1.033  0.1416 -0.2047 -0.4089
29963W        W46037   3.611   6.437  15.503  0.0926 -0.0500  0.2466
29964W        W46038   4.099   7.381   0.917 -0.1532  0.0078  0.0262
29965W        W46039   5.884   4.227   1.724 -0.3762  0.0587 -0.0014
29966W        W46040  11.544   5.004   2.873  0.0536  0.1178  0.0608
29967W        W46041   8.733  10.338  11.927  0.1066 -0.1373 -0.0186
29968W        W46042   1.163  11.622  14.361 -0.0209 -0.5050 -0.1228
29969W        W46043   0.052   9.506  16.199 -0.1695  0.0314  0.0912
29970W        W46044  12.379  13.636   3.123  0.0469  0.0811  0.1027
29971W        W46045  14.498  14.884   4.263 -0.0019 -0.3642  0.1289
29972W        W46046  11.538   5.005  17.105 -0.0811 -0.1929 -0.0332
29973W        W46047   7.911   0.453   4.269  0.3932  0.1495 -0.1484
29974W        W46048  11.185   2.739   5.696 -0.2786 -0.1192 -0.3287
29975W        W46049   3.126  15.526   3.915 -0.2841 -0.1049 -0.2676
29976W        W46050  16.786   4.849   5.031  0.0486  0.1302  0.0338
29977W        W46051   0.436  15.683  14.446 -0.4271 -0.1608  0.2677
29978W        W46052   5.240   3.096   4.192  0.2012 -0.0164 -0.1074
29979W        W46053  14.066  16.219  14.093  0.1789  0.1440  0.2784
29980W        W46054   8.905   9.786   4.072 -0.1139 -0.1767  0.1062
29981W        W46055   0.341  11.794  14.670 -0.2241  0.1330  0.1393
29982W        W46056   0.499   6.644   1.843  0.2221 -0.1375 -0.0221
29983W        W46057   9.459  11.597  13.968 -0.2450  0.2446 -0.0968
29984W        W46058   6.812  12.972  14.082 -0.0703 -0.1408 -0.0510
29985W        W46059   7.644  12.264  15.882  0.2849  0.3670 -0.3275
29986W        W46060  16.900  15.561  15.722 -0.2302 -0.1613 -0.0008
29987W        W46061  13.227  12.256  12.808  0.0351  0.0931  0.0612
29988W        W46062   4.869   9.895   0.238  0.0516  0.3179  0.0717
29989W        W46063   4.887  10.542  15.485  0.0616 -0.2890 -0.0558
29990W        W46064   2.997  17.239   2.388  0.0876  0.0940 -0.1288
29991W        W46065   9.540  10.365   2.379  0.3745  0.3012 -0.2400
29992W        W46066  13.926  15.628   1.423 -0.2625 -0.0537  0.1701
29993W        W46067   4.856  13.726  15.797 -0.1097 -0.3510 -0.2283
29994W        W46068   0.519   5.453  12.870  0.1367  0.0690 -0.1434
29995W        W46069   8.569  14.360   3.765 -0.0353 -0.0786 -0.0123
29996W        W46070  14.675   3.950  12.181 -0.1850  0.3125  0.3127
29997W        W46071  13.271  12.273   4.692 -0.1861 -0.1658 -0.3061
29998W        W46072   2.533  10.235  15.839 -0.4236  0.1936 -0.3186
29999W        W46073   2.238   7.981   1.035 -0.0510  0.0150 -0.0273
30000W        W46074   7.132   2.064   0.969  0.0528 -0.3899 -0.0358
30001W        W46075  17.244  15.649   0.944 -0.2411 -0.0825 -0.2800
30002W        W46076  16.468   4.460   4.858  0.2136 -0.2384  0.0800
30003W        W46077   7.755  14.794  14.367 -0.0446 -0.2879  0.0636
30004W        W46078  12.494   5.328  15.632 -0.0010 -0.2627  0.1262
30005W        W46079  13.047   0.049   2.310  0.1111  0.0254 -0.2632
30006W        W46080   9.739  17.709  12.742 -0.0530  0.0458 -0.2160
30007W        W46081   5.958   7.819   0.070 -0.0342  0.3223 -0.1250
30008W        W46082   1.626   7.442   2.275 -0.0517  0.1836 -0.0023
30009W        W46083   3.590   1.801  13.555 -0.3861  0.3271 -0.0526
30010W        W46084   5.242   4.861  14.876 -0.0672  0.0264  0.1101
30011W        W46085  12.131   1.100   1.176  0.2839 -0.1229  0.2779
30012W        W46086  11.422   4.866  13.818 -0.2339  0.0108 -0.0739
30013W        W46087  12.058  11.442   4.132  0.2088 -0.1970  0.2203
30014W        W46088   9.251   5.120   0.226  0.1084  0.1621 -0.1605
30015W        W46089   5.575   2.214  13.530  0.0659 -0.1511  0.1609
30016W        W46090  11.107   1.519  16.498 -0.0222 -0.0102  0.4358
30017W        W46091   8.620   8.518  15.116  0.1167 -0.2786  0.2234
30018W        W46092   2.713  11.942   5.122  0.1838  0.0224  0.1553
30019W        W46093  10.668   2.129  16.933  0.0172 -0.1536  0.0976
30020W        W46094   1.511   7.842  13.446  0.3050 -0.1788  0.0261
30021W        W46095  11.652   0.428   0.503 -0.0654  0.1770 -0.0901
30022W        W46096  17.197  15.506   4.587 -0.3487 -0.3500 -0.2399
30023W        W46097   0.514  14.646   0.130 -0.1410  0.0911 -0.0406
30024W        W46098   6.201   8.875  15.568 -0.1520 -0.2641 -0.0223
30025W        W46099  14.822   0.715  13.934 -0.2764 -0.3856  0.3133
30026W        W46100   8.158  15.715   2.757  0.2902 -0.0031 -0.0796
30027W        W46101   2.907  12.506   2.093 -0.0569  0.1740 -0.0512
30028W        W46102   6.901  17.519   1.873 -0.3136 -0.0586 -0.0478
30029W        W46103  13.411   3.059   0.162 -0.4562 -0.1028  0.1658
30030W        W46104  15.191   2.507  15.070 -0.3493 -0.3384 -0.1553
30031W        W46105  16.456   4.526   2.810  0.1789  0.0630  0.1666
30032W        W46106   2.593  10.990  11.837  0.0273 -0.0532  0.0201
30033W        W46107  16.673   5.738   3.457  0.0766 -0.0396  0.0882
30034W        W46108  15.538  16.059  15.720  0.1124  0.2338 -0.0585
30035W        W46109   9.619   8.604  15.490  0.2294 -0.0575 -0.0165
30036W        W46110   2.323   9.853   4.472  0.3951  0.0644 -0.4408
30037W        W46111  14.921   1.008  16.152 -0.1230  0.0727  0.2171
30038W        W46112   2.489   8.014   0.118 -0.0337  0.1831  0.2101
30039W        W46113   0.822  13.783   2.565  0.0886  0.1131 -0.2288
30040W        W46114  15.228   3.255  11.966  0.1934  0.0601  0.0683
30041W        W46115   3.656  13.426   0.371  0.2359 -0.0870  0.1764
30042W        W46116  17.636  15.165   5.453  0.1552  0.1271 -0.3137
30043W        W46117  15.641  13.467  14.255  0.3012 -0.0928 -0.1237
30044W        W46118   2.712   6.279   0.579 -0.1451  0.1457 -0.0940
30045W        W46119   2.701  11.442   4.248  0.2405 -0.1606  0.1654
30046W        W46120  14.999   8.451   1.718 -0.2333  0.2484 -0.0819
30047W        W46121   7.786   2.697  12.885  0.2359 -0.1145  0.0681
30048W        W46122   9.510   2.815  11.937 -0.1252 -0.1000  0.0897
30049W        W46123  12.553  17.554   1.295 -0.3353  0.2049 -0.0323
30050W        W46124  14.636  16.214   5.142 -0.1578 -0.0222 -0.2216
30051W        W46125  10.544   6.876   5.946  0.0592 -0.3278 -0.2716
30052W        W46126   1.998  16.078   4.177  0.2129 -0.1097 -0.2155
30053W        W46127   5.491  12.703   5.050  0.0063 -0.0621  0.2976
30054W        W46128  15.439  12.232   4.675 -0.0651 -0.0216 -0.1547
30055W        W46129   2.448  10.935   4.171 -0.2139 -0.1933 -0.2406
30056W        W46130   2.322   5.589  14.718  0.0853  0.1458 -0.0005
30057W        W46131  16.261   4.259   3.176  0.0742 -0.2121  0.3079
30058W        W46132  12.430   7.144  15.068 -0.1471 -0.2685  0.1283
30059W        W46133   6.944  12.961   4.109  0.0100 -0.2088 -0.0009
30060W        W46134  11.567   3.730  14.501 -0.0626 -0.2878  0.0714
30061W        W46135   5.821   8.095  16.432  0.1904  0.4905  0.2983
30062W        W46136   3.580   4.217   2.386 -0.0082  0.0412 -0.0736
30063W        W46137  12.407  17.084   0.277 -0.1884 -0.0081 -0.0756
30064W        W46138  13.829   5.102   4.096 -0.0318  0.3594  0.1494
30065W        W46139   6.248  13.438  12.166 -0.3550 -0.0217  0.0229
30066W        W46140   7.549   4.961  14.917 -0.1580  0.0793 -0.0870
30067W        W46141   2.931   5.018   4.205  0.0869  0.0327  0.1935
30068W        W46142   7.973   6.290  15.225 -0.0949 -0.0565 -0.0787
30069W        W46143   6.832   6.040  15.610 -0.0866 -0.3130 -0.0735
30070W        W46144  10.056  12.378   1.765 -0.0520  0.0220  0.1368
30071W        W46145   8.202  14.169   5.455 -0.0449 -0.0272  0.1255
30072W        W46146   3.218   5.237  16.601  0.3534  0.2935  0.0127
30073W        W46147  15.676   5.698  12.308  0.1540  0.1720  0.0625
30074W        W46148  13.648  11.145  11.937 -0.2776  0.1141  0.0751
30075W        W46149  11.461   0.570   3.240 -0.3147  0.1766 -0.3611
30076W        W46150   0.532   2.277   1.074  0.2213  0.2783 -0.0712
30077W        W46151  15.658  17.512  15.564 -0.0393  0.0358 -0.2093
30078W        W46152  10.679  11.060   2.661 -0.2181 -0.1812  0.0196
30079W        W46153   7.592  10.288  16.656  0.2392 -0.2441  0.1836
30080W        W46154  14.228  16.371   3.897 -0.0570  0.2448  0.1824
30081W        W46155  16.323  12.364  13.404 -0.2300  0.0716 -0.1991
30082W        W46156  13.883   7.951   0.447  0.0821 -0.0263 -0.0911
30083W        W46157  13.794  10.973  16.894  0.0763 -0.3122  0.2078
30084W        W46158   4.847   5.627  14.210  0.0641  0.1196  0.3476
30085W        W46159   7.300  17.477   5.823 -0.0806  0.2175 -0.2016
30086W        W46160   9.247   8.898  15.231 -0.0221 -0.2460  0.1926
30087W        W46161   7.195   0.564   5.601  0.0821 -0.0508 -0.1701
30088W        W46162  16.823   6.648  12.326 -0.2959  0.2428 -0.2237
30089W        W46163  13.803  15.076   3.704  0.0127  0.2282  0.1007
30090W        W46164   5.024  10.220  12.588  0.0986  0.1303  0.3118
30091W        W46165   3.174  16.462  13.641  0.1161  0.1552  0.2221
30092W        W46166   6.876   0.760  14.659 -0.1748  0.1571  0.0973
30093W        W46167  16.510   7.379   2.149  0.0361  0.1165  0.0009
30094W        W46168  12.163   0.049   0.410 -0.0140 -0.0021  0.2606
30095W        W46169   3.038  15.924   5.460  0.3470  0.0458 -0.1477
30096W        W46170  11.865   3.748  13.519  0.1164  0.2242 -0.0637
30097W        W46171  16.891   7.753  15.282 -0.3385 -0.0894 -0.0303
30098W        W46172   3.311  15.924  16.148 -0.4341 -0.1173 -0.4110
30099W        W46173   9.320  13.973  12.893 -0.0013  0.1623  0.3579
30100W        W46174  13.853   7.537  14.495  0.1884 -0.0476 -0.2902
30101W        W46175  12.153   6.020   2.099 -0.0056 -0.1205  0.1168
30102W        W46176   2.874  10.611   2.211 -0.2551  0.0411 -0.1124
30103W        W46177  15.499   5.789   0.342  0.1983 -0.2828 -0.2297
30104W        W46178  14.594   4.994  13.931  0.0958  0.1627 -0.1097
30105W        W46179   6.389  16.207   0.708 -0.2303  0.4934 -0.0539
30106W        W46180   6.381  17.164  15.556  0.2029 -0.5111 -0.0933
30107W        W46181   6.588   0.089   5.257 -0.3576 -0.2370  0.0475
30108W        W46182   6.546  13.717   4.663  0.0453  0.1071  0.0513
30109W        W46183   7.225   7.337   3.406 -0.0810  0.3066 -0.0543
30110W        W46184  14.988  13.966  15.013 -0.0257  0.1095 -0.0798
30111W        W46185   8.138   3.027  13.972  0.2031 -0.0142 -0.0960
30112W        W46186   4.547  16.034   0.084 -0.1861  0.3264  0.0138
30113W        W46187  15.467  14.337   2.310  0.3554  0.1807  0.0341
30114W        W46188   8.605   0.237  14.122  0.0465  0.1998 -0.1108
30115W        W46189   2.117  15.288   1.886  0.1687 -0.1628  0.4413
30116W        W46190  10.100  12.791   2.040 -0.0884 -0.0694 -0.0314
30117W        W46191  11.172   3.453   1.633 -0.3327  0.1006 -0.3439
30118W        W46192  15.601   6.654   3.898  0.1494 -0.4272 -0.4278
30119W        W46193   6.130  16.277   3.062 -0.1309  0.1794 -0.1488
30120W        W46194  15.850   3.074  16.476  0.0140 -0.2404 -0.3067
30121W        W46195  15.658   0.536  14.331  0.0180  0.0808  0.2944
30122W        W46196   4.282  12.819   2.542 -0.2351 -0.0774 -0.1951
30123W        W46197   4.836  15.431  13.885  0.2103 -0.0590 -0.1159
30124W        W46198   1.638  14.586   0.465  0.1459  0.0562  0.0766
30125W        W46199  11.167  11.209   4.248  0.1311 -0.3029 -0.0358
30126W        W46200  10.689  10.865  13.678 -0.0110 -0.0126  0.0837
30127W        W46201   2.305   2.445  13.641 -0.1040  0.1260 -0.0065
30128W        W46202   0.287   9.784   2.769 -0.2658  0.2923 -0.3157
30129W        W46203   9.903   3.097   0.861  0.3746 -0.0213 -0.1630
30130W        W46204  13.885  13.044  12.632  0.2425 -0.0100  0.4629
30131W        W46205  13.348  12.846   1.874  0.0395  0.0762 -0.2605
30132W        W46206  13.028  14.671   2.420  0.0021 -0.0992 -0.0487
30133W        W46207  10.004  13.665   4.388  0.1906 -0.1676 -0.1968
30134W        W46208   4.311   9.571   0.933 -0.1043  0.1784  0.0523
30135W        W46209   6.683  12.875  15.390  0.1498  0.2043 -0.1019
30136W        W46210  12.702  13.065   2.643  0.0626  0.1944  0.1688
30137W        W46211  11.234   5.602   4.507  0.0393  0.0743  0.0309
30138W        W46212   1.570   4.491   0.462 -0.0451  0.1385  0.1094
30139W        W46213  16.221   2.915   6.811 -0.0771 -0.1330  0.0310
30140W        W46214   8.317  17.401  12.543 -0.0001  0.1858 -0.2639
30141W        W46215  14.696  13.429  12.148  0.0250 -0.2391  0.0223
30142W        W46216   9.463   5.303   3.069  0.3573 -0.3492 -0.1039
30143W        W46217   1.553   0.395   1.011  0.1551  0.0909  0.1655
30144W        W46218  14.421  14.334   5.521 -0.1284 -0.1342 -0.2647
30145W        W46219  14.967   0.376   4.291  0.1222  0.0540  0.4095
30146W        W46220   7.611   0.877  15.180 -0.0255  0.0200 -0.0867
30147W        W46221   5.231   4.045  13.422 -0.0839 -0.1841 -0.0924
30148W        W46222  15.808   0.646   0.783 -0.3108  0.2352  0.2875
30149W        W46223   7.074  16.907  11.875  0.0232  0.0622 -0.1656
30150W        W46224   1.758   2.352   2.885  0.0991 -0.1558 -0.1134
30151W        W46225   8.796   1.135   5.737  0.4418  0.2033  0.0758
30152W        W46226   6.251  10.738   0.796 -0.1746  0.1027  0.4073
30153W        W46227   1.498  14.391   4.692  0.4453 -0.1367 -0.2877
30154W        W46228   1.540   5.699   2.996 -0.0095  0.1539 -0.1148
30155W        W46229   2.593  12.916   5.226  0.1449 -0.2776  0.2932
30156W        W46230   6.371   3.010   0.258 -0.0175 -0.0141 -0.0399
30157W        W46231   1.853   1.700  16.466 -0.3683  0.0647  0.2542
30158W        W46232  15.968  15.150  14.883  0.1282 -0.0719 -0.0415
30159W        W46233  16.012  13.228  11.963  0.1240 -0.1642 -0.3294
30160W        W46234   5.517  10.116  14.495  0.0054 -0.3164  0.1889
30161W        W46235   4.032   2.091  14.888 -0.3701 -0.0431 -0.1139
30162W        W46236  13.942   2.203  16.123  0.0891 -0.0363  0.1263
30163W        W46237  17.342   0.537   3.263 -0.0019 -0.0053  0.0788
30164W        W46238  14.315  16.794  15.335 -0.0630  0.2141 -0.1906
30165W        W46239   2.910   3.206  15.040 -0.0248 -0.0407  0.0134
30166W        W46240   6.710  17.599  13.557  0.2033  0.0536  0.0535
30167W        W46241   9.012   9.686  13.803  0.2487  0.1128  0.0508
30168W        W46242   5.228  12.876   0.892  0.0195  0.0369 -0.2606
30169W        W46243   1.965  15.387  15.295 -0.0188  0.0534  0.0708
30170W        W46244   5.162   6.931   3.825  0.0291  0.1715 -0.0647
30171W        W46245   7.464  10.265  15.459 -0.0344  0.0567 -0.1931
30172W        W46246   7.713  16.391   6.510  0.0377 -0.0607 -0.2133
30173W        W46247  16.152   7.870   3.841 -0.0624  0.4067 -0.0037
30174W        W46248   6.157   8.218  12.726 -0.0307  0.1466  0.2173
30175W        W46249   8.046   8.372   1.668  0.0253  0.0224  0.2180
30176W        W46250  16.695   3.130  13.313 -0.0406  0.2056 -0.3634
30177W        W46251  10.461   9.228  11.786 -0.2975 -0.0164  0.0243
30178W        W46252   1.510  17.548  12.473  0.1473 -0.1887  0.0084
30179W        W46253   9.185   6.314  14.574 -0.0944 -0.0279  0.0326
30180W        W46254   5.850  15.988  11.711  0.2762 -0.1174  0.0964
30181W        W46255   0.084   4.223  15.193  0.1714  0.0275  0.1647
30182W        W46256  15.493  15.484   2.466  0.1064  0.0901 -0.0746
30183W        W46257  15.584  10.719  16.833 -0.0002  0.4735 -0.2504
30184W        W46258   4.080   3.120  11.961  0.0266 -0.0549  0.0464
30185W        W46259  12.969   2.543  15.731 -0.0659 -0.0530 -0.2019
30186W        W46260   3.352  16.225  14.630 -0.2024 -0.3077  0.0015
30187W        W46261  10.591  15.452   2.844  0.2838  0.1902  0.1619
30188W        W46262  10.873   1.747  15.572 -0.0421  0.2421 -0.0510
30189W        W46263  14.572   5.575  16.565  0.1539  0.1828 -0.1572
30190W        W46264   3.907   8.294   5.555 -0.0372 -0.1855  0.2524
30191W        W46265   8.800  17.188  13.748 -0.4587  0.3399  0.1151
30192W        W46266  14.506   2.382  14.520 -0.1067  0.1115  0.0065
30193W        W46267  16.893  15.123   2.589  0.1878  0.2145 -0.0027
30194W        W46268  13.461   6.935  16.678 -0.0037  0.3078  0.1949
30195W        W46269   6.214   7.476   1.971  0.1757 -0.2345 -0.0183
30196W        W46270  13.494  15.981   1.278  0.0143  0.1692 -0.0370
30197W        W46271  15.710   1.048  14.070  0.1675 -0.0136  0.2372
30198W        W46272   2.503  17.433   4.432 -0.0322  0.0572 -0.1941
30199W        W46273  15.761  10.951  15.277  0.2038  0.1346  0.0288
30200W        W46274  13.830   9.512   2.247 -0.1780 -0.0015 -0.2363
30201W        W46275  16.211  11.567   2.920  0.3167  0.0350 -0.0026
30202W        W46276   6.900  14.833   0.693 -0.1234  0.3212 -0.5126
30203W        W46277   6.767   6.043  12.349  0.1946  0.1393 -0.1117
30204W        W46278  10.620   2.578   4.098  0.1860 -0.1208  0.0515
30205W        W46279  12.131  11.469   0.469 -0.3739 -0.2237  0.3347
30206W        W46280   3.950   5.834  13.931  0.1368  0.3055 -0.0440
30207W        W46281  13.953   6.955  16.847  0.0744 -0.0861 -0.0254
30208W        W46282   6.516   0.802  12.556  0.1563  0.0993  0.1719
30209W        W46283   0.647  10.571   5.648 -0.2478  0.0944  0.1818
30210W        W46284   0.625   7.450  15.361  0.1691 -0.1724 -0.0901
30211W        W46285   4.081   8.582   2.750  0.4124 -0.2217  0.1721
30212W        W46286  16.471   9.756   5.857 -0.2481 -0.0834 -0.0602
30213W        W46287  12.758   4.393   5.199 -0.1132  0.3273  0.0773
30214W        W46288  11.248   8.718  15.552  0.1160 -0.1346 -0.1814
30215W        W46289   8.883   3.757   1.591  0.0080  0.1820 -0.5557
30216W        W46290  14.422  14.348  13.684  0.1132 -0.1844 -0.4179
30217W        W46291   5.495   3.010  15.031 -0.2946 -0.0025 -0.2278
30218W        W46292   4.401  10.077   3.908 -0.2379 -0.1826  0.0846
30219W        W46293   3.561   3.852   4.514 -0.1995  0.1144  0.4235
30220W        W46294   8.075  14.920  15.357 -0.1170 -0.5159 -0.0840
30221W        W46295   2.673  14.807   0.705  0.1133  0.1542 -0.2458
30222W        W46296   7.410   3.235  15.300 -0.2430 -0.0955  0.1398
30223W        W46297   1.566   5.237   2.006 -0.1959  0.0241 -0.4684
30224W        W46298  16.511  15.588   0.446  0.0989 -0.2942  0.1270
30225W        W46299   5.268   9.255   4.366 -0.1429 -0.0447  0.2610
30226W        W46300   0.942   4.809  14.341  0.1202  0.2176 -0.1297
30227W        W46301  15.441   4.767   6.174  0.0469 -0.5651 -0.2409
30228W        W46302  13.911   9.492  12.459 -0.0751 -0.0772 -0.1095
30229W        W46303  13.941  10.729  12.094 -0.1032  0.1927 -0.2068
30230W        W46304  15.093  10.831   0.523  0.0487  0.1543  0.1128
30231W        W46305  16.506   8.213   4.440  0.1124 -0.1284  0.1731
30232W        W46306   2.057   4.024  16.556 -0.2876 -0.0966 -0.1036
30233W        W46307   5.504  16.019  16.593  0.2236 -0.1066  0.1099
30234W        W46308  16.272  14.634   5.631  0.0919  0.2680 -0.1949
30235W        W46309  13.399   0.457  11.148  0.1562 -0.2178 -0.0100
30236W        W46310   5.611  13.216  11.782 -0.1328  0.0332 -0.1385
30237W        W46311   3.900  17.575  16.586 -0.0286  0.1778 -0.3721
30238W        W46312  10.633   4.829   4.866 -0.0799 -0.0891 -0.2005
30239W        W46313   2.669   4.350   3.696 -0.0126 -0.1479  0.0046
30240W        W46314   6.461   4.374  12.159  0.0730  0.0768 -0.1794
30241W        W46315   5.309  11.874   5.353  0.1299 -0.0144 -0.4032
30242W        W46316   7.836   1.811  14.102 -0.2108 -0.1874 -0.0405
30243W        W46317   5.006   5.635  15.221 -0.2738  0.0298 -0.0703
30244W        W46318  16.007  17.269  15.806 -0.0402  0.2026  0.3108
30245W        W46319  14.374   9.531   3.691 -0.0850  0.1825  0.2870
30246W        W46320   9.532  14.313   4.170  0.2385 -0.0834 -0.2270
30247W        W46321   8.488   3.381   3.176  0.0885  0.0986 -0.0261
30248W        W46322   4.421   2.296   2.874  0.1349  0.0738  0.2650
30249W        W46323  11.754  15.791   1.387 -0.4315  0.1458  0.3362
30250W        W46324  16.687   3.165  16.032  0.0159 -0.2822  0.3713
30251W        W46325   1.841   9.548  11.855  0.3661 -0.2806 -0.0897
30252W        W46326   0.320   2.687   1.056 -0.2546 -0.2038 -0.0262
30253W        W46327  16.461  14.460  16.941  0.2783 -0.1177  0.1548
30254W        W46328   6.808  12.812  16.763 -0.1625  0.1241  0.1225
30255W        W46329  16.429   4.036   1.962  0.2353 -0.2211 -0.3314
30256W        W46330  13.660   4.616  16.659 -0.0004 -0.0509 -0.0625
30257W        W46331   5.924   8.735  12.499  0.1379  0.1616  0.2052
30258W        W46332   9.649   8.138  12.203 -0.3946 -0.2491 -0.2410
30259W        W46333   4.263   7.090  13.837 -0.0077  0.2845 -0.1129
30260W        W46334   6.978  13.189  17.052  0.1067  0.1031 -0.0053
30261W        W46335   4.250   0.822  12.211  0.0528  0.1873  0.0289
30262W        W46336  13.542   3.173   1.124  0.2081 -0.0889  0.1573
30263W        W46337  12.890  14.020  12.660  0.2619 -0.0291 -0.1951
30264W        W46338   8.401  10.254  16.234  0.0753 -0.4002  0.0593
30265W        W46339   6.659   1.124  14.367  0.0910 -0.3986  0.2204
30266W        W46340  13.059   3.996   2.022  0.1160  0.2033 -0.0818
30267W        W46341   7.437  15.300  14.908  0.3230  0.2463 -0.0519
30268W        W46342  10.065   0.221  14.011 -0.0281  0.2434 -0.0579
30269W        W46343  17.039   5.998  13.454 -0.1930  0.0982 -0.2877
30270W        W46344  13.605   5.680   0.441 -0.2352 -0.4600  0.2163
30271W        W46345   9.854   9.316   6.046 -0.5511 -0.1254 -0.0274
30272W        W46346   2.196  12.559  13.775 -0.3416 -0.1908  0.2376
30273W        W46347   1.909   1.439  15.647  0.3533  0.2551  0.0005
30274W        W46348   3.633   7.456   3.307 -0.0967 -0.1177 -0.1902
30275W        W46349   8.297  13.441   1.398  0.2548  0.0817 -0.2169
30276W        W46350  14.699  14.660  15.040  0.3257 -0.1529 -0.0622
30277W        W46351   3.693  14.354   0.015  0.2645  0.0366 -0.0639
30278W        W46352   6.242   6.449  12.846 -0.1859  0.1242  0.0543
30279W        W46353  16.573   0.729  15.402 -0.1993  0.0233  0.4030
30280W        W46354   7.184   5.838   1.908 -0.1153  0.0763  0.4495
30281W        W46355  13.162  11.339  16.315 -0.2405  0.0046  0.1816
30282W        W46356   0.636   4.085  14.989 -0.0950  0.0575  0.0040
30283W        W46357  12.264   7.206  12.428  0.0716 -0.2728 -0.3145
30284W        W46358   0.490   2.500   5.501 -0.0267  0.2642 -0.0587
30285W        W46359   0.430  14.681   2.290 -0.3172  0.0137 -0.0086
30286W        W46360   2.508   8.435  16.112  0.1820 -0.0545 -0.1755
30287W        W46361  17.104  13.645   1.865  0.0656 -0.0324 -0.1242
30288W        W46362   2.214  11.965  14.068 -0.0091  0.2511 -0.1683
30289W        W46363   3.111  11.868   3.421  0.1131  0.1382 -0.0523
30290W        W46364  14.947   2.649  12.545 -0.3206  0.1039 -0.0878
30291W        W46365  11.895   7.096   1.372  0.0726  0.2250 -0.1606
30292W        W46366   3.067  10.280  16.163  0.2510  0.1342 -0.1951
30293W        W46367   5.793  17.011   2.246  0.2903 -0.1112 -0.2692
30294W        W46368   4.624  10.459  17.050 -0.0690  0.0400 -0.2058
30295W        W46369  17.553   3.134   2.764  0.0480 -0.2439  0.2641
30296W        W46370   9.876   3.710  14.224  0.2413 -0.0333  0.0171
30297W        W46371   1.767   9.291   2.510 -0.0451  0.1207 -0.3408
30298W        W46372   5.300   8.306   0.025  0.1738 -0.1279 -0.0742
30299W        W46373  11.684  14.596  12.122 -0.0432  0.3796 -0.0025
30300W        W46374  14.143   2.541   1.724 -0.0969  0.0261  0.1140
30301W        W46375  14.974  14.561   4.201  0.2022  0.1440 -0.0602
30302W        W46376   5.953  11.940   0.751 -0.1342  0.0633  0.1323
30303W        W46377  16.947  14.372   4.499  0.1743  0.0211  0.0167
30304W        W46378   3.253  11.075  12.285 -0.0528 -0.0532 -0.2229
30305W        W46379  14.770   7.357   2.730  0.1795  0.0605 -0.0794
30306W        W46380  11.046  11.450   2.974  0.3553 -0.1094  0.0593
30307W        W46381   3.234  10.576  13.567 -0.1632 -0.1684 -0.2488
30308W        W46382   9.716   6.786  13.495  0.0689  0.0497 -0.1230
30309W        W46383   0.560   8.534   5.260 -0.1942 -0.0766 -0.1580
30310W        W46384  16.185  11.389  16.696 -0.1350 -0.0848  0.0305
30311W        W46385  11.850   0.106   1.419 -0.0024 -0.0432  0.0111
30312W        W46386   4.166   2.833   2.775 -0.2442  0.2077 -0.1759
30313W        W46387  11.111  14.190  15.292  0.0733 -0.0160 -0.2245
30314W        W46388  11.994   1.904   1.916  0.3378 -0.1863  0.2126
30315W        W46389   0.730  11.478  15.795 -0.0142 -0.2812  0.4540
30316W        W46390  14.827   6.538   0.914 -0.1975 -0.2560  0.3482
30317W        W46391  10.192   6.993   4.896 -0.1261  0.0232  0.0132
30318W        W46392  13.197   2.870  13.234 -0.1462 -0.0696 -0.1005
30319W        W46393  17.450  13.128   3.875  0.2417  0.1437 -0.0274
30320W        W46394  14.350   6.700  14.080 -0.3174  0.1858  0.0695
30321W        W46395  16.699  10.504  12.259 -0.0749 -0.2104  0.2410
30322W        W46396   0.498   9.337   2.600 -0.2445 -0.0118 -0.0622
30323W        W46397   5.760  14.711   3.675 -0.1444  0.1265 -0.0917
30324W        W46398   2.881   1.800  11.766  0.0508 -0.0421 -0.0638
30325W        W46399   4.026   2.375  12.121 -0.0742 -0.1989  0.1431
30326W        W46400   6.655  17.101   1.630 -0.0816  0.0008  0.0942
30327W        W46401   7.783  13.586   6.162  0.1306 -0.4365 -0.2310
30328W        W46402  10.715   3.451  13.432 -0.0526 -0.0019  0.1125
30329W        W46403   5.182  15.868  15.667 -0.4418 -0.2676  0.1001
30330W        W46404   1.319   1.778   5.555  0.2523 -0.0341 -0.0577
30331W        W46405   3.071   0.643   6.394 -0.1029  0.1513  0.0408
30332W        W46406   3.094   0.680   3.567  0.0857  0.1861 -0.1047
30333W        W46407  11.057   4.632   1.794 -0.0975  0.2430 -0.2082
30334W        W46408   7.636   5.204   1.026 -0.2767 -0.0365 -0.0829
30335W        W46409   0.886  10.321   1.599 -0.0597  0.0439 -0.2023
30336W        W46410   7.348  16.780   3.342  0.2741  0.2789  0.0282
30337W        W46411   2.824  10.898   3.399 -0.0422  0.0221 -0.1801
30338W        W46412   0.938  16.970   1.456  0.3500 -0.0537  0.2553
30339W        W46413   2.286   8.407  16.738  0.0777 -0.1661  0.0739
30340W        W46414  11.027  17.110  14.291 -0.0745  0.4496  0.3308
30341W        W46415   1.908   3.260   2.716 -0.0255 -0.4483 -0.1259
30342W        W46416   7.684  14.721  12.490 -0.1336 -0.3808  0.0590
30343W        W46417  15.840  13.889   2.784 -0.0900  0.1822  0.0171
30344W        W46418  10.481   0.569   1.397 -0.1779 -0.1660 -0.0551
30345W        W46419   5.815   5.182  16.746  0.0004  0.0240  0.1565
30346W        W46420  16.960  13.889  13.025  0.0915  0.0429 -0.0396
30347W        W46421  12.285  11.557   1.737 -0.2699 -0.1314  0.2163
30348W        W46422   0.381  16.123   0.090 -0.1693  0.0108 -0.1301
30349W        W46423   9.075  15.051   2.417 -0.1137  0.0307 -0.3273
30350W        W46424   3.966  16.274   4.171  0.1662  0.0373 -0.0533
30351W        W46425   0.333  13.847   0.671 -0.1485 -0.4823  0.3760
30352W        W46426   1.125   8.316  14.461  0.0393 -0.0380 -0.1473
30353W        W46427  14.731   5.833   0.276  0.0697  0.0914 -0.0721
30354W        W46428  10.785   4.035   4.274  0.2527  0.1313 -0.0654
30355W        W46429  12.730  12.536  14.720  0.2454 -0.0695  0.0987
30356W        W46430   2.473   6.302  15.084 -0.4072  0.0339 -0.3063
30357W        W46431   7.432   0.492  14.808 -0.0689  0.1010  0.2056
30358W        W46432  12.732  12.616  13.961  0.1223 -0.2389  0.0384
30359W        W46433  16.777   2.555   0.461  0.2152  0.3146  0.1623
30360W        W46434   0.916   9.282  13.901 -0.1362 -0.0055  0.1425
30361W        W46435   5.239  17.653  13.596 -0.0136 -0.4310  0.2561
30362W        W46436   4.762  11.192   3.535 -0.2441  0.3396 -0.2831
30363W        W46437  12.362  11.142   1.362 -0.1779  0.2343  0.0855
30364W        W46438   8.646  16.391  12.428 -0.0867  0.2141 -0.1754
30365W        W46439   9.093  12.582  12.715 -0.1980 -0.0442 -0.0760
30366W        W46440   4.865  13.679   5.595 -0.1088 -0.0248  0.1784
30367W        W46441   8.895   3.298  16.720 -0.2849  0.1017  0.0163
30368W        W46442   5.940   1.777   4.499  0.0631 -0.3626 -0.2078
30369W        W46443   0.122  11.874  12.332 -0.1426 -0.0410  0.2119
30370W        W46444   2.445  10.892  15.169  0.0043 -0.0074  0.3002
30371W        W46445  17.091   8.396  13.832 -0.0003  0.1608 -0.3798
30372W        W46446   0.678   8.378  11.888 -0.1500 -0.2685  0.1894
30373W        W46447   5.608  15.785   0.304 -0.0386  0.0504 -0.0228
30374W        W46448  16.552  17.309  11.980  0.2443 -0.0746  0.0722
30375W        W46449  16.433  13.529  17.010 -0.0464 -0.3966 -0.0571
30376W        W46450   3.989   9.831  14.556  0.2465  0.1371 -0.1788
30377W        W46451   7.433   8.991   0.608  0.0696 -0.0447  0.5230
30378W        W46452   1.638   4.066  14.016  0.1164 -0.2065  0.0874
30379W        W46453   7.693  13.254  16.400 -0.1331  0.0634  0.0978
30380W        W46454   0.081  15.148  15.523 -0.0991 -0.0737  0.0373
30381W        W46455   3.847  11.765  12.845 -0.0258 -0.0645 -0.1381
30382W        W46456   0.966   2.811  12.699  0.1299  0.0964 -0.0820
30383W        W46457  15.765   3.717   2.110 -0.2807 -0.0838 -0.2656
30384W        W46458   5.171  16.743   4.061 -0.2189  0.1496 -0.3932
30385W        W46459  14.366   8.348   5.661 -0.0207  0.1809  0.0385
30386W        W46460   9.741  13.344  12.153 -0.1854  0.0017 -0.2610
30387W        W46461  17.545  11.502  16.652 -0.0881 -0.3173 -0.2370
30388W        W46462  12.147  10.938  16.919  0.0524 -0.0871  0.0994
30389W        W46463  11.459   7.975   2.920  0.0466 -0.0756 -0.1740
30390W        W46464   4.485   6.859  16.697  0.1497 -0.0069 -0.0559
30391W        W46465   6.755   1.823  14.903 -0.2439 -0.3258  0.0040
30392W        W46466  13.303   2.778   1.292  0.0792  0.2925  0.2618
30393W        W46467  11.887   7.411   2.991  0.3335  0.3832  0.2365
30394W        W46468  14.537   1.689  12.365 -0.0584  0.3069  0.1531
30395W        W46469  15.379  13.663   3.498  0.2580 -0.0049 -0.3524
30396W        W46470   3.090  13.359  13.561 -0.0922  0.1161 -0.1783
30397W        W46471   6.903  10.137   3.865  0.2135  0.0011 -0.0640
30398W        W46472  14.586   7.359   5.220  0.1297 -0.2338 -0.1492
30399W        W46473  12.657  17.631   5.041  0.0844  0.0825 -0.1117
30400W        W46474   9.692   9.451   0.514  0.0800  0.0808  0.1685
30401W        W46475   9.512  16.081   1.024 -0.1037 -0.0308 -0.2387
30402W        W46476   3.377  10.335  11.715 -0.2224  0.0603 -0.1181
30403W        W46477   8.073   8.339  15.879 -0.1471 -0.1414  0.0421
30404W        W46478   8.133  14.167   0.950  0.0649 -0.0349  0.3630
30405W        W46479   6.364   6.191  15.106 -0.4284 -0.0050  0.0442
30406W        W46480   6.032   5.998   3.805  0.0014  0.2125 -0.0746
30407W        W46481   5.750   9.351  15.414 -0.3441 -0.2260  0.2346
30408W        W46482  17.609   3.563  15.983 -0.2741 -0.2626 -0.1401
30409W        W46483   1.514   5.337  16.894 -0.0261  0.0898 -0.0652
30410W        W46484   1.581   9.443   5.430  0.0193 -0.0684 -0.1114
30411W        W46485   9.575  15.243   2.480 -0.0893  0.5855  0.0130
30412W        W46486  14.623   6.624   0.432 -0.0497  0.0537  0.2865
30413W        W46487   5.189  13.371   3.678  0.1007  0.4614  0.2611
30414W        W46488   5.976   3.722  14.014 -0.0521 -0.2786 -0.1231
30415W        W46489   6.402   2.149  12.184 -0.2782 -0.0605 -0.4661
30416W        W46490   4.524  10.932  13.861  0.3791 -0.1503  0.0072
30417W        W46491   6.024   0.013  15.405 -0.2477  0.0475 -0.3750
30418W        W46492   8.879   8.788  11.027  0.3575  0.0109  0.1987
30419W        W46493   9.608  11.365   0.157 -0.1014  0.0655 -0.1826
30420W        W46494  16.244  16.700   1.982  0.2289  0.1333  0.2366
30421W        W46495   3.254  13.534  11.293 -0.1262 -0.0779  0.5216
30422W        W46496  15.587   5.104  11.876  0.0813  0.1645 -0.3746
30423W        W46497  16.561  10.333   5.193 -0.3143 -0.1008 -0.0034
30424W        W46498  11.529  10.036   3.569  0.1817  0.1300 -0.1215
30425W        W46499  16.685  15.368   5.313 -0.0629 -0.1248  0.0773
30426W        W46500   3.865   8.667  14.886  0.2079  0.2182 -0.0331
30427W        W46501   1.675   3.507   6.203  0.3665 -0.2535  0.2113
30428W        W46502   7.736  10.770  15.664 -0.3049  0.0755  0.0675
30429W        W46503  16.087   1.656   3.837 -0.0326 -0.5629 -0.2332
30430W        W46504   5.998  13.219  14.191  0.0267 -0.0724 -0.1012
30431W        W46505  13.586  14.981   1.694 -0.0521  0.0235 -0.1572
30432W        W46506   9.931   5.011   1.808 -0.0620 -0.0523  0.0228
30433W        W46507  14.688  15.983  14.708 -0.1339  0.0374 -0.0266
30434W        W46508   5.195   3.847  12.490  0.4430 -0.3588  0.1466
30435W        W46509  15.892   8.723  13.918 -0.4552  0.1758  0.2207
30436W        W46510  16.552   9.894   2.704 -0.3901 -0.1265  0.0342
30437W        W46511  16.186   0.367  14.385 -0.0376 -0.1188  0.1475
30438W        W46512   3.153   1.062  16.012 -0.2448  0.1383 -0.0276
30439W        W46513  10.659  15.474  13.478 -0.3423 -0.0796 -0.0773
30440W        W46514   8.545  14.040   6.615 -0.0008  0.1842  0.1013
30441W        W46515  16.679   6.883   2.076 -0.1613 -0.2949 -0.0696
30442W        W46516   2.557   4.783  16.807 -0.1940  0.0051  0.0881
30443W        W46517   0.062   0.390   3.696  0.0149  0.2208  0.0957
30444W        W46518  11.519   7.631   0.901 -0.2784 -0.1087  0.2072
30445W        W46519  17.059  14.664  11.515 -0.2234 -0.1252 -0.2927
30446W        W46520   2.981  11.824   4.690  0.1812 -0.2545  0.2077
30447W        W46521   4.520   9.713   1.721  0.0240 -0.0409 -0.0927
30448W        W46522  13.006   0.934   3.392 -0.1415 -0.1506 -0.0534
30449W        W46523   3.152  10.384   4.825 -0.2239  0.3753  0.0640
30450W        W46524  13.900   4.701   0.082 -0.0528 -0.0072  0.2654
30451W        W46525   1.513   8.057   5.012 -0.1627 -0.0241 -0.3839
30452W        W46526   8.652  12.412  16.134 -0.2995 -0.2288  0.0277
30453W        W46527   2.747   8.765  11.832  0.1765 -0.1996 -0.3466
30454W        W46528   6.516   6.493  11.712  0.0255  0.0225  0.2188
30455W        W46529   3.253  11.461   5.770 -0.1592 -0.3376  0.0195
30456W        W46530  12.499   3.189  15.191 -0.0660 -0.2101  0.0657
30457W        W46531  14.048   5.825  12.346 -0.1362  0.4305 -0.4760
30458W        W46532  11.042  12.499  14.621 -0.1745 -0.0748  0.1327
30459W        W46533  13.965   7.913   1.454 -0.1970 -0.0841 -0.0341
30460W        W46534   2.963   8.855  13.226  0.0785  0.0387  0.2895
30461W        W46535   1.909   7.012  12.558 -0.1014 -0.2350  0.4750
30462W        W46536   3.025   1.989  13.014  0.1829  0.0840  0.0701
30463W        W46537  17.573   8.469  12.285 -0.2441 -0.1361 -0.0626
30464W        W46538  15.102  14.368   4.788  0.1704 -0.3594  0.0358
30465W        W46539  11.479   1.276  12.417 -0.1672  0.0674 -0.1941
30466W        W46540  10.719  10.954   0.877 -0.2702 -0.2581 -0.0193
30467W        W46541   7.550  16.238   1.281  0.1950  0.0279 -0.2756
30468W        W46542   0.054   7.095   1.382 -0.5066  0.0997  0.1230
30469W        W46543  10.478  17.492   5.318 -0.0166  0.0845 -0.2236
30470W        W46544   5.078   1.948   5.086 -0.3139  0.2720 -0.2628
30471W        W46545  17.296   9.186   0.113  0.1275 -0.0888  0.3712
30472W        W46546  10.073  16.001   2.195 -0.1362 -0.0834 -0.1970
30473W        W46547  15.453   1.506  13.342  0.0430 -0.1394  0.1287
30474W        W46548   5.591   6.211   4.634  0.1637 -0.2331  0.0477
30475W        W46549   7.324   8.572   4.894 -0.0251  0.2869 -0.4963
30476W        W46550   2.628  14.700   4.138 -0.0269 -0.0436  0.1048
30477W        W46551  14.189  17.048   0.389 -0.0185 -0.0280 -0.0521
30478W        W46552   1.746   6.275   1.125 -0.2998  0.1866 -0.1262
30479W        W46553   2.527   7.197   1.233  0.3524 -0.2089 -0.0558
30480W        W46554   7.582   3.544   4.190  0.2270  0.1400  0.1247
30481W        W46555   6.059   7.190  12.258 -0.2413 -0.0941  0.2281
30482W        W46556   0.461  11.671   0.210  0.1650  0.1634  0.2423
30483W        W46557   5.934  12.247   0.365  0.1280 -0.2014  0.1738
30484W        W46558  10.105  17.554   1.894  0.0596  0.1107 -0.0039
30485W        W46559   9.030  14.322   0.653 -0.3899  0.3042 -0.0056
30486W        W46560  12.169   6.195   3.024 -0.2461 -0.0107 -0.0310
30487W        W46561  14.184  10.519  16.108  0.1742  0.1431 -0.1442
30488W        W46562  15.738  10.062  16.084 -0.0761  0.0831  0.0102
30489W        W46563   9.509   2.804   0.079 -0.0703  0.2057 -0.3049
30490W        W46564   2.573   0.885   3.470 -0.2192 -0.1711 -0.1234
30491W        W46565   5.372  17.290   2.286  0.2965  0.0825 -0.1244
30492W        W46566   8.591   5.776   0.002 -0.0297  0.0308 -0.3450
30493W        W46567  11.445   0.137  14.428 -0.1079  0.0541 -0.1733
30494W        W46568   8.761  15.054  15.326 -0.0874  0.0212  0.0189
30495W        W46569  15.705  16.787  12.184 -0.1394  0.2799 -0.0353
30496W        W46570   9.067  16.447  14.840 -0.2441  0.2945 -0.0703
30497W        W46571  11.361   8.249  15.864  0.0827 -0.1870  0.1497
30498W        W46572   0.777  14.388   3.356 -0.0355  0.0168  0.1043
30499W        W46573   3.244  12.526   3.999 -0.1212 -0.1388  0.0181
30500W        W46574   6.518  14.759  13.374  0.1371 -0.0169  0.1695
30501W        W46575  12.731   0.436  11.931 -0.1919  0.0144 -0.0180
30502W        W46576  14.485   8.657  13.580  0.1948 -0.1269  0.3964
30503W        W46577  17.741   7.416   1.022  0.1334  0.2069 -0.1400
30504W        W46578  10.901   6.602  16.874 -0.1442 -0.0896  0.1775
30505W        W46579   5.128   1.901  17.071 -0.2364  0.2126  0.0986
30506W        W46580   3.734   3.794   5.429  0.1767  0.2552  0.0366
30507W        W46581   1.720   2.880   5.634 -0.0470  0.0343 -0.0915
30508W        W46582   7.718   8.999   3.432  0.5667  0.0666 -0.1267
30509W        W46583   8.412   2.076   5.708 -0.0876  0.2403  0.1178
30510W        W46584   8.487  15.342  13.575  0.4806 -0.1455  0.4140
30511W        W46585   2.964   8.464  12.847  0.0716  0.2207 -0.3443
30512W        W46586   3.835   9.314  15.584  0.0060  0.2656 -0.1968
30513W        W46587   1.285   6.616   0.443 -0.1336 -0.0660 -0.0011
30514W        W46588   0.417  11.194   2.770  0.0870  0.1041  0.1308
30515W        W46589  10.139  17.057   2.023 -0.2704  0.0015  0.0073
30516W        W46590   2.935  16.588  16.998 -0.1668 -0.1778  0.0968
30517W        W46591   4.221  14.106  17.134 -0.4178 -0.1042 -0.1477
30518W        W46592  10.241  14.995   0.418  0.0786 -0.0430 -0.2064
30519W        W46593  12.286   7.842   0.754  0.0258 -0.1467 -0.1517
30520W        W46594  14.323  10.532   0.023 -0.1922 -0.1399  0.0435
30521W        W46595   3.598  11.967  14.528 -0.1640  0.1466 -0.1213
30522W        W46596  13.392   1.893  14.048  0.0071  0.0554 -0.2395
30523W        W46597  17.165  16.620  14.805  0.0315  0.1659 -0.0363
30524W        W46598  16.012   0.826   4.257 -0.0315 -0.0269  0.2341
30525W        W46599  14.890  12.248  13.313 -0.1936  0.1129  0.0493
30526W        W46600  14.905   6.039   1.019 -0.0276  0.1728  0.0518
30527W        W46601   6.210   4.461  14.708 -0.2437 -0.1235 -0.0813
30528W        W46602   3.290   4.378  16.469  0.2038 -0.1989 -0.0271
30529W        W46603   0.466  15.428   4.795 -0.1246  0.2851  0.1409
30530W        W46604   7.254   4.429  13.611 -0.0681  0.0221  0.4181
30531W        W46605  10.899   1.658   0.398  0.3776  0.4171  0.1973
30532W        W46606  10.683  17.188  12.867  0.1946 -0.1104 -0.2851
30533W        W46607   3.152  14.442  14.385  0.4139 -0.1745 -0.1056
30534W        W46608   3.716  14.104  15.961  0.0665 -0.1528 -0.4455
30535W        W46609   6.982  11.803  13.018 -0.2369 -0.0376  0.2158
30536W        W46610   3.673  16.119   1.665  0.1200  0.1886  0.2962
30537W        W46611   9.669   4.794   0.228  0.0742  0.1650  0.2202
30538W        W46612   8.204   0.668   4.664  0.0264  0.1265 -0.1603
30539W        W46613  15.855  17.256   0.624  0.0271 -0.0632  0.0926
30540W        W46614  14.941  12.719  16.992  0.0712  0.0544 -0.0162
30541W        W46615  14.465  16.278  16.921  0.1405 -0.2772 -0.1079
30542W        W46616   6.821  16.114  15.992 -0.1661 -0.1218 -0.1487
30543W        W46617   3.554  13.023  15.306 -0.0092 -0.1596  0.2599
30544W        W46618  10.824  15.389  14.940 -0.0883 -0.2887 -0.1699
30545W        W46619  17.037  15.649   5.007  0.0514 -0.0749  0.1904
30546W        W46620   5.356  16.403   4.484 -0.0618 -0.3589 -0.0840
30547W        W46621  14.845   1.898   1.275  0.1463  0.2016 -0.1074
30548W        W46622   9.438   8.161   4.661  0.0654 -0.0007 -0.1152
30549W        W46623  17.258   7.527   5.375  0.2198  0.2039  0.0800
30550W        W46624   3.445   3.644  11.079 -0.0867  0.0031  0.1951
30551W        W46625   3.852   9.038   3.718  0.3526  0.0966 -0.2603
30552W        W46626   7.765   9.256   0.379 -0.2628 -0.1295 -0.1096
30553W        W46627   3.749   1.826  16.010 -0.2721 -0.1131 -0.1448
30554W        W46628  12.592  10.437  12.468  0.0522  0.0555  0.4267
30555W        W46629  17.291   6.137   2.667  0.1540  0.2252 -0.2646
30556W        W46630  17.588  10.933   3.217 -0.1418 -0.1543 -0.1301
30557W        W46631   5.507  11.350   1.172  0.1161 -0.0516  0.1661
30558W        W46632   2.193  10.163  16.654 -0.2959 -0.1648  0.0502
30559W        W46633  17.347  17.095  15.050 -0.0782  0.0258  0.0500
30560W        W46634   5.162   9.663   3.715  0.1757 -0.1472 -0.1134
30561W        W46635  16.649  11.643  13.100  0.0963 -0.1096  0.1582
30562W        W46636  16.916  12.194  16.766  0.1586 -0.4697  0.0174
30563W        W46637  14.185  10.559  15.604  0.2716 -0.0059  0.1841
30564W        W46638  16.438  15.496  13.253 -0.2494 -0.0966  0.2471
30565W        W46639   0.802  11.417   1.973  0.2851 -0.4813 -0.1726
30566W        W46640  17.380   7.706  15.245 -0.1686 -0.2876  0.0503
30567W        W46641   4.599   5.126   1.006 -0.0663 -0.1460 -0.1432
30568W        W46642   5.107   2.074  16.218 -0.1531 -0.0580  0.4174
30569W        W46643   1.095   3.013   2.655 -0.2265  0.0558 -0.0284
30570W        W46644   9.420   6.994  12.388  0.2016  0.1419 -0.0178
30571W        W46645   5.073   5.149  14.473  0.2150 -0.1254 -0.1734
30572W        W46646   6.157  15.365   1.877  0.3191 -0.0483 -0.2862
30573W        W46647   3.169  14.127  12.592 -0.1683  0.1654 -0.0005
30574W        W46648   3.733  14.649   0.491 -0.4881  0.2424 -0.0841
30575W        W46649   2.588   5.259   1.095  0.1364 -0.0901 -0.0367
30576W        W46650  13.329  14.922   0.303  0.1818  0.3198 -0.1410
30577W        W46651  16.667  10.368   2.452  0.0697  0.0221 -0.0647
30578W        W46652   8.630  11.590   4.551  0.3693 -0.0702  0.5579
30579W        W46653  12.017   0.020   4.812  0.0866 -0.2642 -0.2046
30580W        W46654  13.508   4.428  13.566  0.2084  0.1795 -0.1824
30581W        W46655  15.265  15.896   3.700 -0.1082 -0.0285 -0.1467
30582W        W46656   8.450  10.026  13.405  0.3592  0.1047  0.0190
30583W        W46657  13.827   5.794   2.630  0.2182 -0.3833  0.0674
30584W        W46658  14.913  13.088  14.957 -0.1148 -0.3158 -0.1233
30585W        W46659   6.252   0.388   5.479 -0.0287 -0.0567  0.0552
30586W        W46660   1.141  13.207  16.131 -0.0302 -0.1402 -0.0100
30587W        W46661   7.849   2.487   4.934  0.1652 -0.1508 -0.0315
30588W        W46662   2.874   0.576  16.084  0.1406  0.3922 -0.2889
30589W        W46663   2.959  16.314   2.417 -0.1642  0.1137 -0.1030
30590W        W46664  14.057   6.332  14.273 -0.1513  0.0992 -0.0242
30591W        W46665  16.084  17.343   4.922 -0.4582 -0.0015 -0.1761
30592W        W46666   1.691  13.150   4.075  0.0558  0.1666 -0.0512
30593W        W46667  17.356   1.036   1.368  0.0598 -0.0527  0.0823
30594W        W46668  15.118  12.446  14.288 -0.2161 -0.0356 -0.2665
30595W        W46669  14.980  12.872   5.232  0.2740 -0.3576  0.0950
30596W        W46670  12.929   9.584   3.162  0.2471  0.2260  0.3080
30597W        W46671   6.961   0.448  16.059 -0.1405 -0.2069  0.0617
30598W        W46672  15.913  10.518  15.945 -0.1950  0.1655 -0.1057
30599W        W46673   7.719   5.209  16.729  0.0815 -0.0113  0.1978
30600W        W46674   1.447  14.054   4.281  0.0474 -0.0312  0.1497
30601W        W46675   9.742   5.382  13.178 -0.2682  0.0744  0.0730
30602W        W46676  11.903  17.074   4.567  0.2107  0.1347 -0.1427
30603W        W46677   6.225  12.203  14.449 -0.1371 -0.1658  0.0442
30604W        W46678  17.688   2.704   2.406 -0.3300 -0.1953  0.2017
30605W        W46679  14.722  15.943   3.178 -0.0772 -0.0913  0.0850
30606W        W46680  13.180   5.721   2.580  0.1038  0.0234  0.0076
30607W        W46681   0.383  12.847   1.267  0.0715  0.0194 -0.2739
30608W        W46682  12.483   1.742   1.752 -0.1995 -0.2646 -0.0861
30609W        W46683  16.658   6.859   4.546  0.1237  0.1318 -0.1691
30610W        W46684   7.392   1.478  10.476  0.0737  0.2366 -0.0645
30611W        W46685  14.589   4.930   5.090 -0.3030  0.0705  0.1678
30612W        W46686   8.881   4.057  15.981 -0.0245  0.1691  0.0247
30613W        W46687  10.178  10.408  12.486 -0.3004  0.1936  0.1246
30614W        W46688  11.705  14.502   0.783  0.0227  0.1743  0.2076
30615W        W46689  12.228  10.405  15.656  0.2002 -0.0581 -0.3024
30616W        W46690  12.014  15.291  14.203 -0.1088  0.1378  0.1658
30617W        W46691  10.865   7.412  12.490  0.2143  0.1133 -0.0250
30618W        W46692   8.379   5.714   1.603  0.0174  0.1298  0.3666
30619W        W46693  13.946   8.712   0.437 -0.0861 -0.0578  0.4738
30620W        W46694   9.276  14.716  16.011  0.0160 -0.4216  0.0022
30621W        W46695   7.361   2.491   0.764  0.0318 -0.1208 -0.2620
30622W        W46696   4.896   1.403  10.969 -0.0574 -0.2698  0.0318
30623W        W46697   3.205  17.697   2.412 -0.0711 -0.0799  0.1306
30624W        W46698   9.046  11.625   5.372  0.3355 -0.0490  0.0016
30625W        W46699  12.339   6.858   1.230  0.1130  0.0244 -0.1447
30626W        W46700  15.318   9.712  16.423  0.3594  0.1881  0.3631
30627W        W46701   4.874  15.469  16.566 -0.2082 -0.0568  0.3258
30628W        W46702  11.329   2.001  12.066  0.0969  0.2216  0.0885
30629W        W46703   8.953  17.630   0.579  0.1987 -0.1055 -0.1955
30630W        W46704   3.033   8.272  13.941  0.2726 -0.0541 -0.0139
30631W        W46705  16.533   8.837  13.232  0.1859  0.0929  0.0711
30632W        W46706  11.898  11.929   4.818 -0.2590 -0.1531 -0.1841
30633W        W46707   0.051   9.340   4.751  0.0484 -0.0746  0.1281
30634W        W46708  12.241  10.783  15.345 -0.1504  0.0147  0.0509
30635W        W46709  12.265  15.568  16.652 -0.0534  0.0598 -0.0883
30636W        W46710   9.615   3.874   2.636 -0.1457 -0.1478 -0.2755
30637W        W46711  11.751   7.190  11.995 -0.1598 -0.0836  0.1508
30638W        W46712   9.221   2.676   4.599  0.2227 -0.1640  0.1089
30639W        W46713   2.521  15.881  17.140  0.2810  0.0340 -0.0910
30640W        W46714   8.451  13.595   5.277  0.3273  0.1527  0.0299
30641W        W46715  15.694   4.054   2.583  0.0419  0.0630 -0.2895
30642W        W46716  14.535   4.238  16.788 -0.2724 -0.1296  0.0847
30643W        W46717  16.335   9.016   0.078  0.1199 -0.0746 -0.2446
30644W        W46718  12.640   9.788   1.366  0.0269 -0.1339  0.1831
30645W        W46719   7.335   5.639  11.835  0.3226  0.0868 -0.0499
30646W        W46720  10.545  10.452  14.298 -0.3548 -0.1597  0.1317
30647W        W46721  15.400   8.943  16.731 -0.0558 -0.0440 -0.2397
30648W        W46722  16.891  15.539  12.428 -0.1552 -0.1367  0.0258
30649W        W46723   6.373  10.537   4.817  0.1414 -0.0807 -0.1334
30650W        W46724  12.976   6.976   4.483  0.2716  0.2817  0.0962
30651W        W46725   7.835  16.685   1.003 -0.0149  0.2722  0.0367
30652W        W46726  15.631  11.440   0.297  0.1173 -0.1669  0.1604
30653W        W46727   6.527  12.183  12.139 -0.4124  0.1262  0.0640
30654W        W46728   8.885   7.070   0.713 -0.1999  0.2011  0.2783
30655W        W46729   9.419   8.384   1.011  0.1021 -0.0952 -0.2237
30656W        W46730   7.516   2.118  12.352 -0.3927  0.0813  0.2164
30657W        W46731   3.457  14.887   3.814 -0.1840  0.0343 -0.2049
30658W        W46732   4.657  17.262   5.717 -0.2045 -0.3812  0.2397
30659W        W46733   2.079   1.493   1.091  0.1914  0.2441 -0.0314
30660W        W46734   6.332   5.295  16.700 -0.0119 -0.1831  0.1269
30661W        W46735   9.087  16.221  15.539  0.0494 -0.0984  0.2154
30662W        W46736   4.874   7.407   4.494  0.4260 -0.0541  0.0291
30663W        W46737  11.367   1.931   0.540  0.2807 -0.1094  0.0610
30664W        W46738   3.438  15.831   0.191 -0.1664 -0.0767  0.1456
30665W        W46739  13.648  14.549   3.689  0.0168  0.0393 -0.3629
30666W        W46740   6.890   0.215   2.335 -0.0802 -0.0457  0.1723
30667W        W46741  10.343   8.155   3.730  0.0171 -0.1205  0.0187
30668W        W46742   7.948  15.921  14.906  0.2639  0.1047 -0.1960
30669W        W46743  15.237  16.445   1.000  0.1888 -0.2053  0.1738
30670W        W46744  17.080  14.601   1.133 -0.1613 -0.0847 -0.0416
30671W        W46745  13.264  10.337  13.766  0.1917  0.1796 -0.2635
30672W        W46746   2.539   4.313   2.195  0.0515 -0.0204 -0.1373
30673W        W46747   6.030  17.172   4.750  0.1317 -0.1644  0.0320
30674W        W46748   0.580   8.189   4.828  0.1296  0.0085  0.0484
30675W        W46749   6.668   0.819  15.125 -0.2029  0.3404  0.2370
30676W        W46750  14.494   6.353   2.296  0.2046  0.1448 -0.0914
30677W        W46751  15.464  14.325  12.454 -0.1860  0.1155  0.1168
30678W        W46752   8.034  16.587  13.790  0.2293 -0.1860  0.0468
30679W        W46753  17.641  12.598  15.844  0.0879  0.0531  0.0606
30680W        W46754  14.873  17.331  16.667 -0.0478 -0.3768 -0.1874
30681W        W46755   3.378  11.979  15.522 -0.0884  0.0622  0.0318
30682W        W46756   5.648  14.988  12.939  0.0914 -0.0419  0.1302
30683W        W46757   2.548   1.256  12.087  0.0508 -0.2421  0.0016
30684W        W46758   7.196   6.116   4.301  0.0259  0.1013 -0.0494
30685W        W46759  11.991  14.348  12.442 -0.1245 -0.1530 -0.0624
30686W        W46760   2.298  16.963  12.817  0.3263  0.0318  0.2753
30687W        W46761   2.265   3.539   2.317 -0.1506 -0.0633 -0.0503
30688W        W46762  13.688  15.998  13.668 -0.1922 -0.0175 -0.0320
30689W        W46763   4.500   6.188   1.679 -0.2666 -0.2121  0.1915
30690W        W46764  15.407   1.236  15.867  0.1628 -0.2833  0.3405
30691W        W46765   7.342   2.195  16.846 -0.1697 -0.0225  0.1276
30692W        W46766   5.723   3.351   1.501 -0.1455 -0.0847  0.0283
30693W        W46767   2.323  12.213  15.079  0.1605 -0.0817  0.1180
30694W        W46768  15.449   1.521   1.466  0.1110 -0.2887 -0.1207
30695W        W46769  15.207   9.204   3.086 -0.1228  0.3142 -0.3374
30696W        W46770  17.668  10.535   4.153  0.1866  0.0150  0.1887
30697W        W46771  16.178   3.560  13.401 -0.0197  0.0402 -0.2671
30698W        W46772   6.238  12.324   3.980 -0.1366  0.2110  0.2256
30699W        W46773   9.925  14.022  14.165 -0.0139 -0.0955  0.1002
30700W        W46774   5.689  16.483   2.262 -0.0110  0.2822  0.0606
30701W        W46775   5.143   7.892   5.343  0.0350  0.0040  0.0446
30702W        W46776  16.683   4.235  11.859  0.0638 -0.2529  0.0529
30703W        W46777  13.123  12.812   4.576  0.1085  0.3015  0.0251
30704W        W46778   4.921   5.910   5.840 -0.0285  0.2130 -0.0758
30705W        W46779   2.214   6.895  16.767  0.0057  0.1688  0.1187
30706W        W46780   2.204  17.110  15.856  0.0546 -0.2302  0.0559
30707W        W46781   1.751  15.897  16.857 -0.0316 -0.0364  0.2062
30708W        W46782   4.224   0.038   3.512  0.0909  0.0193  0.3453
30709W        W46783  13.176   1.598  14.440  0.2118  0.0504  0.0258
30710W        W46784  10.671  12.887   5.937  0.4171 -0.1295 -0.1654
30711W        W46785   5.670   4.984   3.698  0.1342  0.3656 -0.1473
30712W        W46786   3.450  10.065   5.608 -0.2061  0.2449 -0.1652
30713W        W46787   9.066   7.115  14.035 -0.2792 -0.0210  0.0718
30714W        W46788   4.221  11.792   3.394  0.2336 -0.2441 -0.1101
30715W        W46789   7.983   2.268  12.268 -0.3439 -0.1859  0.2329
30716W        W46790   9.903  11.233  16.946  0.2331  0.1621  0.0761
30717W        W46791  14.771  17.662   2.479 -0.0657  0.2972 -0.0905
30718W        W46792  14.392   6.477   5.128 -0.1062  0.0680  0.0358
30719W        W46793   0.196  15.357   0.833  0.0997 -0.0465  0.0161
30720W        W46794   2.644   0.026   5.467  0.2193 -0.0405  0.0058
30721W        W46795  12.043  11.568   5.874 -0.0804 -0.2880  0.4153
30722W        W46796   0.063  17.196  15.759 -0.1804 -0.1991  0.1990
30723W        W46797   2.557   1.837   4.669  0.1417 -0.1528 -0.0474
30724W        W46798   9.497   2.106  15.775  0.1360 -0.2493  0.1634
30725W        W46799   3.823  11.812  16.709  0.0455  0.1032  0.0014
30726W        W46800   2.263  12.715  16.945 -0.0658  0.1379  0.0531
30727W        W46801   9.119   8.268   2.850 -0.1246 -0.3404 -0.1265
30728W        W46802   5.128   2.451   3.504  0.2552  0.0080 -0.0539
30729W        W46803   2.327  15.082  14.595  0.2326 -0.0320 -0.1662
30730W        W46804   2.840   0.741   2.261 -0.0013  0.1513 -0.0325
30731W        W46805   4.423   4.086  13.966  0.2285 -0.2766  0.2320
30732W        W46806  16.512  10.050   1.797  0.2397  0.1230 -0.0315
30733W        W46807   4.099   8.796  12.058  0.0514 -0.0028  0.4724
30734W        W46808  12.208  16.221   0.290 -0.0521  0.0642  0.3612
30735W        W46809   5.297   4.428   5.111 -0.0151  0.2470  0.1287
30736W        W46810   6.500  11.130  12.403  0.0589  0.1520 -0.2027
30737W        W46811   2.159   6.299  13.095 -0.1329 -0.2099 -0.0668
30738W        W46812   3.472   7.929  13.047  0.0002 -0.1123 -0.1894
30739W        W46813   9.999   0.726   1.344 -0.0353  0.1419  0.0302
30740W        W46814   4.608  12.467   2.799 -0.0198 -0.0365 -0.0550
30741W        W46815  17.127  16.953   1.275  0.3781  0.0715  0.1107
30742W        W46816   9.243  17.236  16.296  0.0395 -0.1113 -0.2709
30743W        W46817   4.289   7.530   2.219 -0.0750  0.1862 -0.0362
30744W        W46818   4.056  16.948  14.356 -0.3450 -0.1480  0.1356
30745W        W46819   0.659  13.642   4.792  0.1466  0.1079  0.1659
30746W        W46820  13.502  13.040  15.876  0.0313 -0.0917  0.0817
30747W        W46821   4.304  17.634  12.369 -0.0738  0.3223 -0.3483
30748W        W46822   4.712   5.333   2.921  0.0828  0.0366  0.2169
30749W        W46823   4.162   4.884  13.162 -0.1489 -0.1009  0.1849
30750W        W46824  12.515   9.879  14.318 -0.1798 -0.0436 -0.1850
30751W        W46825   8.089  15.020   2.408 -0.6198  0.0081 -0.2697
30752W        W46826   2.388   9.910   1.467 -0.0333  0.1415  0.0204
30753W        W46827   3.852  12.543   3.852  0.0048 -0.0817  0.2829
30754W        W46828   5.599   0.881   6.449  0.3313  0.2234  0.4521
30755W        W46829  12.636  10.384   5.442  0.0533  0.3086  0.2735
30756W        W46830  14.593   1.624   2.144  0.1548 -0.0124  0.1863
30757W        W46831   4.223   3.239   4.951 -0.0856  0.1374  0.0991
30758W        W46832  17.457   4.937   5.796  0.1005  0.0797  0.0713
30759W        W46833   9.989   1.792   0.060  0.2557  0.4003  0.2084
30760W        W46834  11.438  11.008   1.592 -0.0594  0.0265 -0.2462
30761W        W46835  11.385   8.980   3.408 -0.1488 -0.2072 -0.0309
30762W        W46836   6.949   8.242   1.887 -0.1306  0.1091 -0.1077
30763W        W46837   3.072   6.301  13.539 -0.1503  0.1372 -0.2078
30764W        W46838  16.868   7.731   1.272 -0.0014  0.0583 -0.4551
30765W        W46839  12.954   5.518   1.161 -0.1884  0.0304  0.4537
30766W        W46840   1.164   4.445  11.625  0.2348 -0.2442 -0.0999
30767W        W46841   8.438  12.047   1.520 -0.0278 -0.0233 -0.0098
30768W        W46842  12.812   1.167   2.968  0.0498  0.0037  0.0727
30769W        W46843   8.408  16.970  13.984 -0.1038  0.3487  0.0782
30770W        W46844   2.187   8.376  13.581  0.1715  0.0789  0.1118
30771W        W46845  13.315   2.875  14.233 -0.0879  0.2962 -0.2980
30772W        W46846  13.414   4.736   4.015 -0.0568 -0.0485  0.0900
30773W        W46847   3.763  16.563   1.992 -0.0784  0.1336 -0.1942
30774W        W46848  10.184   4.411  16.485  0.1127 -0.3170 -0.0481
30775W        W46849   8.470   7.546   2.894  0.1489 -0.2273 -0.1771
30776W        W46850  16.410   5.452  16.868 -0.1117 -0.0779  0.0207
30777W        W46851  11.464  16.074  16.845  0.1753  0.0142  0.0937
30778W        W46852   5.897   3.745   0.822  0.0215 -0.2903 -0.0140
30779W        W46853  14.464  16.777  12.219  0.1618  0.0814  0.1831
30780W        W46854   2.915  12.697   2.578  0.2789  0.0918  0.2434
30781W        W46855   7.305   6.660   4.584  0.3338 -0.0767  0.1171
30782W        W46856  15.172   9.576  14.777  0.0199 -0.1570  0.0270
30783W        W46857   3.664  15.868   1.216 -0.1192  0.2379  0.1104
30784W        W46858   1.136   4.462   1.393  0.4809 -0.1713 -0.0059
30785W        W46859   0.542   4.036   1.212  0.3314  0.4191 -0.0813
30786W        W46860  13.059  15.299  14.684 -0.0912 -0.0788 -0.2013
30787W        W46861   9.993   3.922  13.188 -0.1202 -0.0486  0.2583
30788W        W46862   6.634  13.115   2.935  0.2185 -0.3634  0.3844
30789W        W46863  12.611  11.414  14.302 -0.0351 -0.0639  0.1511
30790W        W46864   5.360  12.322   4.294  0.0790  0.1295  0.0931
30791W        W46865   9.648   0.055   6.212  0.3301 -0.0498 -0.0196
30792W        W46866   8.002   0.377  16.367  0.0514  0.0421 -0.4131
30793W        W46867   1.349   7.927   5.506  0.0125 -0.0999  0.0698
30794W        W46868  11.290   8.422   3.114 -0.2721  0.3389  0.1606
30795W        W46869  17.247  16.806  11.993 -0.1213 -0.2472 -0.2326
30796W        W46870  16.918  16.430   4.681  0.1334 -0.0190 -0.3962
30797W        W46871   2.113  16.249   5.832  0.0310 -0.1790  0.2696
30798W        W46872   6.500   8.289   1.668  0.1447 -0.2177  0.0778
30799W        W46873   5.161  13.540   4.158  0.0469 -0.0936  0.2310
30800W        W46874  15.682   9.392  14.143  0.3998 -0.0229 -0.1761
30801W        W46875   0.211   7.763  15.506  0.2078  0.0783 -0.0823
30802W        W46876  17.263   0.527   4.286 -0.0347  0.2041 -0.0144
30803W        W46877  10.414   0.106   4.002  0.3107  0.2053 -0.3733
30804W        W46878   4.423   1.970  15.231 -0.1519  0.0084 -0.1088
30805W        W46879  10.804  16.143  14.181  0.1167 -0.0444 -0.1760
30806W        W46880  11.079  10.221  12.081  0.0255  0.0915 -0.1505
30807W        W46881   2.615   4.292   4.548  0.0069  0.2607 -0.0015
30808W        W46882   1.863  14.818  13.662 -0.2401 -0.0449  0.0297
30809W        W46883   4.371  17.627  14.522  0.2905  0.1583  0.0183
30810W        W46884   4.386  11.500   2.257  0.1260 -0.0420  0.1471
30811W        W46885   0.446   8.638   1.416 -0.0959 -0.2734 -0.0445
30812W        W46886  11.959  17.242  14.449 -0.2399 -0.0416 -0.0884
30813W        W46887  16.755  13.305  15.823  0.2315 -0.2120 -0.0821
30814W        W46888  16.267   6.226   0.813  0.0579  0.1491  0.0381
30815W        W46889  15.240   2.192  16.320  0.1275  0.0234  0.1905
30816W        W46890  15.983   9.480  16.212 -0.1993 -0.2131 -0.1448
30817W        W46891  17.511   7.562  13.095 -0.1542  0.1265 -0.2330
30818W        W46892  11.873   9.802  11.873 -0.0431 -0.0070  0.0236
30819W        W46893  14.952   5.376   1.540 -0.2500 -0.3122  0.1052
30820W        W46894  15.274  16.381   1.542 -0.2552 -0.0842  0.0365
30821W        W46895  14.445  15.801  13.183 -0.2316  0.0285  0.0517
30822W        W46896  15.544   0.174   5.835 -0.0567  0.0889 -0.0513
30823W        W46897   5.957   3.241   4.479  0.1018 -0.0376  0.0336
30824W        W46898   1.040  13.612   3.039 -0.4575 -0.0662 -0.0601
30825W        W46899   1.015  12.077   1.713 -0.1212 -0.0166  0.1266
30826W        W46900  11.837   4.588  14.664  0.1538  0.1806 -0.2445
30827W        W46901  11.590   5.261   1.605  0.0408  0.2560 -0.3247
30828W        W46902   0.639   6.997   2.859 -0.0001 -0.1942 -0.1431
30829W        W46903  10.567  15.398  15.344 -0.3330  0.1497 -0.0390
30830W        W46904   6.637   0.360  12.285  0.0956 -0.2830 -0.3203
30831W        W46905   0.532   7.305   1.308  0.2905 -0.3177 -0.1204
30832W        W46906  12.291   0.279  16.210  0.0802  0.2378 -0.5365
30833W        W46907   1.052  10.626   0.791 -0.1765 -0.2144 -0.1940
30834W        W46908  16.309   8.183   0.147 -0.0510 -0.1322  0.2963
30835W        W46909   5.860  17.631   4.951  0.0724 -0.1291 -0.0480
30836W        W46910  11.724   2.392   2.308  0.2289 -0.1093  0.0226
30837W        W46911  13.622   1.982   4.375 -0.3084  0.1299  0.0656
30838W        W46912   8.162   0.591  16.889 -0.1820 -0.2174 -0.1084
30839W        W46913  16.223  11.890  16.020 -0.0623 -0.0667  0.0924
30840W        W46914  14.778   2.830   1.028  0.0429 -0.1420 -0.0152
30841W        W46915   2.931  12.178  13.733 -0.1704 -0.1398  0.1193
30842W        W46916   6.096   1.259   5.884 -0.0514  0.2556  0.0420
30843W        W46917   5.619  13.583   3.881 -0.3897 -0.0898  0.0122
30844W        W46918   7.026  16.588   2.159  0.2580  0.2188  0.0842
30845W        W46919  11.920   8.315   0.803  0.1269  0.0364  0.1382
30846W        W46920   4.112   3.273   2.033  0.0193 -0.1563 -0.0711
30847W        W46921   7.032   7.870  11.747 -0.1694  0.2288  0.2130
30848W        W46922   5.701   9.680  14.115 -0.2461 -0.0924  0.2157
30849W        W46923  17.564   1.919  11.506 -0.1442 -0.1020  0.2138
30850W        W46924  11.667  15.081   3.582 -0.0856  0.1768  0.1936
30851W        W46925  15.531   7.237  15.773 -0.1034 -0.1238 -0.1413
30852W        W46926   5.920   4.698  13.748 -0.0713  0.2770 -0.0991
30853W        W46927   8.615  10.028  15.795 -0.1179  0.0953 -0.4444
30854W        W46928   6.563   1.550  16.684 -0.0994 -0.1862  0.1322
30855W        W46929   9.991  11.910   0.552  0.1127  0.2683  0.0054
30856W        W46930  14.669   9.582  10.935  0.3178 -0.0167  0.0579
30857W        W46931  13.489  10.957   0.815 -0.1041 -0.1377  0.2998
30858W        W46932  15.854  14.880  13.589 -0.1126  0.1712 -0.1774
30859W        W46933  14.331   2.106  12.572 -0.0015 -0.2197 -0.0952
30860W        W46934  17.109  16.913   4.687  0.1936 -0.0263 -0.0350
30861W        W46935   7.851  11.520  12.994 -0.0326  0.0054  0.0514
30862W        W46936   1.621   8.283   1.585  0.2704 -0.1537 -0.0318
30863W        W46937  15.497   7.193   3.995 -0.2986 -0.0767  0.0516
30864W        W46938   9.779   9.842   5.227 -0.0968  0.1305  0.1607
30865W        W46939   6.934  11.736   4.946  0.1134  0.1306 -0.2677
30866W        W46940  16.400   8.376  16.844  0.0453  0.1215  0.3613
30867W        W46941   9.018  11.857  13.033  0.2439  0.1803 -0.1992
30868W        W46942   7.482   5.334   4.968 -0.1137 -0.0029 -0.0129
30869W        W46943   2.504   7.209   1.745  0.3691  0.1656 -0.4723
30870W        W46944   7.589   2.432  16.073  0.0587  0.0435  0.0175
30871W        W46945  16.824  17.084  14.888  0.1709  0.0667 -0.4884
30872W        W46946   3.173  10.777  16.133 -0.1449 -0.1521 -0.0713
30873W        W46947  16.005  13.469  12.428 -0.3806 -0.1758  0.0810
30874W        W46948   0.074   3.447   3.028 -0.2001 -0.0674 -0.2497
30875W        W46949   1.018   7.480   1.553 -0.1391  0.0171  0.0585
30876W        W46950   8.754  15.158   5.095  0.1225 -0.1004 -0.2296
30877W        W46951   7.644  11.132  12.799 -0.2777 -0.1958  0.0989
30878W        W46952   2.444  14.860  17.006 -0.1235  0.1353 -0.1159
30879W        W46953   9.057   0.967  12.012  0.2085 -0.0451 -0.1631
30880W        W46954   4.840  17.465  12.246 -0.0732 -0.0256  0.0618
30881W        W46955  15.697  12.630   3.428  0.2558  0.0756 -0.2130
30882W        W46956   4.203  14.195  16.143  0.0628  0.2724 -0.0300
30883W        W46957   1.617   5.596  11.927 -0.1881  0.0725  0.2099
30884W        W46958   0.146  14.632  14.279 -0.1009  0.0734 -0.0261
30885W        W46959  15.110  12.337   3.861  0.0215 -0.3673 -0.0141
30886W        W46960  13.961   5.556  13.538 -0.2444 -0.2479  0.1274
30887W        W46961  13.141   6.397  16.689  0.2086  0.1239  0.0975
30888W        W46962   0.902   1.643  13.988 -0.0756  0.0559 -0.0717
30889W        W46963   9.556  15.858   5.751 -0.2157 -0.0658  0.0669
30890W        W46964   5.522  15.640   5.860 -0.1286 -0.1353  0.0909
30891W        W46965   7.037   4.501   2.776  0.1755 -0.1871 -0.2204
30892W        W46966   4.768   9.147  17.130 -0.1812 -0.5362 -0.1132
30893W        W46967   3.114   6.320  11.447 -0.3990 -0.0994 -0.0398
30894W        W46968   1.875   5.567   3.524  0.2344 -0.1134  0.1656
30895W        W46969  10.943   2.919   1.507 -0.1429 -0.1400 -0.3080
30896W        W46970   4.540  15.426   3.194  0.1941 -0.1697  0.4773
30897W        W46971   3.451   0.231   1.269 -0.1314  0.0066  0.0506
30898W        W46972  12.855  12.023  15.560  0.1984 -0.2275  0.1864
30899W        W46973   3.947   0.645   1.602 -0.1366 -0.0102  0.2408
30900W        W46974  14.797   6.114   2.729  0.0731 -0.1374 -0.0687
30901W        W46975   6.094   7.397  13.591  0.0050  0.0280 -0.3536
30902W        W46976   9.068   5.318  13.749  0.2096 -0.1513 -0.0250
30903W        W46977  16.626   0.768  14.337  0.0562  0.0547 -0.0613
30904W        W46978   7.342   5.777  13.462  0.1674 -0.3473 -0.1741
30905W        W46979   9.245   7.165   1.962 -0.2587  0.1450 -0.0141
30906W        W46980  14.513   3.889  16.083 -0.0420 -0.1586  0.0168
30907W        W46981   0.518  17.381   0.379 -0.2841 -0.2059  0.2249
30908W        W46982   6.202   0.454  12.017  0.1774  0.4481  0.0157
30909W        W46983  15.533  15.050  16.225  0.0057  0.3062 -0.2245
30910W        W46984   4.418  13.339   0.502 -0.0012  0.0672  0.0295
30911W        W46985  15.245   1.564  14.288  0.1822  0.1903 -0.2207
30912W        W46986   3.599   2.400  13.627  0.2194 -0.3573 -0.0086
30913W        W46987  14.262   3.503  12.222  0.0654  0.0581  0.2231
30914W        W46988  16.357   7.828  15.155 -0.0768  0.1526  0.1034
30915W        W46989  16.829  12.844   4.371 -0.1932 -0.1512  0.1329
30916W        W46990  14.047  15.566  12.833 -0.0971  0.1139 -0.2120
30917W        W46991  16.737   7.614   5.274 -0.2333 -0.0472  0.1736
30918W        W46992   4.505   0.007  11.127  0.2395 -0.0452  0.0460
30919W        W46993   4.901  11.243  13.974  0.2056 -0.1771 -0.0909
30920W        W46994  15.325   3.546   4.383  0.1860 -0.1267 -0.1270
30921W        W46995   6.326   9.823   3.076 -0.0525 -0.0285  0.2772
30922W        W46996   4.470  11.459  14.036 -0.0366  0.2712  0.1829
30923W        W46997  11.460  12.032   4.558 -0.0374  0.1807  0.1220
30924W        W46998   5.946  12.074   1.603 -0.0418 -0.1627 -0.0806
30925W        W46999   4.226   0.112   2.225 -0.2656 -0.2022  0.2972
30926W        W47000  11.016  16.248  13.670 -0.0655 -0.0512 -0.3288
30927W        W47001   1.899  13.336  13.954 -0.1771 -0.0408  0.2031
30928W        W47002  16.268   9.177   4.106 -0.0958  0.1042 -0.0474
30929W        W47003   1.794  10.487   5.644 -0.0606  0.0897  0.2417
30930W        W47004   3.976  13.558   1.005 -0.1760  0.0099 -0.1581
30931W        W47005   2.287   2.612  12.287 -0.0010  0.0748  0.0141
30932W        W47006   0.660   8.933   0.394 -0.1052 -0.1407 -0.2070
30933W        W47007  10.343   5.938  13.399  0.1459  0.0381  0.0733
30934W        W47008   7.446  16.911  13.326 -0.1603 -0.1835 -0.1097
30935W        W47009   7.221  15.096   5.302  0.0366 -0.0209 -0.0702
30936W        W47010   8.606   4.995  16.136  0.2215 -0.0186 -0.0155
30937W        W47011  12.729  10.657   3.148  0.0180 -0.0341  0.1979
30938W        W47012  12.604  11.144  14.985 -0.1078  0.2192  0.0096
30939W        W47013   4.263  10.153  12.796  0.0975 -0.0288  0.0442
30940W        W47014  10.653   9.793   5.931 -0.0911  0.1135 -0.1298
30941W        W47015   0.493   4.020  14.373  0.0155  0.1650 -0.0962
30942W        W47016  12.407  15.329   4.897  0.0275 -0.0190 -0.1773
30943W        W47017   1.091  10.054   2.121  0.3167 -0.3312 -0.3075
30944W        W47018  11.316   3.129  13.841  0.0314 -0.2110  0.0367
30945W        W47019   1.657  14.039  14.960 -0.0701 -0.3563  0.0761
30946W        W47020  13.759  16.817   0.118  0.0786  0.1185  0.3143
30947W        W47021  16.523   2.147  13.595  0.2023 -0.1092 -0.3068
30948W        W47022   6.979   3.041  16.275  0.0245 -0.1906  0.0223
30949W        W47023   8.995  10.135  13.872  0.0095  0.1611 -0.0642
30950W        W47024  10.636   6.734   0.786 -0.1434 -0.1158 -0.0878
30951W        W47025  17.411   0.056   0.074  0.0118  0.0471  0.5963
30952W        W47026  12.487  16.982   1.220  0.0444 -0.1225 -0.2124
30953W        W47027   8.447   4.947  14.939 -0.0273  0.1577 -0.1417
30954W        W47028  11.818   1.443  15.809 -0.0360 -0.4859  0.0618
30955W        W47029  17.709   3.875  14.406  0.1212 -0.1368  0.0785
30956W        W47030  14.461   4.396   2.020 -0.1398  0.1131 -0.1833
30957W        W47031   7.921   5.505   2.252 -0.1280  0.0065 -0.1979
30958W        W47032   3.713   9.282   0.289 -0.1763 -0.0817 -0.2390
30959W        W47033  12.266   1.954   0.646 -0.2523 -0.1671 -0.2379
30960W        W47034  13.224  15.410   4.465  0.2118 -0.5586  0.0013
30961W        W47035   3.745   8.714   1.529 -0.2243 -0.0682 -0.1766
30962W        W47036  11.405   3.137   4.945  0.3074  0.2231  0.2514
30963W        W47037   1.942  11.133   5.881  0.1296  0.3224  0.1437
30964W        W47038   9.644   7.662  13.079 -0.2707  0.2319 -0.3657
30965W        W47039  10.559   1.782  12.473  0.4204  0.1308 -0.1790
30966W        W47040  10.420   3.945  12.382 -0.1759  0.0121  0.3808
30967W        W47041   3.980   3.659  11.964  0.0195 -0.0496 -0.0282
30968W        W47042   7.090   3.313   3.762  0.0191  0.1622 -0.1440
30969W        W47043   6.402  14.089   5.633  0.0979  0.1541 -0.0242
30970W        W47044  14.268   3.145   5.427  0.2293 -0.2070 -0.3019
30971W        W47045  16.184  10.149  14.356  0.0030  0.1715  0.2123
30972W        W47046  12.641   9.397  14.915  0.0607 -0.0554  0.0820
30973W        W47047   2.719  12.850   3.586  0.0016 -0.1057 -0.0110
30974W        W47048  17.469   5.757   4.415  0.1100 -0.0177  0.0055
30975W        W47049   1.471  10.572  11.981  0.1074  0.0388 -0.1084
30976W        W47050   7.800  14.539   6.144 -0.0461  0.0850  0.0965
30977W        W47051   7.685   3.630   5.091  0.0635  0.1684  0.0942
30978W        W47052  15.351   3.593  15.388  0.1557  0.3961  0.1879
30979W        W47053   0.746  16.880  15.901 -0.0530  0.0030 -0.0454
30980W        W47054   0.869  13.262  12.872  0.2717 -0.3772 -0.2494
30981W        W47055  16.250  15.137   0.754 -0.0853  0.1079 -0.0034
30982W        W47056   9.649   1.155  14.005  0.0225  0.2753  0.1362
30983W        W47057   6.824  15.659   3.040 -0.1323 -0.1896 -0.3239
30984W        W47058  16.356  16.114  15.935  0.2074 -0.0153  0.1107
30985W        W47059   4.479  10.287   5.268  0.1437 -0.1569 -0.0629
30986W        W47060  15.255   2.424  12.963 -0.2478  0.2974 -0.2127
30987W        W47061   3.064  15.948  14.287 -0.1177 -0.0822 -0.0597
30988W        W47062  16.516  10.685  15.825  0.2069 -0.1168  0.0756
30989W        W47063  14.117  13.540   2.478  0.2536 -0.1853 -0.1516
30990W        W47064  13.531  11.908  13.089 -0.3893  0.0413  0.0631
30991W        W47065   9.431   6.229   4.116 -0.1200 -0.2621 -0.2997
30992W        W47066   3.218  17.317   4.644 -0.0841  0.2679 -0.1916
30993W        W47067   1.353   9.134   5.878 -0.0644  0.1096  0.2077
30994W        W47068  12.330   3.390  12.194 -0.2689 -0.0500 -0.0841
30995W        W47069   1.535  15.677  15.199  0.0618 -0.2116 -0.0826
30996W        W47070   4.551   9.310  14.827  0.1324  0.0672  0.0088
30997W        W47071  12.670   2.959  13.295 -0.1055  0.1289  0.1238
30998W        W47072   0.172  11.763  16.850  0.2715  0.1879 -0.0731
30999W        W47073   9.198   4.978  11.862  0.1398  0.0542 -0.2146
31000W        W47074  12.382  13.191  13.220  0.0174  0.0731  0.2518
31001W        W47075   4.071   9.386  14.640  0.0958  0.0107 -0.3364
31002W        W47076  17.511   1.570  16.688 -0.0588 -0.4364  0.0241
31003W        W47077   4.976   6.109   3.443  0.0623 -0.2240 -0.0038
31004W        W47078  15.631   9.763  12.611  0.0804  0.3973  0.0522
31005W        W47079   9.447   8.696   2.712 -0.0778  0.0605 -0.1965
31006W        W47080  14.894  10.852  14.392  0.2617  0.3945  0.1854
31007W        W47081   1.115   2.216  16.313  0.2782  0.0010  0.0025
31008W        W47082  15.405   1.094   6.158 -0.0063  0.1749 -0.1424
31009W        W47083  17.733   9.915   3.176  0.1972 -0.0555 -0.3595
31010W        W47084  11.879  14.787  15.493  0.1826 -0.1020  0.1915
31011W        W47085   1.712   6.017  17.076 -0.4472  0.1488  0.2485
31012W        W47086  11.247  14.913   4.588  0.0246  0.1085 -0.2947
31013W        W47087  17.261   2.348   5.136 -0.0733  0.1445  0.1972
31014W        W47088  11.481   0.781  12.420  0.1311 -0.1005 -0.2745
31015W        W47089  14.878   8.718   0.845  0.1951 -0.1655 -0.3987
31016W        W47090   1.633   3.895   4.651 -0.0542 -0.2015  0.4737
31017W        W47091  15.691  13.875   5.573 -0.0317  0.1347  0.0704
31018W        W47092   3.591   2.289   5.959 -0.0661  0.0273 -0.1414
31019W        W47093   4.691   3.183   3.626  0.3126  0.3597  0.0648
31020W        W47094   9.818  14.725   5.618  0.1607  0.1166 -0.2097
31021W        W47095   1.971   0.522   4.963  0.3073  0.2805 -0.1697
31022W        W47096   8.879   8.559   3.583  0.0159 -0.0813 -0.0051
31023W        W47097  14.307  16.791  14.849 -0.2395  0.1468 -0.0656
31024W        W47098  13.655   4.293  11.932 -0.0123 -0.0279  0.2167
31025W        W47099   1.777   7.310   0.107 -0.1136 -0.0188  0.2762
31026W        W47100   9.378   9.686   4.955 -0.0434 -0.0190 -0.0063
31027W        W47101  10.573   5.914  15.962  0.0629 -0.2085 -0.1700
31028W        W47102  16.328  13.100  14.047  0.2465 -0.0278  0.1826
31029W        W47103  16.273  11.414  12.236 -0.0344  0.0338 -0.1281
31030W        W47104  11.448   6.834  16.996  0.2474 -0.0474  0.1177
31031W        W47105   2.806   6.119  16.420 -0.1987 -0.1971  0.0531
31032W        W47106   9.875  12.600  16.117  0.2827 -0.1498 -0.0896
31033W        W47107   2.489   3.099  13.912 -0.0311  0.0550 -0.0531
31034W        W47108  16.426   6.485   2.357 -0.1435 -0.0153 -0.1719
31035W        W47109  13.949  14.212  13.978  0.1382 -0.0867  0.1206
31036W        W47110  10.954   8.034  11.860  0.2328  0.3106 -0.1143
31037W        W47111  15.750   7.047  12.016 -0.1431 -0.4122  0.2228
31038W        W47112   9.966   8.138   5.580  0.1081 -0.1477 -0.0258
31039W        W47113   0.890   3.644  13.636 -0.2594  0.4500  0.0052
31040W        W47114  17.506  13.474   3.422  0.0867 -0.1015 -0.0594
31041W        W47115  15.490  14.549  16.867  0.0847 -0.1055  0.2251
31042W        W47116   8.588  16.286   1.245  0.1410  0.0407 -0.1562
31043W        W47117   4.706  10.161   6.322  0.2842  0.0087  0.0087
31044W        W47118   6.435  16.946   2.986  0.1913 -0.0829  0.3162
31045W        W47119   1.185   4.310   4.645  0.0860  0.0145  0.4647
31046W        W47120   7.421   0.549  13.622 -0.1625 -0.0996 -0.1641
31047W        W47121   5.727  11.050   4.438 -0.0363  0.1972 -0.1428
31048W        W47122  14.583  10.858  14.952  0.0826 -0.1840 -0.1007
31049W        W47123   3.468  10.218   0.194 -0.1760  0.1044 -0.0354
31050W        W47124  12.344   5.057   2.254  0.3420  0.1287 -0.2653
31051W        W47125   8.061  17.067   6.059  0.2201  0.0411  0.1706
31052W        W47126  10.298   3.510   2.321  0.0398  0.3392 -0.1882
31053W        W47127  11.631   2.435   5.771  0.0209  0.0491  0.1424
31054W        W47128   5.848  12.452   5.890 -0.0060 -0.0599 -0.1789
31055W        W47129   0.800  11.593  13.997  0.1493 -0.0508  0.3301
31056W        W47130  17.205  17.650   2.437 -0.3511  0.0254 -0.1482
31057W        W47131  12.690   1.994  16.892  0.1025  0.0884 -0.2515
31058W        W47132  13.149  16.149   3.941  0.0582 -0.0952  0.4657
31059W        W47133   6.491  17.381   2.095 -0.0510  0.1328  0.2628
31060W        W47134   1.015   8.140   5.128  0.2800  0.1111 -0.0812
31061W        W47135   3.692   8.641  11.685 -0.1790 -0.1429  0.0826
31062W        W47136   9.431  10.481   1.084 -0.1226 -0.2148  0.0091
31063W        W47137  10.397  17.305   2.433 -0.0917 -0.1027  0.1149
31064W        W47138  14.023  16.361   4.328  0.1919 -0.0988 -0.0241
31065W        W47139   5.421  11.396  14.147  0.1330  0.1968 -0.5173
31066W        W47140   9.536   8.435  14.972  0.0881  0.0704 -0.2882
31067W        W47141  12.299  14.175   2.721  0.1630  0.0960  0.0126
31068W        W47142  17.431  13.899  14.640 -0.2368 -0.0277  0.0399
31069W        W47143  17.353   0.635  13.608 -0.0120 -0.0757  0.2108
31070W        W47144   0.197  17.154  12.340  0.3675  0.1681  0.0098
31071W        W47145   8.063  17.550   1.432  0.1194 -0.0116  0.1452
31072W        W47146  17.069   6.550   2.900  0.0408  0.0262  0.1452
31073W        W47147   4.449   9.981  17.142 -0.1301 -0.1741  0.0774
31074W        W47148   4.332   0.623  16.375  0.1842  0.2987 -0.2642
31075W        W47149  14.862   2.263  16.033  0.0052  0.0163 -0.0636
31076W        W47150   0.740  11.693  12.951 -0.2590  0.0740  0.1611
31077W        W47151   6.903   2.730  13.306 -0.2207  0.1504  0.3790
31078W        W47152   1.499   1.828  15.630 -0.1692  0.0292 -0.2689
31079W        W47153  10.065  15.415   2.341 -0.2306 -0.1068  0.1885
31080W        W47154  15.291   0.370   5.122  0.2547 -0.2028  0.1271
31081W        W47155  11.387  10.892  12.640 -0.1954 -0.1155  0.0716
31082W        W47156  10.844  11.911  15.398 -0.3328 -0.0732 -0.0097
31083W        W47157  11.890  13.980  16.143  0.0845 -0.0560  0.2144
31084W        W47158   5.159   0.040   6.185 -0.1161  0.3354  0.0130
31085W        W47159  10.984  15.734   2.557  0.4167 -0.3529  0.0774
31086W        W47160   0.341   1.877  13.177 -0.3665 -0.2985 -0.1615
31087W        W47161  12.968  15.884   4.363 -0.2945  0.0090 -0.1993
31088W        W47162   4.890   3.300  15.943  0.0789  0.1195  0.1588
31089W        W47163  17.532  14.457  15.832  0.0341 -0.0149  0.2992
31090W        W47164  13.500  16.014  16.265 -0.0504  0.0346 -0.2741
31091W        W47165   8.889  11.129  16.280 -0.4430  0.2218  0.1500
31092W        W47166   2.486   9.651  13.167 -0.2178  0.2447  0.1143
31093W        W47167   3.538   1.786   5.830  0.1186 -0.2674 -0.0476
31094W        W47168   6.490   6.451   0.291  0.1453 -0.0300 -0.0666
31095W        W47169   8.290   8.863   3.325  0.1422 -0.0602 -0.1432
31096W        W47170  14.213  16.433   2.474  0.0041  0.0629 -0.2391
31097W        W47171  11.853   5.095   2.065  0.2594  0.0282  0.1911
31098W        W47172   4.165  13.613  14.592  0.0968  0.2206  0.0922
31099W        W47173   9.923   3.172   4.445 -0.0824  0.2743 -0.1011
31100W        W47174   6.523   8.887   5.532 -0.3227  0.1653  0.0146
31101W        W47175  15.103  12.971   0.750 -0.0085  0.0404 -0.0735
31102W        W47176  16.669  11.751   4.219  0.2899  0.1156 -0.0370
31103W        W47177   5.241   4.353  13.984  0.0738 -0.2876  0.0200
31104W        W47178  11.622   4.978  16.564 -0.0189 -0.1414 -0.1275
31105W        W47179   9.305   6.176   3.561  0.5843 -0.0239 -0.2158
31106W        W47180  11.981   8.075  16.027 -0.0185 -0.0543 -0.0774
31107W        W47181  10.724   3.372   6.790  0.0195 -0.0201  0.1510
31108W        W47182  15.398  15.697   2.953  0.2670  0.0756 -0.1393
31109W        W47183   8.653  16.470   3.470 -0.1431  0.1423 -0.2325
31110W        W47184  11.278  11.876  12.321  0.0999  0.1634 -0.0178
31111W        W47185   9.139  17.735   1.828 -0.2710  0.2882  0.1382
31112W        W47186  10.694  14.447  17.010 -0.1124  0.0612  0.0513
31113W        W47187  15.428  12.055   4.227  0.3643 -0.0768 -0.0404
31114W        W47188  15.428  15.466   4.737 -0.2197  0.5553  0.0414
31115W        W47189   3.511   5.948   5.627 -0.1575 -0.3738  0.0885
31116W        W47190   2.922   8.392   3.786 -0.0271  0.0715 -0.0496
31117W        W47191   8.825  12.869   3.868 -0.1082 -0.2108 -0.0889
31118W        W47192  12.487  13.056  12.748  0.1555  0.1364 -0.1486
31119W        W47193   2.730   5.196   5.043 -0.0980  0.0758 -0.0415
31120W        W47194  11.159  11.248   0.865  0.3766  0.2119 -0.3156
31121W        W47195   8.626   9.183  11.969 -0.1616 -0.0296  0.1605
31122W        W47196   9.134   1.674   6.309 -0.0171 -0.2537  0.2293
31123W        W47197   7.612  17.340  15.002 -0.3068 -0.0173 -0.1606
31124W        W47198   4.450  16.281  15.921  0.1082 -0.0152 -0.0429
31125W        W47199   5.032  11.900  13.174 -0.2429  0.0506  0.2230
31126W        W47200  14.999   8.182   4.646  0.2564  0.0107  0.3500
31127W        W47201   0.328   0.641  16.531  0.0390  0.3323  0.1405
31128W        W47202   8.980   0.648  14.828 -0.1852 -0.2920  0.0538
31129W        W47203   8.425  14.146  14.941  0.3059 -0.2691  0.1106
31130W        W47204   7.928   4.224   2.881 -0.0551  0.1822  0.2412
31131W        W47205   9.463  16.858  12.218 -0.1714  0.0736  0.2520
31132W        W47206  12.701   4.054   3.634 -0.0990 -0.0114  0.0709
31133W        W47207  16.671   1.915  13.040  0.2340 -0.1787  0.1978
31134W        W47208   2.228   8.934   0.346  0.3673  0.3198 -0.1888
31135W        W47209  14.379   3.880  11.364  0.0791 -0.0783  0.2171
31136W        W47210  13.003   0.026   0.353  0.0741 -0.5382 -0.0290
31137W        W47211   6.420   2.054  16.469  0.0877 -0.0099 -0.0671
31138W        W47212   2.236  14.607   1.950 -0.0722  0.2153 -0.1536
31139W        W47213   1.479  14.460   3.017  0.0184  0.1515  0.0361
31140W        W47214  16.060   9.800  15.792 -0.0669  0.0158  0.2182
31141W        W47215   4.674   0.006   4.843  0.1899 -0.1072 -0.1391
31142W        W47216   0.543   5.372   0.143  0.1456  0.1442 -0.1095
31143W        W47217  12.744  16.662  13.272 -0.2382 -0.2025 -0.1308
31144W        W47218  15.567   4.007  12.692 -0.0234  0.0629  0.1157
31145W        W47219  15.343   5.156   3.733  0.0477  0.0119 -0.2215
31146W        W47220  15.449   3.980  14.451 -0.4401 -0.0370 -0.0922
31147W        W47221   9.482  11.362   5.555  0.1308 -0.0010  0.0720
31148W        W47222  14.800   1.594  14.040 -0.0868  0.0170  0.1312
31149W        W47223  15.509  14.041  16.059  0.0353  0.1399 -0.0941
31150W        W47224  16.250  10.760   3.009 -0.0933 -0.1014 -0.2416
31151W        W47225   3.357  15.865   2.439  0.0262 -0.2329  0.1171
31152W        W47226   0.797   0.739   4.464  0.1207  0.0048 -0.2780
31153W        W47227  15.568   6.486   4.968 -0.0483 -0.2852 -0.1311
31154W        W47228  16.412   1.453   1.750 -0.0458  0.0518 -0.1724
31155W        W47229  16.491   3.270   3.319  0.0218 -0.1040  0.0501
31156W        W47230  17.286  17.361  14.072 -0.1067 -0.1747 -0.1475
31157W        W47231  16.407  10.580   4.217  0.2098 -0.1363  0.0142
31158W        W47232   2.956  16.059   4.215  0.5623 -0.0082  0.0214
31159W        W47233   5.772  17.033  11.789 -0.2823  0.1241 -0.0418
31160W        W47234   1.871   0.098  14.816 -0.0987 -0.1525  0.0261
31161W        W47235   9.402  15.072  14.690  0.1631  0.2394  0.2194
31162W        W47236  13.186   1.096  12.706 -0.1862 -0.2266  0.1511
31163W        W47237   8.869   0.268  15.786 -0.1983 -0.0519  0.0891
31164W        W47238  16.525   1.538  13.750  0.0628  0.0205  0.0867
31165W        W47239  13.969   9.737   3.072  0.0864 -0.5325  0.1311
31166W        W47240   0.615  14.858  14.205  0.1259  0.0710 -0.1301
31167W        W47241   9.893  14.378  15.059 -0.0468  0.0670  0.0265
31168W        W47242   5.346  15.402  13.968 -0.1170  0.1663  0.1937
31169W        W47243   5.881   5.244   4.845 -0.1237  0.1642 -0.1062
31170W        W47244  14.463   4.796   3.725  0.0662 -0.0754  0.1912
31171W        W47245   4.109  16.835   0.507  0.1952 -0.3256 -0.1714
31172W        W47246   5.671  12.291   2.368  0.0644 -0.1197  0.0210
31173W        W47247  11.496   4.004   3.880 -0.1485 -0.0933 -0.0565
31174W        W47248  10.436  15.158   5.708  0.0903  0.4438 -0.1329
31175W        W47249   8.241  12.157  12.032 -0.1600 -0.0922  0.1246
31176W        W47250  17.655  10.186  16.419  0.0347  0.0233 -0.2459
31177W        W47251  14.130  10.825   0.808  0.4772  0.1251  0.1068
31178W        W47252   2.556   7.309   3.268  0.4034 -0.1537 -0.0084
31179W        W47253  10.861  11.506   0.073 -0.3517  0.1483  0.3237
31180W        W47254   9.619  11.154  14.097  0.2827 -0.1025  0.0440
31181W        W47255  16.449   4.352  16.831 -0.0694  0.1632  0.0822
31182W        W47256   2.343   7.311  15.231 -0.0100  0.0591 -0.0338
31183W        W47257   5.378   9.784   4.227  0.0820  0.0745  0.0944
31184W        W47258  13.020   6.065  15.690  0.3189  0.2253  0.1952
31185W        W47259  14.386  12.103  13.217 -0.2115 -0.3026 -0.0547
31186W        W47260   9.811   4.270   3.002 -0.1436 -0.1574 -0.0701
31187W        W47261  15.423  12.501  13.014  0.0145  0.1979 -0.0606
31188W        W47262   9.189   2.118  16.651  0.0560  0.1446  0.0062
31189W        W47263  14.607  12.563  14.015  0.1325  0.0303 -0.1564
31190W        W47264   8.732  17.679   0.109 -0.1825 -0.2546  0.1499
31191W        W47265  12.585  10.811  14.491  0.0252 -0.0187 -0.2272
31192W        W47266  11.739  11.415  16.208  0.0884 -0.1666 -0.4572
31193W        W47267  12.566   6.547  12.756 -0.1869  0.0662  0.4206
31194W        W47268  14.393   0.369  13.056  0.1224  0.2373 -0.0519
31195W        W47269   6.141  17.490  12.609 -0.1408  0.2647 -0.2178
31196W        W47270   0.989   9.824  14.632 -0.0209 -0.1128 -0.1230
31197W        W47271  15.552  17.282   5.947  0.2482 -0.0178  0.2225
31198W        W47272   7.955   2.786   0.393 -0.0073 -0.1908 -0.1797
31199W        W47273   4.087   0.669  14.479 -0.0175 -0.1239 -0.0409
31200W        W47274   8.243  12.070   3.763  0.3091  0.0121 -0.0883
31201W        W47275  15.620   3.468  13.284 -0.2057 -0.1510  0.0750
31202W        W47276   1.710  10.397  16.701  0.2159  0.0762  0.2139
31203W        W47277   9.111  15.730   5.427  0.2545 -0.1652  0.2230
31204W        W47278  11.818   9.183  14.213  0.1150 -0.1372  0.2934
31205W        W47279  15.424   2.674   2.697  0.0797 -0.0763  0.3406
31206W        W47280  12.297   6.723  15.995 -0.3104 -0.0294 -0.2266
31207W        W47281  14.920   2.940  14.084 -0.0497  0.0277 -0.0114
31208W        W47282  14.920   6.596   5.792  0.0427 -0.1681 -0.1386
31209W        W47283  12.725  14.660  14.759 -0.2940 -0.2504 -0.0360
31210W        W47284   2.231   0.131   6.022 -0.0393  0.0346 -0.0173
31211W        W47285  15.984  14.256  12.703  0.0825  0.0523  0.1060
31212W        W47286   3.932  11.077  16.995  0.0312  0.1174  0.2248
31213W        W47287   4.841  16.336   1.469  0.0919 -0.0149 -0.0153
31214W        W47288   6.185  16.160   5.663  0.2757  0.2676 -0.1121
31215W        W47289  13.136  12.848   3.983  0.2197 -0.1616 -0.0747
31216W        W47290   8.264  10.643   0.679  0.1371 -0.0198 -0.0393
31217W        W47291   1.140   9.941   4.814 -0.0185  0.2472  0.2090
31218W        W47292   9.529  12.549   1.050  0.3156  0.0465 -0.0133
31219W        W47293   2.280   4.685   0.041 -0.0847  0.2735 -0.2903
31220W        W47294  15.108   3.012   4.486 -0.0369  0.1695 -0.3144
31221W        W47295  13.461   6.159  16.993  0.1460 -0.0864  0.1339
31222W        W47296   7.530   8.422  12.459  0.3008 -0.0063  0.0992
31223W        W47297  14.870   8.518  11.805 -0.0520 -0.1048  0.1323
31224W        W47298   9.819  13.069  16.835 -0.1354 -0.0171 -0.2079
31225W        W47299  12.903  12.191  13.713 -0.1998 -0.0722  0.0087
31226W        W47300  16.968  13.177  14.484  0.0310 -0.4193  0.0808
31227W        W47301   8.835  13.073  12.870  0.3377  0.2039  0.2642
31228W        W47302   0.038  10.474   1.171 -0.0781 -0.0552  0.1001
31229W        W47303   6.496   7.097  13.774 -0.2858 -0.1767  0.1587
31230W        W47304   6.986   2.923   0.340  0.1437  0.0476  0.0892
31231W        W47305  16.909   8.158   1.812  0.1429 -0.1946  0.1054
31232W        W47306   6.919   8.971   5.147  0.4264 -0.2511 -0.1908
31233W        W47307   9.400  17.513  15.021 -0.0337  0.1362  0.1499
31234W        W47308   9.957  17.316   3.591 -0.3143 -0.1328  0.0872
31235W        W47309  15.981   8.224  13.853 -0.2209 -0.0588 -0.4665
31236W        W47310   1.674  13.205   1.287  0.3949 -0.2749  0.1093
31237W        W47311  12.615  16.061   4.705  0.0788  0.0095  0.2343
31238W        W47312  17.655   3.946   4.520 -0.1567 -0.2218  0.1419
31239W        W47313  13.782  12.055  16.947 -0.0856  0.0432 -0.0007
31240W        W47314  11.560   4.687  15.060  0.3407 -0.0437  0.0448
31241W        W47315   5.393  11.082  12.472  0.1775 -0.0175  0.0195
31242W        W47316   3.105   5.964   2.552  0.2087  0.0156  0.4158
31243W        W47317   8.963   4.608   3.446  0.3445  0.0811 -0.0124
31244W        W47318   1.784  16.458  12.158 -0.0311  0.2287  0.0769
31245W        W47319   8.278  13.366  16.345 -0.2039  0.0016 -0.1392
31246W        W47320   3.592   6.177   3.763 -0.0488 -0.1615  0.3251
31247W        W47321  11.411  15.986  13.313 -0.1426 -0.0457 -0.0108
31248W        W47322   1.697   5.678  12.748  0.1806  0.3308  0.2612
31249W        W47323  13.608  17.469  15.566  0.0766 -0.0999  0.1607
31250W        W47324  12.108  12.195  16.595  0.0703  0.1750  0.1992
31251W        W47325   1.952  16.953  16.271  0.1082  0.1965 -0.1998
31252W        W47326  13.598   2.696  13.074 -0.0904  0.2339  0.0175
31253W        W47327   3.903  13.443   4.001  0.0319 -0.0514 -0.0684
31254W        W47328  16.868   0.450  15.665 -0.1505  0.0774  0.2437
31255W        W47329   1.448  16.876  12.184 -0.2434 -0.1285  0.2450
31256W        W47330   0.185   1.456  13.479  0.1695  0.3367 -0.0913
31257W        W47331  13.899  17.531   1.604  0.1113 -0.0735 -0.1971
31258W        W47332  10.970   0.263  13.100 -0.2439 -0.1663  0.0542
31259W        W47333   7.227   7.772  13.125  0.5084  0.2517  0.0323
31260W        W47334   9.866   2.267  16.411 -0.0501 -0.3204 -0.0809
31261W        W47335   1.972   1.411   2.510  0.0747 -0.0096  0.2432
31262W        W47336  16.065  10.611  16.951 -0.0454  0.1625 -0.0720
31263W        W47337  17.102   3.011  14.473  0.1197 -0.1612  0.2322
31264W        W47338  11.631  13.472  14.341 -0.2840  0.2376 -0.0887
31265W        W47339   1.662  15.031  15.820  0.2195  0.1308 -0.0913
31266W        W47340  13.546   3.214  16.819  0.1706  0.1483  0.0993
31267W        W47341  16.798  17.308  16.742 -0.1732 -0.2320  0.0386
31268W        W47342   4.285   8.353  14.543 -0.0927  0.0044 -0.0280
31269W        W47343  13.323   7.888  15.304 -0.2750 -0.2668  0.0197
31270W        W47344   1.112   6.999   4.426 -0.2070 -0.2979 -0.1588
31271W        W47345  15.278  13.230  14.678  0.0144 -0.0701  0.1686
31272W        W47346   6.469   8.069  14.278  0.1291  0.1343  0.1486
31273W        W47347  15.398   6.850   1.478 -0.1448 -0.0986  0.1522
31274W        W47348  17.094   6.152  11.727 -0.0556 -0.0905 -0.1496
31275W        W47349   0.564   7.900  15.919 -0.2949  0.1286  0.0539
31276W        W47350   8.890   1.856   1.379 -0.1893 -0.3896 -0.1570
31277W        W47351  14.020   9.379   2.747 -0.0628 -0.0539 -0.1229
31278W        W47352   3.347  15.339   1.928  0.1109 -0.2367  0.2344
31279W        W47353  17.359  14.414   0.083 -0.0347  0.1692  0.0533
31280W        W47354   1.965   6.599  15.511 -0.1508 -0.2711 -0.0073
31281W        W47355   3.761   5.231   5.154 -0.3504  0.2457  0.0167
31282W        W47356  14.001  11.903   2.108 -0.0529 -0.0559  0.3844
31283W        W47357   0.178  17.341  16.666 -0.1899  0.2192  0.3569
31284W        W47358   7.025  12.238   5.035 -0.0188 -0.2510 -0.1201
31285W        W47359  14.845   8.054   0.180 -0.0818 -0.0266  0.0810
31286W        W47360  13.051  10.098  14.934 -0.1935  0.0275 -0.2749
31287W        W47361   9.384  10.925  16.523  0.1956  0.0038  0.2028
31288W        W47362   7.219   3.992  12.683 -0.1737 -0.0081  0.2881
31289W        W47363  13.650   1.008   1.418  0.0675 -0.4201 -0.0599
31290W        W47364  12.092  14.040   1.274 -0.2235 -0.0090 -0.0197
31291W        W47365   0.514  16.981  16.786  0.1053 -0.1413  0.0012
31292W        W47366  15.862  11.874   4.406  0.0127  0.1624  0.1206
31293W        W47367   8.089   2.738   1.378  0.0268  0.1512 -0.0054
31294W        W47368   6.227   4.710   3.592  0.2068  0.1042 -0.1157
31295W        W47369   1.800   4.569  17.096 -0.1743  0.0536 -0.1361
31296W        W47370  11.982   6.344   5.255  0.0079 -0.3032  0.1164
31297W        W47371   3.187   4.011   6.016 -0.2665  0.0611 -0.1786
31298W        W47372  17.171  11.827   0.820  0.2963 -0.0806 -0.1773
31299W        W47373   6.558   0.827   1.705  0.1962  0.1201 -0.1212
31300W        W47374   5.252  12.413   2.136  0.0068  0.2131 -0.1981
31301W        W47375  11.199   6.694  16.420  0.2424 -0.0364 -0.0304
31302W        W47376   8.104   8.565  14.167 -0.1199 -0.0542 -0.2083
31303W        W47377  17.184  12.802   4.864 -0.1428  0.1884  0.1797
31304W        W47378  12.516   5.596  11.965 -0.1978  0.1938 -0.2462
31305W        W47379  16.691  14.139   2.383  0.1586  0.0803  0.0091
31306W        W47380   1.541   8.430   3.924 -0.1727  0.3871 -0.0644
31307W        W47381  13.465  12.681  12.535  0.2174 -0.0449  0.0251
31308W        W47382   1.139   5.921  11.943  0.0066  0.0393  0.5263
31309W        W47383  10.786   1.201  15.723 -0.2302 -0.0468 -0.3071
31310W        W47384   7.172   5.928  15.235  0.0709  0.0380  0.0143
31311W        W47385  13.286  15.280   3.740 -0.0894  0.4316  0.1190
31312W        W47386  13.613  15.035   5.250 -0.1590  0.3634 -0.3745
31313W        W47387  12.677   7.605   2.905 -0.1255  0.0541 -0.0337
31314W        W47388   0.228   1.946   0.551  0.0061 -0.2794  0.2357
31315W        W47389  12.772  15.699  12.657 -0.0558  0.1525 -0.1731
31316W        W47390   6.648  14.689  15.203  0.2535  0.2792 -0.3287
31317W        W47391  10.176   4.067   2.710  0.1264  0.1692  0.1135
31318W        W47392   5.045   9.808   1.628  0.0086  0.1018  0.0001
31319W        W47393   2.679   1.870   3.286  0.0881  0.0045  0.3109
31320W        W47394   5.917   2.621  13.465  0.0974  0.0522  0.4441
31321W        W47395   2.971   5.034   3.232 -0.0030  0.2403 -0.1197
31322W        W47396  10.668   7.936   4.651 -0.0097 -0.1243  0.1430
31323W        W47397  17.567  12.661   1.869  0.1661 -0.0783  0.0116
31324W        W47398   8.457  14.304  13.191  0.0050 -0.1567 -0.1356
31325W        W47399  14.869  12.395   0.488  0.2084  0.1526 -0.0220
31326W        W47400  11.951  14.685  15.030  0.0958 -0.1157  0.2104
31327W        W47401  10.601   7.409   5.877 -0.0753 -0.0058  0.0395
31328W        W47402  11.269   3.084   4.007 -0.0516  0.2767  0.0960
31329W        W47403   2.344   1.237   3.822 -0.0725 -0.1069  0.3558
31330W        W47404   9.136   7.583   4.654  0.1423 -0.1613  0.3257
31331W        W47405  12.748  13.230   4.741 -0.1394  0.1600  0.0013
31332W        W47406   8.920   4.781  16.443  0.0404 -0.0095  0.1353
31333W        W47407   2.094   7.719   0.239  0.2741  0.0266  0.0585
31334W        W47408  16.709  12.126   5.713 -0.0306  0.1366 -0.0892
31335W        W47409  14.392  10.512   3.375 -0.1858  0.1924  0.0816
31336W        W47410   3.236   8.245  15.440 -0.0384  0.0751 -0.1252
31337W        W47411   2.081  12.727   0.676  0.0800 -0.2940 -0.0601
31338W        W47412  15.259  14.823   3.915 -0.2624 -0.0921  0.1666
31339W        W47413   5.638   8.081  13.911  0.0561 -0.2471  0.2273
31340W        W47414   7.995   3.282   4.143 -0.0863  0.1580  0.1307
31341W        W47415   0.474   4.486   4.086  0.1392  0.0980  0.1477
31342W        W47416   8.009   7.709   4.023  0.0036  0.3142  0.0354
31343W        W47417   8.593   0.291  13.200  0.0034  0.0076 -0.2503
31344W        W47418   2.959  13.688  14.035 -0.1131  0.0105  0.3011
31345W        W47419  11.193   2.318   3.422  0.2246 -0.0683 -0.1651
31346W        W47420   2.139  12.863   1.503 -0.3929 -0.2159  0.2521
31347W        W47421   3.378   8.613  15.118 -0.2071  0.0264  0.0528
31348W        W47422  12.212  13.949   4.280 -0.0106 -0.0013  0.2702
31349W        W47423   2.594  17.416  11.440 -0.1308  0.0567 -0.1225
31350W        W47424  10.984   7.940   5.540 -0.3621 -0.1435  0.2133
31351W        W47425   6.447  16.664  15.834 -0.2576  0.2447  0.1227
31352W        W47426   6.007   2.889   6.835 -0.0591 -0.2972  0.0531
31353W        W47427   4.887  12.616   5.703  0.0705  0.1682 -0.0238
31354W        W47428   0.083   6.408  14.447 -0.2110  0.1095  0.1936
31355W        W47429   2.321  11.596   3.120 -0.0162 -0.1184  0.3145
31356W        W47430   2.732  11.865   3.028  0.0401  0.0447 -0.1196
31357W        W47431   6.919   0.792  13.667  0.3798  0.0159 -0.0063
31358W        W47432   4.943   4.231  15.211  0.0305  0.1686  0.2970
31359W        W47433   8.615  14.057   0.930  0.2715 -0.0356  0.0254
31360W        W47434  15.809   3.485   2.530 -0.1816  0.1182 -0.2619
31361W        W47435   8.544  16.015   5.563 -0.0695  0.0095 -0.2909
31362W        W47436  11.302  14.628  16.444  0.0295 -0.3150 -0.0648
31363W        W47437   7.233  11.486  15.044  0.2135  0.0995  0.1233
31364W        W47438   0.904   7.624   4.219  0.0132 -0.2605 -0.0672
31365W        W47439   3.594  16.399   1.171  0.1750 -0.0118 -0.1467
31366W        W47440   0.252  13.863  15.860 -0.2061 -0.0438 -0.0942
31367W        W47441  11.279   6.894   4.745  0.1497 -0.0777  0.0923
31368W        W47442   7.101   1.987   6.012 -0.1618 -0.0956  0.2858
31369W        W47443  15.352   6.004   1.297  0.1902 -0.1613 -0.2254
31370W        W47444  11.605  12.847  15.232  0.0216  0.2552 -0.2876
31371W        W47445  16.898   3.565  15.906 -0.2108 -0.0317  0.1068
31372W        W47446   9.587   1.756   5.412 -0.2792  0.3597 -0.2531
31373W        W47447   2.148  15.969  14.013 -0.2249  0.0347 -0.0544
31374W        W47448   8.362  10.868  11.979  0.2316 -0.3103  0.3193
31375W        W47449   1.536   5.733  13.690  0.2480 -0.1148 -0.4298
31376W        W47450  17.320   0.642  15.656  0.1606  0.3545 -0.1808
31377W        W47451  13.500  15.099  13.303 -0.0139  0.0410 -0.2479
31378W        W47452  14.225   4.583  13.765 -0.1152  0.0559 -0.0664
31379W        W47453   7.204   2.901   4.049 -0.2232 -0.1588  0.0875
31380W        W47454   3.995  10.551   1.616 -0.0194 -0.1951  0.2018
31381W        W47455  10.807   8.321  13.579  0.2314  0.0842 -0.0088
31382W        W47456  10.969   7.093   6.048  0.0924 -0.1035 -0.0228
31383W        W47457  11.336   6.362  17.092  0.0428 -0.0314 -0.3521
31384W        W47458  17.272   3.225  16.085  0.0591 -0.0692 -0.3841
31385W        W47459  15.823  16.874  15.501 -0.3227 -0.0602  0.1850
31386W        W47460  11.082  15.192   6.644  0.1737  0.3754 -0.1320
31387W        W47461   9.091  17.133  12.825  0.1001 -0.0324 -0.0397
31388W        W47462   9.241  12.258   1.578  0.3325 -0.1940  0.2687
31389W        W47463  16.042  15.348  12.092 -0.0812  0.2579 -0.1415
31390W        W47464   8.398  11.927  15.218 -0.3179 -0.1637 -0.0093
31391W        W47465   3.186  10.723  14.101 -0.1093  0.3512  0.0919
31392W        W47466  14.768  15.133   5.447  0.1169 -0.0559  0.1183
31393W        W47467  14.105   7.104   2.531 -0.2289  0.1398  0.1982
31394W        W47468   0.522  10.101   1.905 -0.2062  0.0326 -0.0181
31395W        W47469   2.642   3.813   6.021  0.0720  0.1024 -0.0611
31396W        W47470  15.909  13.925  13.724 -0.5819 -0.1453  0.0648
31397W        W47471   5.762   8.251  17.028  0.0768 -0.0123  0.0786
31398W        W47472  13.551   0.375   6.641  0.0064 -0.0349 -0.0895
31399W        W47473   3.523   3.306  11.950  0.1840  0.0744  0.1062
31400W        W47474   3.937   5.510  16.541  0.0939 -0.0238  0.0075
31401W        W47475  13.849   4.710   4.972  0.1421 -0.0067  0.0075
31402W        W47476  12.220   8.516  15.799 -0.0896 -0.0710  0.0469
31403W        W47477   7.287   0.450  12.180  0.0668 -0.0680 -0.0728
31404W        W47478   1.516   0.921   5.597  0.2296 -0.2424  0.3417
31405W        W47479   5.116  16.785   4.703  0.1555 -0.1649 -0.2293
31406W        W47480  16.935   2.579   2.782  0.1262  0.0799 -0.4197
31407W        W47481   7.817  11.584  13.509  0.0292  0.1870  0.3672
31408W        W47482   4.655  13.358  15.516  0.2044  0.1968  0.0996
31409W        W47483   7.393  14.193   1.058 -0.1038  0.1432  0.0570
31410W        W47484  16.382   3.996  13.384  0.1499  0.1352 -0.0490
31411W        W47485  12.628   8.194   1.454  0.1493 -0.0548 -0.0964
31412W        W47486   5.380  12.751   2.510 -0.1953  0.1216 -0.1307
31413W        W47487   9.777  10.125   5.714 -0.2069 -0.1344  0.2670
31414W        W47488  14.345  12.622   3.894 -0.3035 -0.0356  0.0149
31415W        W47489  14.210  14.410   2.885  0.2365  0.1096  0.0017
31416W        W47490  14.270   5.575  15.802  0.1842 -0.2993  0.0063
31417W        W47491   3.968  17.480   1.938 -0.2715  0.1791  0.0274
31418W        W47492   8.130   3.507   6.150 -0.3288  0.3507 -0.1561
31419W        W47493  15.034   3.446   2.952 -0.2485 -0.0246  0.0049
31420W        W47494   3.744  12.007   5.091  0.0982  0.1622  0.1148
31421W        W47495  13.514  12.069   2.178 -0.0710  0.0486  0.0323
31422W        W47496   4.324   1.755  12.886  0.2880 -0.1271  0.1916
31423W        W47497  10.764   3.832   1.157 -0.4785  0.0631 -0.0444
31424W        W47498   5.817   7.796   4.401  0.3628  0.2462  0.0047
31425W        W47499   0.114  11.196  14.467  0.0223 -0.0832  0.0754
31426W        W47500   6.028  15.890  16.559 -0.3013 -0.3202 -0.0763
31427W        W47501  11.559  12.975  14.311 -0.0158  0.2193  0.2398
31428W        W47502   6.792   6.303   0.685  0.1616 -0.1435  0.1268
31429W        W47503   9.112  14.725   1.505 -0.0433 -0.2153 -0.1415
31430W        W47504   8.572   6.198  13.274  0.2975 -0.0424 -0.1517
31431W        W47505   8.730   7.117   2.568 -0.3714  0.2186  0.1303
31432W        W47506   8.394   0.024   4.395  0.1634 -0.0043  0.1737
31433W        W47507   9.608   4.536  12.331 -0.1285 -0.0463 -0.0759
31434W        W47508   3.086  13.776   4.431  0.1988 -0.1958  0.1586
31435W        W47509   9.359   4.072   4.340 -0.1683 -0.1295 -0.0544
31436W        W47510   3.700   6.781   5.347 -0.0261  0.1743 -0.1020
31437W        W47511   1.070  13.471   1.163  0.4343 -0.1469 -0.0526
31438W        W47512  10.646   8.561  16.187  0.0375  0.2550  0.1521
31439W        W47513   8.734  11.548   0.415 -0.0520  0.1728  0.1043
31440W        W47514   7.405   6.809  13.783  0.0388 -0.1156 -0.1427
31441W        W47515   1.071  12.321   5.223  0.1137  0.1446  0.2590
31442W        W47516   6.699  16.009   5.615  0.1469  0.0883 -0.0334
31443W        W47517  16.272   4.896   3.240  0.0501 -0.0204  0.1286
31444W        W47518   8.206   0.577  14.088 -0.1209  0.2299  0.0992
31445W        W47519  17.447  11.801  11.999 -0.0384  0.0041  0.1584
31446W        W47520  11.370   3.703   3.419 -0.0792 -0.0291 -0.1522
31447W        W47521   9.892   4.317  13.988  0.0040  0.1068  0.3139
31448W        W47522   7.299  11.026  14.990  0.3290  0.2133 -0.1004
31449W        W47523  13.539   7.190  14.677  0.0037  0.1880  0.2492
31450W        W47524   3.873  13.832  16.350  0.0059 -0.0333  0.0233
31451W        W47525  11.688  14.793  16.812  0.3432 -0.0569  0.2875
31452W        W47526   7.150   8.523   0.520  0.1630  0.1447  0.0005
31453W        W47527   8.439  14.913  13.261  0.1088 -0.3879  0.0048
31454W        W47528  16.697   2.760  14.217 -0.0576 -0.1536 -0.0441
31455W        W47529  14.343   2.067  12.091  0.1526 -0.2812  0.1718
31456W        W47530  15.588   4.124   1.403  0.1101  0.2223 -0.0988
31457W        W47531   9.288  11.675   5.905 -0.0876 -0.2863  0.2239
31458W        W47532  17.368   4.928  13.738 -0.3453  0.1454  0.0457
31459W        W47533  14.263  17.551   0.254  0.2935  0.2502 -0.1614
31460W        W47534   4.693   0.032   1.929  0.0782 -0.3023 -0.0817
31461W        W47535  14.871  16.302   2.475  0.0479 -0.3088 -0.0102
31462W        W47536  15.315  17.281  12.034  0.2033 -0.3521  0.1291
31463W        W47537  11.872   1.642   3.444  0.0187  0.2773  0.2778
31464W        W47538   3.558  13.507  14.520  0.0040 -0.2131  0.1015
31465W        W47539  14.161   4.505   5.778 -0.0945 -0.2737  0.1902
31466W        W47540   4.420   0.339  14.675  0.3111  0.1513  0.4063
31467W        W47541  16.911  16.005  15.473  0.2477  0.0503  0.0148
31468W        W47542   2.687   2.758  12.095 -0.2299  0.1605 -0.2972
31469W        W47543  10.539   4.400  12.458 -0.1980  0.1672  0.0557
31470W        W47544   5.611  12.283  12.645  0.4655  0.1538 -0.0912
31471W        W47545  16.380  12.196   2.365  0.1505 -0.0585  0.1431
31472W        W47546  10.412   8.658  13.501 -0.2626  0.3546  0.1196
31473W        W47547  10.991  15.796   3.895  0.1410 -0.2509 -0.2229
31474W        W47548   2.260   2.110   5.379 -0.0546 -0.1926  0.2061
31475W        W47549  15.211   4.896   0.111  0.2006 -0.0853  0.1686
31476W        W47550  11.443  15.154  15.457 -0.0517 -0.3588 -0.0562
31477W        W47551   2.890   9.931  14.103 -0.1367 -0.2811 -0.0953
31478W        W47552  10.237  11.594  16.854 -0.1641 -0.1351 -0.0733
31479W        W47553  11.422  14.316  16.134  0.0004  0.0163 -0.2209
31480W        W47554   0.346   8.386   3.656  0.0076 -0.1169  0.1974
31481W        W47555  15.486   1.946  15.397  0.0804  0.0872  0.1045
31482W        W47556   2.305  14.843  16.116 -0.2167  0.0356  0.2762
31483W        W47557   9.666  12.333   5.277 -0.0590 -0.1538  0.0671
31484W        W47558  15.676  11.362   6.787 -0.0557  0.0419 -0.0916
31485W        W47559   5.993  16.988   0.927  0.1201  0.1509  0.1054
31486W        W47560   1.523  12.285   0.062  0.0302  0.2029 -0.0709
31487W        W47561   0.815  15.782  13.389 -0.2915  0.0805 -0.0373
31488W        W47562   4.447   0.414  13.707 -0.1261 -0.1155  0.0455
31489W        W47563   3.644  15.933  12.962 -0.2364 -0.0750 -0.1058
31490W        W47564  13.544  11.247   0.110 -0.0929 -0.0548  0.1522
31491W        W47565   8.887  12.606   5.379  0.0257  0.2819  0.1105
31492W        W47566  11.819  13.984   5.339 -0.0821 -0.2636 -0.1751
31493W        W47567  12.880   3.103   4.975 -0.1406  0.0715  0.0969
31494W        W47568  13.908  17.293   3.614 -0.1338 -0.0762 -0.1536
31495W        W47569  14.052   3.821   1.774  0.0741  0.1223 -0.0387
31496W        W47570   6.320   2.345  16.864  0.1998  0.1228 -0.3041
31497W        W47571  13.444  11.302  14.020  0.3985 -0.1872  0.0613
31498W        W47572   3.229   6.104  15.589 -0.1871 -0.3209 -0.0267
31499W        W47573  13.541   8.937  11.588  0.1737  0.1159  0.2405
31500W        W47574  13.953  10.111   1.029 -0.1271  0.1579 -0.2416
31501W        W47575  11.932  15.109  12.826  0.3307 -0.0262 -0.1967
31502W        W47576  11.084   5.197   2.623 -0.0089 -0.2326  0.0359
31503W        W47577  16.748  10.532  16.487 -0.0960  0.2632 -0.1190
31504W        W47578   8.724  15.765   0.299 -0.0902  0.3079  0.1227
31505W        W47579  15.619  12.576  14.393  0.0631  0.0058 -0.0875
31506W        W47580   0.552   5.936   0.391 -0.0906  0.2271 -0.1490
31507W        W47581   3.092   4.903  17.060  0.2015  0.1434  0.2593
31508W        W47582   5.982  12.960   4.743  0.0695  0.0045  0.1546
31509W        W47583  14.881  11.861   0.825  0.1047  0.1190 -0.1847
31510W        W47584   3.619   8.469   4.471  0.0199 -0.3245 -0.0081
31511W        W47585   4.192   8.869  14.036  0.1410  0.3126  0.0894
31512W        W47586   8.893  10.292   3.954  0.0529  0.4067 -0.2271
31513W        W47587   4.516  11.016   5.355 -0.0806  0.0093 -0.0948
31514W        W47588  10.899   8.174   5.072 -0.2619 -0.1235  0.0370
31515W        W47589  12.656  14.399  12.982 -0.1039 -0.3468 -0.0099
31516W        W47590   3.019   2.157   5.305 -0.2040 -0.0912 -0.3453
31517W        W47591  10.166   9.073  13.261 -0.0788 -0.0457  0.0704
31518W        W47592  14.422  13.298  12.728 -0.0994  0.0077  0.1591
31519W        W47593   0.258  13.484  12.324  0.1345 -0.2473  0.2422
31520W        W47594   5.469  11.564   3.852 -0.2982  0.1515  0.1399
31521W        W47595  13.701   4.130   1.620 -0.0432 -0.0633  0.0179
31522W        W47596   2.493   9.355  16.728  0.4065 -0.0447  0.0777
31523W        W47597  17.429  13.577  17.103 -0.0419 -0.0211  0.0104
31524W        W47598   5.722  17.620  14.924  0.1004  0.0314 -0.3320
31525W        W47599   6.062  16.634   2.007 -0.0483 -0.3883 -0.0006
31526W        W47600  14.345   0.763   1.858 -0.1999  0.1153 -0.1769
31527W        W47601   2.843   1.780  15.386 -0.1159 -0.1401  0.3584
31528W        W47602   0.051  13.114   1.875  0.2252  0.0882 -0.1084
31529W        W47603  10.923  14.877   4.180 -0.0021 -0.0005  0.4285
31530W        W47604   2.981   6.140   0.974  0.1312 -0.0950 -0.2213
31531W        W47605   5.622   9.424   0.860 -0.1761  0.2869  0.0542
31532W        W47606   0.082   3.384   6.150 -0.3663 -0.0163 -0.1415
31533W        W47607  15.844   8.982  14.418 -0.2385  0.4134  0.0238
31534W        W47608   9.012   9.880  12.552  0.1494  0.2785  0.3612
31535W        W47609   7.973  13.090   0.560  0.0899  0.0614  0.1365
31536W        W47610   6.583  10.362  17.111  0.0105  0.2592 -0.0042
31537W        W47611   7.370   6.575  12.002 -0.6007  0.2191 -0.3382
31538W        W47612   1.976  14.988   6.079  0.1088  0.0781 -0.0843
31539W        W47613   1.583   6.819  11.960  0.2681  0.1363 -0.1563
31540W        W47614   5.653   9.798   3.776 -0.0817  0.0337  0.1894
31541W        W47615  15.630   6.472   1.724 -0.2180  0.1550 -0.0111
31542W        W47616  13.476  13.336   2.218 -0.1347  0.0425  0.1401
31543W        W47617  17.334   3.028  13.078  0.0411  0.1066 -0.0550
31544W        W47618  10.417   9.351  14.191  0.2487  0.2946  0.1314
31545W        W47619   8.425   3.791   6.406 -0.4134 -0.0679 -0.2640
31546W        W47620   6.123   4.726   4.706  0.1868 -0.0750  0.0269
31547W        W47621  10.521   2.121  14.287 -0.2254 -0.0915 -0.0490
31548W        W47622   5.090  17.550   5.653  0.0874 -0.0918 -0.2423
31549W        W47623   6.207   0.322   4.970 -0.2140 -0.0516  0.0099
31550W        W47624   7.242  13.538  13.608 -0.0601  0.0796 -0.0233
31551W        W47625  12.883   4.157   4.727  0.0481  0.1118  0.0088
31552W        W47626  11.877   5.486   3.049  0.4302  0.1345 -0.0749
31553W        W47627  15.098   0.971   3.238  0.1434 -0.0724 -0.1249
31554W        W47628  10.197  17.652  16.049 -0.0318  0.2106  0.4796
31555W        W47629   4.468  15.395   1.827 -0.1181  0.0338  0.1069
31556W        W47630  11.036   4.420  16.733 -0.0727  0.0684  0.1723
31557W        W47631  16.503   3.556   0.498 -0.0749  0.0671 -0.1509
31558W        W47632  11.564   3.183   1.788 -0.4400  0.3806 -0.2319
31559W        W47633  14.648   5.029   1.259  0.1138  0.0852  0.0621
31560W        W47634   2.003   6.854   0.137 -0.3357  0.1297  0.2164
31561W        W47635  16.393   0.783   1.011  0.1498  0.4373  0.0637
31562W        W47636  10.865   2.994   0.497 -0.0482  0.1672  0.1285
31563W        W47637  14.345  10.182   1.895 -0.0945 -0.0313  0.0503
31564W        W47638   8.563   1.874  15.753  0.0354  0.0196 -0.2434
31565W        W47639   3.337   9.340  15.868 -0.3675  0.0184  0.0412
31566W        W47640  15.828   5.358   3.918 -0.0620 -0.2639  0.1116
31567W        W47641   9.348  15.927   3.481 -0.2079  0.3224 -0.0581
31568W        W47642  11.951   5.823   5.238 -0.1565  0.1057  0.0436
31569W        W47643   3.555   0.671   6.343  0.3560 -0.0284  0.0058
31570W        W47644  13.575   0.360  12.919 -0.1443  0.0815  0.2227
31571W        W47645  16.130   4.257  14.810  0.2702 -0.1674 -0.0675
31572W        W47646  10.948  10.008   1.332  0.1692 -0.0017 -0.0337
31573W        W47647   0.830  12.478   0.642  0.1620 -0.1229  0.0681
31574W        W47648   2.622  14.812   1.590 -0.0033 -0.3308 -0.0217
31575W        W47649  17.593   5.892  11.864  0.0618 -0.0723 -0.0366
31576W        W47650  15.799  16.866  13.207 -0.0184  0.0463 -0.1688
31577W        W47651  11.396  14.658   6.014  0.0815 -0.1945  0.4374
31578W        W47652   8.755  13.257   3.290  0.1621 -0.1166  0.0629
31579W        W47653  10.239   4.273   2.170 -0.2013 -0.0414  0.3978
31580W        W47654   9.730  17.722   5.033 -0.0958 -0.2708 -0.0554
31581W        W47655   8.202  13.633  15.909 -0.2596  0.0227 -0.0736
31582W        W47656   2.479  10.970   1.020  0.1269 -0.0422  0.2370
31583W        W47657   7.507   1.168   5.178 -0.1666 -0.0365  0.3379
31584W        W47658  14.356  15.212  11.981 -0.1183  0.0835 -0.0170
31585W        W47659   9.903  10.868   4.339 -0.0584 -0.2417 -0.2753
31586W        W47660   4.983   2.148   0.851 -0.0377  0.0600 -0.0504
31587W        W47661   3.420   1.300  10.999  0.1759  0.0058  0.1364
31588W        W47662  12.499   7.458  14.258  0.0864  0.1714  0.4333
31589W        W47663   3.201   9.996   1.519 -0.2427  0.0417  0.1423
31590W        W47664   2.208  16.648  13.181 -0.0447 -0.0803 -0.3838
31591W        W47665  15.195  10.443   4.252  0.2133 -0.3700  0.0974
31592W        W47666   6.327  13.094   0.595 -0.1632 -0.0167  0.2571
31593W        W47667  14.073  13.506  14.613 -0.1908 -0.0457 -0.0985
31594W        W47668   7.030   7.433  16.203 -0.0728  0.0249 -0.0263
31595W        W47669   7.089  13.773   1.728  0.0787  0.1311 -0.2321
31596W        W47670   5.397   5.265   0.439  0.1134  0.1076 -0.1368
31597W        W47671   7.656   4.415   1.714 -0.2091 -0.0076  0.1875
31598W        W47672   9.662   9.450   3.140 -0.0795  0.0220  0.2255
31599W        W47673   6.610   4.064  13.027 -0.0542 -0.3179  0.1490
31600W        W47674  10.761   6.630   0.318 -0.1441 -0.2000  0.1143
31601W        W47675   1.009  12.758  14.792 -0.1412 -0.3256 -0.3032
31602W        W47676  13.877  11.180   3.173  0.2882  0.1678  0.0706
31603W        W47677   2.527  10.526  11.947 -0.1216 -0.1138 -0.4147
31604W        W47678   8.791   6.994  12.359 -0.2319  0.2435 -0.0739
31605W        W47679   0.938  16.233   3.273  0.0997 -0.1981 -0.0649
31606W        W47680  11.861  12.468   2.489 -0.1766 -0.0486  0.2307
31607W        W47681  10.949  14.985  11.592 -0.0238  0.0050  0.0555
31608W        W47682   3.469   5.550  12.336 -0.0839 -0.0518  0.0871
31609W        W47683  10.731  17.224  13.375  0.4443  0.1245  0.0757
31610W        W47684   4.359  11.638   0.262  0.1584 -0.2061  0.2375
31611W        W47685  13.118   3.468  13.518 -0.1493 -0.0788 -0.1872
31612W        W47686  17.392   7.338  16.646 -0.0838 -0.0305  0.3222
31613W        W47687   1.103  13.536  15.192 -0.0504 -0.0849  0.2352
31614W        W47688  10.336   6.627  17.137  0.0841  0.0226 -0.1694
31615W        W47689   5.978   7.537   4.784  0.0432  0.0302  0.2023
31616W        W47690  17.162   4.901   4.621 -0.3033 -0.0426  0.0271
31617W        W47691   1.228  15.566  13.531  0.1690 -0.0410 -0.1820
31618W        W47692   2.463  14.277   0.671  0.0539 -0.1020  0.1486
31619W        W47693  11.771   0.555   5.710  0.2711  0.1008 -0.0174
31620W        W47694   3.887   9.333  13.352 -0.1047  0.0587 -0.0640
31621W        W47695  17.583  12.896  13.306 -0.1637  0.0649  0.2635
31622W        W47696  10.490   1.882   4.200 -0.0735  0.5000  0.0005
31623W        W47697   1.933   3.825  11.911  0.1319  0.1163 -0.1279
31624W        W47698   5.115  17.206  11.816  0.1673  0.0738 -0.1354
31625W        W47699   2.670   4.840  12.145 -0.0817 -0.1875  0.0101
31626W        W47700  16.278   6.670  15.518  0.0278 -0.1540  0.1048
31627W        W47701  10.185  15.688   5.144  0.1070 -0.0701  0.3667
31628W        W47702  16.055  13.520  13.306 -0.0243  0.1964 -0.3527
31629W        W47703  15.652  15.085   6.045 -0.3627  0.2081  0.1634
31630W        W47704   1.019   2.629   6.080  0.2615 -0.1959  0.0981
31631W        W47705  14.552   3.108  16.381 -0.2538 -0.0505 -0.1668
31632W        W47706  10.956   0.699   4.935  0.0284  0.0180  0.0250
31633W        W47707   7.850   4.182  11.507 -0.2028  0.0142  0.0351
31634W        W47708  13.905   2.442   4.642  0.1909 -0.1220  0.1837
31635W        W47709   9.457  12.131   5.935 -0.0366  0.0913 -0.0330
31636W        W47710  12.435   2.900   2.083  0.1216  0.2853  0.2712
31637W        W47711  17.599   9.024   3.152 -0.1090 -0.1065  0.1069
31638W        W47712  11.416   6.191   2.637 -0.1447  0.1459  0.1284
31639W        W47713  13.154   2.842  16.237 -0.0562 -0.1336 -0.0700
31640W        W47714  14.562   3.839  14.382  0.0245 -0.1581  0.2612
31641W        W47715   9.028   9.394   1.684 -0.1952 -0.0731  0.3534
31642W        W47716  15.200   4.185  13.881  0.1023 -0.0117  0.1102
31643W        W47717   4.643   0.904   5.387  0.2701 -0.0971 -0.1290
31644W        W47718   7.913   5.090   5.194 -0.1242 -0.0080  0.2778
31645W        W47719   1.181   6.824  13.397  0.0964  0.0290 -0.2493
31646W        W47720   0.623  10.012   5.160  0.1874 -0.2950 -0.2112
31647W        W47721  14.991  10.600   1.511 -0.2455  0.0703 -0.0394
31648W        W47722   0.209  10.819   4.600 -0.0564 -0.0891 -0.2062
31649W        W47723  17.054  17.593   4.556 -0.2001 -0.0928 -0.3295
31650W        W47724   2.188   4.544   5.282 -0.0179  0.2541 -0.0883
31651W        W47725   3.184   2.493   0.864 -0.1752 -0.0580 -0.0798
31652W        W47726  16.474   0.902   4.151 -0.0005 -0.3399 -0.0068
31653W        W47727   4.537   2.184  13.739  0.0644  0.3213  0.3994
31654W        W47728   7.060   6.953  14.967 -0.0872  0.0473 -0.1758
31655W        W47729   5.721   5.630   1.922  0.1292  0.2080 -0.1234
31656W        W47730   2.520   3.306   4.629 -0.0595  0.2842 -0.0747
31657W        W47731   5.941   3.348  11.834  0.0041 -0.0400  0.0546
31658W        W47732   7.441   4.723   0.269 -0.1927  0.0211 -0.1878
31659W        W47733   1.000   5.864   1.661 -0.0556 -0.0518 -0.0852
31660W        W47734   4.959  10.564   4.833 -0.3113  0.4435 -0.0369
31661W        W47735  15.454   0.415  17.130  0.2615  0.1415 -0.3062
31662W        W47736   7.804   1.967   4.907 -0.1316  0.2015 -0.0980
31663W        W47737  10.086  11.394  12.727 -0.1512 -0.2529 -0.1277
31664W        W47738  14.593   0.353  14.143  0.3354 -0.0275  0.0220
31665W        W47739   8.871   9.172   2.334 -0.0780 -0.1006  0.0153
31666W        W47740   8.360   1.601   0.165  0.1671 -0.1204  0.2194
31667W        W47741   6.701  12.358   1.003 -0.1763  0.0235 -0.0530
31668W        W47742  17.000   5.419   3.605 -0.1476  0.0681 -0.2521
31669W        W47743   4.311   4.680  16.313 -0.2419 -0.2068  0.0234
31670W        W47744   4.890  16.626  15.436  0.0845  0.2316  0.0140
31671W        W47745   8.061  10.644   5.650 -0.0854 -0.0191  0.2302
31672W        W47746   5.292   9.430   4.865 -0.1312  0.0258  0.3471
31673W        W47747   3.955  17.113   1.312  0.3987  0.2361 -0.1874
31674W        W47748  13.286  16.615   4.102 -0.1286  0.3645 -0.1465
31675W        W47749  13.944   2.174  14.764 -0.0214 -0.2510 -0.1066
31676W        W47750  16.149   7.232  12.744 -0.1185  0.1784  0.2356
31677W        W47751  12.280   2.338   3.856 -0.0388  0.0140 -0.0656
31678W        W47752   3.494   0.218   2.789 -0.1109 -0.1062  0.4951
31679W        W47753   7.954  12.727   3.221  0.0650 -0.2714 -0.1697
31680W        W47754  13.429   1.501   4.354 -0.2204 -0.0846  0.4587
31681W        W47755  16.046   8.841   3.790  0.1036 -0.3838 -0.0819
31682W        W47756   8.450  16.222  14.236  0.1679 -0.0745 -0.0443
31683W        W47757   9.278  11.604  13.382 -0.3496  0.1589 -0.0276
31684W        W47758  16.047   7.871  14.258 -0.1682  0.4099  0.0230
31685W        W47759  15.421  11.298  14.902 -0.0138  0.3364 -0.2074
31686W        W47760  17.248   9.762   2.224 -0.0278  0.1205 -0.0783
31687W        W47761  15.047  12.766  12.672  0.0023 -0.2044  0.3458
31688W        W47762   0.191  12.228  12.838  0.2048 -0.2334 -0.1168
31689W        W47763  13.046  10.339  11.718  0.3669 -0.1042  0.1276
31690W        W47764  12.827   3.982   0.377  0.1213 -0.0176  0.3757
31691W        W47765  10.620   4.170  16.682  0.2098 -0.1709  0.0412
31692W        W47766  15.764  10.595   3.097 -0.1095 -0.1096  0.0172
31693W        W47767   1.014  12.802  15.802  0.0016 -0.0033 -0.2512
31694W        W47768   3.304  16.448  16.083  0.2524 -0.1315 -0.1386
31695W        W47769   7.887   9.069   0.836  0.2708 -0.1496  0.1815
31696W        W47770   8.199   2.403   1.941  0.3857 -0.1403 -0.1715
31697W        W47771  12.898   7.164   5.888  0.2096 -0.2630 -0.3063
31698W        W47772  11.184   1.784  13.336  0.1694  0.0008 -0.4190
31699W        W47773   9.792   9.124  14.655 -0.1882  0.1368  0.0520
31700W        W47774   9.569   7.678   2.554  0.1215 -0.1656  0.3754
31701W        W47775  15.942  14.657   1.659  0.0314  0.0204  0.2118
31702W        W47776  11.783  13.832  13.115 -0.1190  0.2939  0.4509
31703W        W47777   1.404   5.422   0.200 -0.1013  0.4833 -0.3173
31704W        W47778   5.229  13.808   1.977  0.0671  0.2716 -0.0474
31705W        W47779   3.900  12.266  12.765 -0.0069  0.1719 -0.1458
31706W        W47780   1.374  10.263  13.827 -0.0479  0.1244 -0.0449
31707W        W47781   6.969  11.211   3.050  0.1121  0.2206  0.1696
31708W        W47782  14.372   9.571   4.228 -0.1650 -0.1300  0.2677
31709W        W47783  15.514   2.883  15.120 -0.2422  0.0330 -0.0143
31710W        W47784  10.052  13.667   0.332  0.1165  0.0145  0.3430
31711W        W47785   5.038  13.168   5.923 -0.1208 -0.1049 -0.0449
31712W        W47786  14.845   4.713  16.090  0.1248  0.0323 -0.1666
31713W        W47787   9.188   6.588   1.063  0.0453 -0.1937 -0.0582
31714W        W47788  11.931   8.185  14.421  0.2095 -0.3260 -0.0861
31715W        W47789   3.633  10.211   4.701 -0.0969  0.3050  0.1414
31716W        W47790  14.065   0.514  14.147 -0.4373  0.0279  0.0320
31717W        W47791  12.575  11.864  13.981 -0.2199  0.0015 -0.0155
31718W        W47792  13.715   5.762   5.179  0.1399  0.0410 -0.3140
31719W        W47793   6.302   4.219   2.080  0.2011 -0.3915 -0.1140
31720W        W47794  16.275  11.856  11.773  0.0012 -0.1148  0.1882
31721W        W47795  14.466  15.735  11.955 -0.0045 -0.0762  0.0402
31722W        W47796   4.382  11.056   2.491 -0.1070 -0.1728 -0.1371
31723W        W47797  14.258  10.197  16.719  0.1296  0.0408 -0.0679
31724W        W47798   4.712  17.369  13.137  0.1352 -0.0043  0.1955
31725W        W47799   4.117   3.104   6.448 -0.2967  0.0852  0.0449
31726W        W47800  15.545  10.583   5.305 -0.3449  0.0622  0.1445
31727W        W47801   2.340  11.529   5.139 -0.2159 -0.0357  0.0018
31728W        W47802  17.698   9.807   4.432  0.1229  0.2152 -0.1153
31729W        W47803   4.784   0.538   1.716  0.2605 -0.0825 -0.2362
31730W        W47804   7.332   4.775  16.476 -0.0670  0.0747 -0.0549
31731W        W47805   4.082  15.579  12.140  0.0789  0.1250  0.1996
31732W        W47806  10.773  15.841  15.196 -0.1569 -0.1388  0.2077
31733W        W47807  10.313  10.005  16.451 -0.2547  0.0180 -0.0728
31734W        W47808  17.235   8.937  16.770 -0.0673  0.0331  0.1054
31735W        W47809  17.111  11.643  14.193 -0.2690 -0.1632  0.4680
31736W        W47810   7.115   8.731  13.179  0.0810 -0.2539  0.1657
31737W        W47811   8.561   8.258   5.358  0.0566 -0.1059 -0.1636
31738W        W47812   1.984  11.776  12.275  0.1345 -0.0799  0.1669
31739W        W47813  10.679   6.183   3.089 -0.0284  0.1635 -0.0464
31740W        W47814   1.780  14.236   2.589 -0.1206  0.0285  0.1578
31741W        W47815   9.156  13.128  16.581  0.1312 -0.1906 -0.1383
31742W        W47816   8.083   8.065  16.390 -0.3435 -0.0219  0.1066
31743W        W47817  17.615   8.474  14.910 -0.0298  0.2143 -0.2257
31744W        W47818  15.439   3.733   3.938 -0.1087 -0.0414  0.1985
31745W        W47819  16.663   7.238  14.557  0.0374  0.0367  0.2558
31746W        W47820  11.936  16.532  15.804  0.1654 -0.0011  0.0288
31747W        W47821  11.010  16.788  15.101  0.4068 -0.2837  0.1308
31748W        W47822   4.083   3.847   5.869 -0.2988 -0.0570 -0.2484
31749W        W47823   4.156  11.492   6.080 -0.2011  0.1428 -0.1060
31750W        W47824  14.336  14.633   0.210  0.0594  0.2194 -0.3341
31751W        W47825   9.723  14.479   3.734 -0.1969 -0.1550 -0.0257
31752W        W47826  11.111   2.818   3.518 -0.2969  0.2702 -0.1478
31753W        W47827   4.113   1.971   2.026 -0.0854 -0.0769  0.2786
31754W        W47828  16.507   6.992  16.365 -0.2453 -0.0565 -0.1601
31755W        W47829  16.855  13.882   4.287 -0.2043 -0.2791 -0.0973
31756W        W47830  14.386   7.234   1.184 -0.3599 -0.0278 -0.0808
31757W        W47831  15.794  14.370   6.391  0.1705 -0.1214 -0.0431
31758W        W47832   4.393   5.876   0.668 -0.1214  0.0044  0.1212
31759W        W47833   8.871  14.649  15.678  0.2004 -0.1289 -0.3117
31760W        W47834  11.031  12.968  14.303  0.1344  0.0015  0.0767
31761W        W47835  13.529  13.739   4.447 -0.2600 -0.1105 -0.1745
31762W        W47836  17.416  17.050  12.397  0.0346  0.1241  0.0559
31763W        W47837   2.875   2.438  15.472  0.2284  0.0737 -0.3004
31764W        W47838   1.382   8.863   4.081  0.2985 -0.1596 -0.0184
31765W        W47839  11.818   8.233  11.231  0.4355 -0.3646  0.1372
31766W        W47840  10.544  13.015  16.088 -0.2244  0.1775 -0.2448
31767W        W47841   2.708   8.165   0.846  0.0013  0.2826  0.0072
31768W        W47842   2.847   8.891   3.804 -0.0614  0.1643 -0.0842
31769W        W47843   3.142   6.900  16.623  0.1210 -0.2985  0.0321
31770W        W47844  17.254   1.228   5.035  0.1976  0.0423 -0.0203
31771W        W47845   4.152  16.022  12.894 -0.4067 -0.3506  0.0107
31772W        W47846  12.870  16.948   0.316 -0.0634  0.0172 -0.1243
31773W        W47847  13.387  11.078   2.371  0.1630  0.0082 -0.1151
31774W        W47848   6.495   4.281   4.610 -0.1618 -0.1616  0.1735
31775W        W47849  17.163  17.467   5.639  0.1092 -0.0548 -0.2014
31776W        W47850   6.847   8.554  15.132  0.0435  0.0629  0.0653
31777W        W47851  10.615   6.719   3.017  0.1975 -0.2254 -0.0535
31778W        W47852   7.146   1.124   0.866  0.2211 -0.0914 -0.0847
31779W        W47853   4.738   7.022  17.160 -0.3430 -0.0384  0.3182
31780W        W47854   6.557  10.319   1.891  0.1641  0.2284  0.0657
31781W        W47855   6.745   6.977  11.928  0.4424 -0.2427 -0.0788
31782W        W47856   1.020   4.996  13.478  0.1072 -0.2962 -0.2231
31783W        W47857  17.445  17.114   5.967 -0.5696  0.0392  0.3035
31784W        W47858   8.300   2.459   0.590 -0.2620  0.0560 -0.0106
31785W        W47859   3.451   0.958  12.374  0.0384 -0.2457  0.1579
31786W        W47860   2.632   8.970   2.516  0.0374 -0.0200  0.2172
31787W        W47861   8.290  17.678  16.311  0.3559 -0.0592 -0.0683
31788W        W47862   4.631   6.046  14.550 -0.0659 -0.0518  0.0842
31789W        W47863   4.979   6.553  16.971 -0.1338  0.3633  0.1263
31790W        W47864   8.676  14.438   1.603  0.1210 -0.0624  0.1543
31791W        W47865   0.889   8.478  13.991 -0.2638  0.0677 -0.0200
31792W        W47866   2.551   9.113   6.475 -0.0641  0.2323 -0.1617
31793W        W47867   6.681   1.674  16.199  0.0407  0.1739 -0.0166
31794W        W47868  14.190   3.467   2.111 -0.0518 -0.1125 -0.1505
31795W        W47869   3.276   2.402  14.830 -0.0050 -0.1911 -0.0887
31796W        W47870  12.361   9.302   1.956  0.6265  0.0470  0.2741
31797W        W47871   5.267  11.249  16.949 -0.1553  0.2291  0.0018
31798W        W47872  17.433  17.053   1.739  0.1460  0.0703  0.1059
31799W        W47873   9.749  13.354   2.210  0.1132  0.4037 -0.3918
31800W        W47874  16.329   8.566  14.067 -0.0821  0.3493 -0.1201
31801W        W47875   5.352  10.746   0.347 -0.2664 -0.0559 -0.0640
31802W        W47876  13.679  14.338   2.866  0.1040 -0.1343  0.3326
31803W        W47877  13.978   6.125  11.894  0.1458  0.3848  0.1760
31804W        W47878   8.174  10.126   1.596 -0.3869  0.1431  0.1978
31805W        W47879   0.365  17.112   5.425 -0.2272  0.2042  0.2294
31806W        W47880  15.397   1.115   5.515 -0.2087 -0.2648  0.0806
31807W        W47881   2.525  17.178   2.595 -0.0232  0.0137  0.2644
31808W        W47882   1.721  17.621   4.635 -0.2992 -0.2965  0.3779
31809W        W47883  11.212   7.677   4.330 -0.3415 -0.1461  0.2063
31810W        W47884   9.964   5.708  15.285 -0.3076  0.1322 -0.1412
31811W        W47885  10.951  12.302   2.008 -0.1938  0.1271 -0.0833
31812W        W47886  12.642   7.299  13.363 -0.4254 -0.0249  0.0755
31813W        W47887   7.148  16.594   4.204 -0.1013 -0.1122 -0.0663
31814W        W47888   0.249  17.548  14.822 -0.0189  0.2076  0.1091
31815W        W47889  10.079   3.348  11.830  0.0457  0.0908 -0.0706
31816W        W47890  13.632   6.189   5.445 -0.2835 -0.0309 -0.4626
31817W        W47891  16.650  10.924   0.628 -0.1494 -0.2582  0.1051
31818W        W47892  14.384  10.742   3.804  0.0296 -0.2554  0.1987
31819W        W47893   9.542  13.313  13.077  0.1712 -0.0498  0.5297
31820W        W47894  10.323  10.846   2.365  0.1569  0.0843 -0.2479
31821W        W47895  12.230  16.694   2.146  0.0511  0.1332  0.0323
31822W        W47896  17.441   5.096  17.117 -0.3445 -0.3489  0.3455
31823W        W47897   0.916  15.295   4.044  0.0296 -0.0928 -0.1413
31824W        W47898  12.099   8.043   1.627  0.0918  0.2971  0.4646
31825W        W47899   5.751  17.369   1.055  0.0970  0.0753 -0.1151
31826W        W47900  16.862   5.809   0.652  0.1874  0.2076 -0.1733
31827W        W47901   0.212  16.025  13.402  0.1498  0.0270 -0.1045
31828W        W47902  16.300   5.787  16.530 -0.0907  0.0358 -0.2308
31829W        W47903  11.127   8.173   6.367  0.1648  0.0454  0.1063
31830W        W47904   3.038   3.830  14.476  0.0507 -0.2618  0.1841
31831W        W47905   8.911  17.400  12.365  0.0985 -0.2482 -0.1490
31832W        W47906   2.561  14.177  14.746 -0.3349 -0.2331 -0.3863
31833W        W47907   8.218   4.032   4.638  0.1180  0.0076  0.0409
31834W        W47908   7.428   6.871   0.430 -0.1500 -0.2136 -0.0361
31835W        W47909   1.250  11.327  12.453  0.0019  0.0472  0.0765
31836W        W47910   0.611   3.531   2.060 -0.1517  0.0400  0.0434
31837W        W47911   1.237  13.924   5.776  0.1599 -0.2457  0.1742
31838W        W47912   7.797   2.170  15.013  0.2420 -0.0268 -0.0074
31839W        W47913   1.038  12.933   0.857  0.1779 -0.1833  0.4833
31840W        W47914   1.486   5.865   3.497  0.0086  0.1136 -0.0191
31841W        W47915  13.956   9.838   4.187  0.1817 -0.0245  0.2396
31842W        W47916   8.206   5.679  16.687 -0.1849 -0.0148  0.0951
31843W        W47917  16.267  10.922   1.888  0.3533  0.1174  0.0202
31844W        W47918   9.073  13.608  15.004  0.1957  0.2543 -0.0438
31845W        W47919   1.429   8.342   2.633  0.0310  0.1545 -0.1062
31846W        W47920  14.953   4.192  16.037  0.1679 -0.1113  0.1865
31847W        W47921   8.633  17.037  11.671 -0.1041 -0.1456 -0.1996
31848W        W47922   4.357   6.538   3.715 -0.0028 -0.1253 -0.0457
31849W        W47923   2.120   4.522  16.631  0.0550 -0.0577  0.0871
31850W        W47924  16.210   6.641   4.294 -0.3641  0.0403  0.0147
31851W        W47925  16.347   8.365   1.917 -0.0438 -0.0130  0.0171
31852W        W47926   2.397  12.504  12.802  0.1257 -0.1847 -0.3080
31853W        W47927   5.590   0.865  15.868  0.0997 -0.0775  0.1901
31854W        W47928  13.889  11.190   1.086 -0.1760  0.1637 -0.1741
31855W        W47929   3.711   9.930  11.823  0.2908  0.0634 -0.0172
31856W        W47930   9.961   3.418  14.640  0.1029  0.1122 -0.1844
31857W        W47931  12.854   7.180   3.053 -0.0991  0.1081 -0.0222
31858W        W47932  11.909   6.659  14.337 -0.1174 -0.1140 -0.1370
31859W        W47933   7.616  15.708  12.520 -0.0366 -0.0541  0.2569
31860W        W47934   2.276   4.481  12.288 -0.1128 -0.0288  0.1211
31861W        W47935   6.907   5.222   1.466 -0.0792  0.0239  0.0830
31862W        W47936   5.090  15.296   1.163  0.3962  0.0389 -0.0556
31863W        W47937   0.890   5.245   0.480  0.1138  0.1927  0.1221
31864W        W47938   9.953   5.098  15.365  0.1482  0.0502 -0.1003
31865W        W47939  15.022   3.056  16.173  0.1212 -0.3273 -0.0127
31866W        W47940   6.654   3.922  11.260  0.0786 -0.1549 -0.2178
31867W        W47941  12.212   5.976  12.078  0.0103 -0.0260 -0.1117
31868W        W47942   6.111   2.765   3.214 -0.0465  0.1219 -0.2054
31869W        W47943  11.272  14.377   2.218  0.0696  0.3435 -0.1198
31870W        W47944   0.846  14.920  12.309  0.1012 -0.4742  0.4055
31871W        W47945   9.200   7.016   3.931  0.0552 -0.1898 -0.2151
31872W        W47946   4.522   3.452  16.290 -0.0672 -0.2049  0.4079
31873W        W47947   8.163  16.909   0.076  0.0607 -0.0959 -0.0999
31874W        W47948   7.556   7.824  13.521 -0.3331  0.1095  0.0792
31875W        W47949  16.415   0.786  16.725  0.1630  0.0353 -0.1453
31876W        W47950   9.788  10.356   2.890  0.1275  0.0104 -0.4818
31877W        W47951  15.880  15.418   3.704  0.1318 -0.2440  0.4074
31878W        W47952   5.504   9.113  14.811 -0.1370 -0.1034  0.0677
31879W        W47953   8.142   2.823   3.232  0.4521 -0.0019  0.0755
31880W        W47954   5.773   4.762  13.248  0.2109  0.0700  0.0818
31881W        W47955   0.258   7.138  12.127 -0.2290  0.2662  0.2513
31882W        W47956  10.557  16.364  15.681 -0.0775 -0.2274  0.1775
31883W        W47957  17.211   5.542  15.798 -0.0752 -0.0473 -0.0210
31884W        W47958  17.283   2.258  13.437 -0.3269  0.1629 -0.2208
31885W        W47959   2.644  12.359   3.095  0.2360  0.0689  0.1573
31886W        W47960  15.594  17.588   3.264  0.0850 -0.1783 -0.2792
31887W        W47961   7.156  10.702  15.329 -0.4732 -0.1299 -0.4651
31888W        W47962   2.508   0.562  11.517  0.1869 -0.3275 -0.3845
31889W        W47963   0.004  11.661  15.652  0.2926  0.0531  0.1005
31890W        W47964   1.196  11.719   6.398  0.0966 -0.3014  0.1314
31891W        W47965  13.029   1.805   4.988 -0.0329  0.3323  0.4468
31892W        W47966  13.232   2.703  14.713 -0.2323 -0.1082 -0.1815
31893W        W47967   2.589   6.053  16.848 -0.2639  0.3094 -0.3318
31894W        W47968   7.333   1.029   5.631  0.2813  0.2397 -0.2498
31895W        W47969  16.813   6.153  15.225 -0.0969  0.0762  0.0455
31896W        W47970   7.405  10.921   6.173 -0.1869  0.0563 -0.0955
31897W        W47971   3.852   2.149  16.988 -0.1237 -0.2112  0.0882
31898W        W47972  17.601  14.008  17.101  0.1055  0.2519  0.3893
31899W        W47973   9.205   9.690   5.389  0.2399  0.1356 -0.3050
31900W        W47974  17.069   7.494  15.741  0.2186  0.4311 -0.2581
31901W        W47975  15.799   4.736  16.120  0.3263 -0.1568 -0.1776
31902W        W47976  16.951  11.088   3.607 -0.2793  0.0477 -0.0739
31903W        W47977  12.054   1.886  16.925  0.0421 -0.0269 -0.1677
31904W        W47978  11.903  16.706  13.465 -0.0929  0.0937 -0.2312
31905W        W47979  17.570  12.899  12.788 -0.0187  0.2031 -0.3760
31906W        W47980  16.065   1.147  16.583 -0.1873 -0.2559 -0.0667
31907W        W47981   6.331   8.193   0.235  0.4218  0.3008 -0.2735
31908W        W47982   4.241  13.339  15.750 -0.1015 -0.4183  0.3399
31909W        W47983   9.509   9.343   3.575 -0.2119  0.2683 -0.2651
31910W        W47984   2.894   9.590   0.778  0.1716 -0.0648 -0.2404
31911W        W47985  12.145  14.945  14.641  0.2010 -0.1006  0.2447
31912W        W47986  13.549  11.129   3.554 -0.0957  0.1487 -0.1730
31913W        W47987  14.839  15.408   2.043  0.0805 -0.0355  0.1902
31914W        W47988   5.263   3.582   1.580 -0.0457 -0.0593  0.1566
31915W        W47989   0.273  15.016  12.690  0.1246 -0.0563 -0.1099
31916W        W47990   2.020   9.669   5.431  0.0890  0.0816 -0.1361
31917W        W47991  17.217   3.421   1.846  0.0171 -0.0838 -0.1329
31918W        W47992   7.346   2.773   2.934 -0.2289 -0.1603  0.0259
31919W        W47993   0.548   0.437   2.866 -0.0250  0.1644  0.1889
31920W        W47994   6.953   9.229  14.584  0.1152  0.0860 -0.2330
31921W        W47995  16.877  14.194  14.641 -0.2281  0.1184 -0.1560
31922W        W47996  15.469   5.950  16.243  0.1065 -0.0303  0.1026
31923W        W47997  10.038   0.788   5.190 -0.1671 -0.1000  0.0076
31924W        W47998   2.562  13.687   2.703  0.1544  0.1207  0.1779
31925W        W47999  15.108   8.685  14.924  0.3267 -0.0287  0.0288
31926W        W48000  14.376  12.526  11.941 -0.1365  0.0173 -0.1564
31927W        W48001   0.909   3.476  16.372 -0.0094  0.2591  0.2590
31928W        W48002   1.436  14.582   1.487  0.2366 -0.1236  0.2489
31929W        W48003   7.431   9.992   0.982 -0.0939  0.2350 -0.3685
31930W        W48004   4.197  15.720  11.672 -0.2081 -0.0632 -0.0662
31931W        W48005   4.625  11.714  16.972  0.0958  0.3323 -0.3658
31932W        W48006   0.640   1.915   4.702 -0.1005 -0.0978 -0.0178
31933W        W48007  11.012   0.982  12.421 -0.1268  0.1223  0.1949
31934W        W48008  11.647   0.523  14.745 -0.0163  0.1647  0.1275
31935W        W48009   8.956  10.029  13.388  0.0359 -0.1596  0.2467
31936W        W48010  13.504   3.348   4.450 -0.0047  0.1617  0.0436
31937W        W48011   2.836   9.849  16.022  0.0149 -0.0236  0.0062
31938W        W48012   4.361   3.695   2.808 -0.0085 -0.1476 -0.0528
31939W        W48013   5.225   6.035   1.760 -0.0885  0.0986  0.1967
31940W        W48014   6.518   7.410   5.585  0.1813  0.0133 -0.1038
31941W        W48015  15.883   1.736   5.352 -0.1239  0.4548 -0.0464
31942W        W48016  12.879  13.481  12.824 -0.0246  0.1085  0.0097
31943W        W48017   7.095  14.873   3.534  0.1619  0.0726 -0.1929
31944W        W48018  13.570  15.029   5.766 -0.2042 -0.0269  0.2182
31945W        W48019  15.127   9.354  16.806 -0.3256  0.3359 -0.3353
31946W        W48020   2.791  16.894  14.431 -0.1981  0.1733  0.1997
31947W        W48021  15.436   0.702   2.975 -0.0061 -0.0801 -0.0636
31948W        W48022   3.168   2.517   4.548  0.1387 -0.3009 -0.2228
31949W        W48023   2.072   9.143   1.655 -0.0163 -0.2227 -0.3089
31950W        W48024   0.939  14.329   2.776  0.1357  0.2976  0.1977
31951W        W48025   2.301  13.282   6.114  0.0897 -0.0265  0.0326
31952W        W48026   9.420  12.152  12.206 -0.2040 -0.2186  0.1866
31953W        W48027  15.049  12.077  16.148 -0.2078 -0.3382 -0.2399
31954W        W48028   1.246   5.036   5.374  0.1132 -0.1018 -0.1182
31955W        W48029   8.477   1.046  14.057 -0.0726  0.1690  0.2000
31956W        W48030  10.306  10.537  13.865 -0.2249  0.2121  0.2685
31957W        W48031  17.187   5.497   1.960  0.3838 -0.4112  0.1603
31958W        W48032  15.374  11.148   4.646 -0.0497  0.0986  0.2091
31959W        W48033  14.089   3.726  15.252  0.0522  0.0172 -0.3675
31960W        W48034  13.978   0.887   5.799 -0.0628 -0.0173 -0.2086
31961W        W48035  11.329   9.120   3.905 -0.1769  0.0982 -0.0564
31962W        W48036  15.845   5.278   2.487 -0.1280 -0.1058  0.1180
31963W        W48037  17.081   8.040  13.481  0.1210 -0.0242  0.4677
31964W        W48038   4.628  14.693   3.996 -0.0344  0.0291  0.0589
31965W        W48039   2.781  10.537  12.917  0.0981 -0.1901 -0.1521
31966W        W48040   9.075   9.042   3.659 -0.0007  0.0828  0.4275
31967W        W48041   0.265  11.921  13.222  0.0000 -0.0462 -0.2526
31968W        W48042  10.875   8.555   2.787 -0.1754  0.1570  0.0327
31969W        W48043  16.120  12.659  13.895 -0.0593  0.1907  0.1273
31970W        W48044  12.805   1.779   0.803 -0.0260  0.0325  0.0038
31971W        W48045   5.309   3.019  12.469 -0.3249 -0.0254  0.0399
31972W        W48046  16.375   0.170  12.540  0.0918 -0.2269  0.0744
31973W        W48047  14.838   5.263   4.464  0.2858  0.1187 -0.0941
31974W        W48048  13.008  10.514   4.661  0.1051 -0.0999 -0.2897
31975W        W48049   2.581  12.518  16.525 -0.2770  0.0042 -0.0907
31976W        W48050  15.413  12.766   5.477 -0.1086 -0.2407  0.2589
31977W        W48051   2.103  13.953  14.590  0.0428 -0.0320  0.1444
31978W        W48052   3.939   5.148  15.443  0.1375  0.1212 -0.2602
31979W        W48053   0.329  14.932   4.947 -0.2390  0.0267  0.2306
31980W        W48054   2.417   9.621   3.573  0.0963  0.2553 -0.3699
31981W        W48055  15.670   8.957  12.771 -0.0703  0.0010 -0.0562
31982W        W48056  11.792  16.291  12.487  0.2838  0.0347 -0.2885
31983W        W48057   1.321  12.863   0.017  0.0418  0.1099  0.2146
31984W        W48058  14.336   0.049   4.229  0.3585 -0.1980  0.2622
31985W        W48059  11.339   2.385  15.928 -0.3868 -0.1603 -0.0304
31986W        W48060  13.351   0.246  15.268  0.0753 -0.1183 -0.0908
31987W        W48061  14.983   4.196   1.743  0.0268 -0.1270  0.1669
31988W        W48062   7.495   0.960  14.558  0.0955  0.2869  0.0917
31989W        W48063   7.402  13.138   0.684  0.0942  0.0990  0.2656
31990W        W48064   4.425   8.573  15.494  0.2375  0.0154  0.0156
31991W        W48065  11.987   4.017   3.031 -0.3118 -0.0197 -0.0368
31992W        W48066  15.427   3.680  12.110  0.1808 -0.1140 -0.1643
31993W        W48067   0.950  14.331   2.282 -0.4268 -0.1527 -0.0921
31994W        W48068   7.449  14.782   4.940  0.2275 -0.0723  0.3691
31995W        W48069   5.099   7.835  13.873 -0.1506 -0.0780  0.2785
31996W        W48070  12.355  10.859  12.419 -0.1788 -0.2412  0.0714
31997W        W48071   0.991   4.262   0.951 -0.1832 -0.1393 -0.4807
31998W        W48072  13.518  10.306   0.273 -0.2781 -0.0540 -0.1747
31999W        W48073  10.417  12.524   2.901  0.1034 -0.1310 -0.1076
32000W        W48074   9.469  10.931   0.416 -0.1528  0.1706 -0.2341
32001W        W48075   0.524   4.516   5.565  0.0777  0.0118 -0.3947
32002W        W48076  17.431  15.134   6.489  0.0529 -0.0716 -0.0579
32003W        W48077   1.839  14.368  13.776  0.0230 -0.0870 -0.1243
32004W        W48078  14.058  14.708  16.065 -0.0663  0.1274  0.2017
32005W        W48079   7.999  10.024  14.123  0.3108  0.1521  0.0385
32006W        W48080   5.856  13.957   0.983  0.0852  0.5464 -0.0136
32007W        W48081   9.352   5.488  11.892  0.2697 -0.1904  0.3156
32008W        W48082   8.059   4.252  14.859  0.0295  0.1392  0.1596
32009W        W48083   5.305   8.375  13.024  0.0078 -0.1562  0.1481
32010W        W48084  16.469  17.106   5.269  0.0494 -0.1649  0.3492
32011W        W48085   2.380   3.563   1.486  0.2168  0.0968  0.0418
32012W        W48086  15.866   9.027   1.498  0.1078 -0.2034  0.0791
32013W        W48087  11.136   9.347   0.790  0.0491  0.3474  0.0269
32014W        W48088   7.409  13.102  15.967  0.0463 -0.0763  0.0067
32015W        W48089   7.203   0.925  14.951 -0.0913 -0.0746 -0.1201
32016W        W48090   2.097  13.004  13.495 -0.4246 -0.0668 -0.1295
32017W        W48091   0.198   6.284  16.856  0.1174  0.2098 -0.3427
32018W        W48092   1.516  15.475   1.564 -0.2001  0.1336  0.0662
32019W        W48093   0.347   0.613   2.459 -0.0237 -0.2497 -0.0813
32020W        W48094  16.710   4.329   3.960  0.0051  0.1363  0.1675
32021W        W48095  17.389   6.703   0.552 -0.0384 -0.0991 -0.4273
32022W        W48096  13.427  14.862   4.063  0.2659 -0.2214  0.1987
32023W        W48097  17.057  11.623   1.248 -0.4410 -0.1949 -0.0464
32024W        W48098   1.000  11.823  12.464  0.0340  0.1112 -0.2129
32025W        W48099  13.578  17.651  11.049  0.1168 -0.0246 -0.0609
32026W        W48100   4.096   7.027   4.275 -0.2125  0.1233  0.0004
32027W        W48101   2.585   7.926  15.883 -0.2195  0.4879 -0.0923
32028W        W48102   4.693   8.865  14.507 -0.2270  0.4706 -0.2149
32029W        W48103  12.083   1.049   2.364  0.0129 -0.0530 -0.1205
32030W        W48104  17.092   1.641  15.378  0.3277 -0.2432  0.3127
32031W        W48105  14.236  11.122  12.004  0.2198  0.1811  0.0588
32032W        W48106   4.916   8.158   5.768  0.1263 -0.3171  0.3124
32033W        W48107   3.894   9.454   4.494  0.0055 -0.2111  0.2914
32034W        W48108  14.693  16.701   1.125 -0.0146  0.3048  0.1711
32035W        W48109   3.372   5.498  11.878 -0.1101  0.0593  0.0667
32036W        W48110   4.559   6.265  14.988 -0.3299  0.1855  0.0681
32037W        W48111   2.104   6.525   3.827 -0.0843  0.0354 -0.1122
32038W        W48112   5.781   2.546  11.799  0.2184  0.1759  0.1615
32039W        W48113   9.940   8.986   2.961  0.1317 -0.1625 -0.0175
32040W        W48114   2.493   8.498  14.277  0.0440 -0.1265 -0.0787
32041W        W48115   3.087   8.910   0.604 -0.1978  0.1658 -0.3545
32042W        W48116   4.991  11.700  14.062 -0.2317  0.1732  0.2394
32043W        W48117   4.217  16.167  15.423  0.1436 -0.0685 -0.0031
32044W        W48118   7.626  12.391  13.179  0.1063  0.2887 -0.1250
32045W        W48119   3.420  17.028   4.977  0.1922  0.2784  0.0865
32046W        W48120   3.984   2.028   3.711  0.0380 -0.2892  0.3243
32047W        W48121   4.039   5.074   5.801 -0.0397  0.0881  0.2733
32048W        W48122   3.673  11.159  11.404 -0.0905  0.1808 -0.1367
32049W        W48123   8.129   4.260  16.519  0.0866 -0.1254  0.3070
32050W        W48124   5.404  13.516   0.076 -0.1426  0.1070 -0.1968
32051W        W48125   8.346   5.303   3.775  0.4247  0.0535  0.3136
32052W        W48126   8.533   1.786   3.982  0.0994 -0.1089 -0.1560
32053W        W48127  13.703  16.452  16.469 -0.4113 -0.2637 -0.1180
32054W        W48128   0.026  15.570   2.415  0.0267  0.2808  0.1173
32055W        W48129   2.620   4.009   5.434  0.0534  0.0861  0.0119
32056W        W48130  13.120   4.460   3.744  0.0971 -0.1189 -0.1141
32057W        W48131  10.275   1.967  16.541 -0.0056 -0.1186  0.0668
32058W        W48132   3.300   8.064   0.807  0.0538  0.2180  0.1600
32059W        W48133   2.874  15.882   2.637  0.2568 -0.2286 -0.0924
32060W        W48134  15.784   4.006   3.689  0.4532 -0.2824  0.4166
32061W        W48135  13.390   4.854   5.747 -0.4612 -0.0163 -0.1016
32062W        W48136   7.407  13.999  14.821 -0.1711  0.1691 -0.0462
32063W        W48137   7.892  12.050   6.017 -0.0681  0.1859  0.0664
32064W        W48138   6.020  16.948  13.360  0.3077  0.1915 -0.1374
32065W        W48139  17.284  13.080   1.913  0.2121 -0.0082  0.2786
32066W        W48140   8.193   6.413   4.704 -0.0760  0.2865  0.1896
32067W        W48141  13.967   2.955   3.736  0.3392 -0.1058 -0.3232
32068W        W48142   0.306   6.942   3.245 -0.1260 -0.2032 -0.1099
32069W        W48143   2.407  17.182  15.323  0.0866  0.1455  0.1291
32070W        W48144   7.101   5.847   3.327 -0.0566 -0.0392  0.2386
32071W        W48145  15.136   9.284   4.525 -0.2263  0.2838 -0.1166
32072W        W48146   4.707  12.739   3.300 -0.2985  0.4119 -0.0192
32073W        W48147  10.405  15.400  14.601 -0.1128  0.0156  0.2056
32074W        W48148   5.704  12.395  15.354 -0.2435  0.3229 -0.0695
32075W        W48149   6.973   9.526  16.282 -0.1054  0.1543  0.0176
32076W        W48150   3.698   5.870   3.332 -0.2170  0.1807 -0.0062
32077W        W48151   6.922   9.661   1.519  0.1793 -0.0666  0.0722
32078W        W48152   8.677  11.119   1.903 -0.1568  0.0044 -0.2107
32079W        W48153   8.646  10.499   1.443 -0.0423  0.5221  0.1553
32080W        W48154   4.631  13.664   4.615 -0.0229  0.0563 -0.1620
32081W        W48155   5.806  14.660  15.696  0.1696 -0.1374  0.0642
32082W        W48156   7.522   0.426  16.174  0.3478  0.2616 -0.1117
32083W        W48157   9.065  13.959  11.750 -0.0179 -0.1169  0.1372
32084W        W48158   9.596  13.481  15.607  0.0538 -0.0427 -0.3305
32085W        W48159  11.216  12.660   5.886  0.0197 -0.1714  0.0064
32086W        W48160  14.162  16.272  15.362 -0.0526 -0.2057 -0.0986
32087W        W48161  12.052   1.266  14.262  0.2187  0.1469 -0.1432
32088W        W48162   6.443  15.364  12.940 -0.0289 -0.3084 -0.1488
32089W        W48163   4.056   6.330  12.706 -0.1999  0.0733 -0.0209
32090W        W48164  17.446   5.756  12.379 -0.3111  0.0866 -0.0667
32091W        W48165   3.793   9.850   4.268  0.1266 -0.1724  0.2700
32092W        W48166  13.965  13.913   2.862 -0.2339  0.0824  0.2063
32093W        W48167   6.659  14.415  17.151  0.1432 -0.1272  0.0513
32094W        W48168  17.247  12.445   2.171 -0.2966 -0.0837  0.0186
32095W        W48169  15.974  13.447   5.260 -0.0663  0.0253 -0.2805
32096W        W48170   8.599   0.520   3.709  0.0369 -0.0468 -0.1539
32097W        W48171   1.428   9.714   1.717 -0.0811 -0.2419 -0.4202
32098W        W48172  16.310  16.524  16.170  0.0067 -0.2032 -0.2296
32099W        W48173   4.323  16.780  14.823 -0.0905 -0.0574  0.1161
32100W        W48174  15.952   8.160  15.735 -0.2704 -0.2267 -0.0355
32101W        W48175   4.930   6.302  15.330  0.1304 -0.3019 -0.1706
32102W        W48176   9.978  12.388  15.102  0.1592 -0.2090  0.0862
32103W        W48177   6.766   5.508  16.917  0.3945 -0.1216  0.1037
32104W        W48178   0.175  12.497   0.534  0.0740 -0.1282  0.0434
32105W        W48179  13.706  10.813   0.307  0.2968  0.1399  0.2911
32106W        W48180   6.212  16.894   6.068  0.1137 -0.1355  0.4206
32107W        W48181   7.537   9.856  16.841 -0.1978 -0.0820  0.0818
32108W        W48182  13.374   6.204  14.920  0.1114  0.1929  0.0160
32109W        W48183   6.572   0.805   4.452  0.1127 -0.0826 -0.1747
32110W        W48184  17.372  12.215  16.048 -0.1047  0.3418 -0.0860
32111W        W48185   6.022   9.731   5.152  0.0054 -0.3315 -0.0650
32112W        W48186  13.399  12.810   0.267 -0.1354  0.0266  0.1132
32113W        W48187   8.554  12.503   5.854  0.0465  0.0218 -0.1395
32114W        W48188   7.254  12.167  13.907  0.0058 -0.3090  0.1914
32115W        W48189  14.204  11.052  15.577 -0.1162 -0.0044  0.0448
32116W        W48190   0.352  14.992  13.694  0.0317  0.0715 -0.0587
32117W        W48191  10.795   8.448   4.424  0.0044  0.3915  0.2322
32118W        W48192   3.426   7.797  14.579  0.0723 -0.0622 -0.1027
32119W        W48193  14.840   8.979  11.612 -0.0813 -0.1695 -0.0279
32120W        W48194  17.221   6.789   4.723  0.1625  0.0576  0.3132
32121W        W48195  10.911   5.952  15.078  0.0139 -0.4659 -0.1670
32122W        W48196  13.389  13.395  12.907 -0.1940  0.1063  0.1613
32123W        W48197  16.710  10.533   5.879 -0.0470 -0.1207  0.1236
32124W        W48198   5.518   2.034  16.720 -0.2995  0.0652  0.1203
32125W        W48199   6.001   4.412   2.430 -0.2838 -0.4212 -0.1575
32126W        W48200  14.042   1.631  16.399  0.0344  0.1644  0.0592
32127W        W48201   3.123  15.650   1.011 -0.0970 -0.3467 -0.1437
32128W        W48202  16.799  13.081   0.908 -0.0862  0.0501 -0.0980
32129W        W48203   6.736   9.493   1.087  0.1073  0.0652 -0.3314
32130W        W48204   9.164   0.251   5.577  0.1559  0.0688  0.1993
32131W        W48205  17.192  12.175  12.266  0.1287  0.0964 -0.1593
32132W        W48206   8.563   8.058   3.632  0.0659 -0.0615 -0.2475
32133W        W48207   2.020  11.529  16.258  0.1926 -0.4939  0.0690
32134W        W48208  11.149   2.761  12.129  0.0100 -0.0026 -0.1042
32135W        W48209   1.087  14.859   4.635  0.0433 -0.3899  0.3212
32136W        W48210  16.324   7.686   4.494  0.2628 -0.1473 -0.1574
32137W        W48211  11.109  16.229   2.489 -0.0770  0.0124 -0.3757
32138W        W48212   6.544  10.462  13.630  0.1454 -0.1206 -0.1627
32139W        W48213  17.624  15.286   0.165 -0.0571  0.0583  0.0528
32140W        W48214   1.616  10.283  15.511  0.1036 -0.0206 -0.1384
32141W        W48215  11.637   0.522  11.720  0.1376 -0.1785 -0.1628
32142W        W48216  16.670  11.088  12.148  0.0071 -0.2927 -0.1657
32143W        W48217   6.847   3.334   5.436 -0.0036 -0.0420  0.0553
32144W        W48218   6.678  13.591   0.150  0.1489  0.1736  0.2027
32145W        W48219  14.768  12.432  12.505 -0.1813  0.1254 -0.0142
32146W        W48220  14.644  14.204   0.155 -0.1284 -0.3171  0.0239
32147W        W48221   4.774   5.781   1.921  0.4560 -0.0870 -0.2556
32148W        W48222   8.196   0.118   4.888 -0.1003 -0.1341  0.1530
32149W        W48223   9.061  17.582  13.197 -0.1449  0.0413 -0.1501
32150W        W48224   4.869   2.491   4.982 -0.2572 -0.0047  0.1990
32151W        W48225  11.959   3.098  15.715 -0.0729 -0.1355  0.0315
32152W        W48226  13.569   7.420  12.677  0.0757  0.1402  0.0220
32153W        W48227   8.095   5.918   2.620  0.1469  0.1561 -0.0478
32154W        W48228   5.118   3.586   0.279 -0.1434 -0.3438  0.1108
32155W        W48229   1.111   9.857   1.299 -0.0560  0.0786 -0.3124
32156W        W48230  15.253   9.622   0.658  0.0516 -0.2048 -0.1689
32157W        W48231   7.772  16.985   3.301 -0.1013  0.1435 -0.2913
32158W        W48232   0.627   0.062   1.676 -0.1056 -0.3052  0.0892
32159W        W48233   3.800  16.861   4.034 -0.1350 -0.0687 -0.0595
32160W        W48234  11.362   5.484   1.238 -0.1192  0.0232 -0.0623
32161W        W48235  11.601  12.652   1.288  0.1531  0.0609 -0.3032
32162W        W48236   5.642  15.037   3.327  0.0650 -0.0238  0.2893
32163W        W48237  10.892   1.040  16.193 -0.1695 -0.2392 -0.1951
32164W        W48238  11.874   2.516  14.200  0.0201 -0.0559 -0.2199
32165W        W48239   9.386  17.170  11.838  0.1065  0.1072  0.2420
32166W        W48240   3.236  15.089   2.889  0.1100 -0.0019 -0.0643
32167W        W48241   1.707  13.677   0.672  0.6241 -0.0356  0.2071
32168W        W48242  16.463   6.583  16.032  0.0338 -0.1383  0.0672
32169W        W48243  11.568   3.264  12.263 -0.0740  0.0366 -0.2182
32170W        W48244   0.456   3.667  13.210 -0.2838 -0.3554 -0.1616
32171W        W48245  13.659   8.586  12.107  0.3055  0.2779  0.1031
32172W        W48246  12.543   4.768   0.477  0.0605  0.0063 -0.0497
32173W        W48247   4.086   3.954  14.283 -0.0163  0.1695 -0.4421
32174W        W48248  14.182   9.118   0.144  0.3028  0.3038 -0.1086
32175W        W48249   2.339  15.116   1.064 -0.3881 -0.3922 -0.0129
32176W        W48250   0.140   6.223  13.578 -0.0504 -0.0170  0.0442
32177W        W48251  14.255   1.721  14.327 -0.0003 -0.0837 -0.0850
32178W        W48252   1.690   1.913   3.135  0.1344  0.2068 -0.1408
32179W        W48253  10.338  13.807   5.751  0.1042  0.2686  0.1073
32180W        W48254   4.921  11.307  14.914  0.0205  0.0453 -0.1015
32181W        W48255  12.261   1.672  15.066  0.1139 -0.2614  0.1944
32182W        W48256   4.132   2.703  12.875 -0.1243  0.0533 -0.3747
32183W        W48257   9.224  15.146  15.140  0.1120  0.0703  0.2269
32184W        W48258   4.335  14.799   2.677 -0.2263  0.0146  0.0965
32185W        W48259  10.103   7.726  14.659 -0.4218 -0.2194  0.0765
32186W        W48260   2.066   0.049  13.528  0.1595  0.2831  0.0027
32187W        W48261   9.845   0.799  12.435  0.0586  0.1891 -0.0199
32188W        W48262  17.102   4.046  16.244 -0.0942  0.1225 -0.3116
32189W        W48263  17.550   9.923  15.955  0.0960 -0.0594  0.1584
32190W        W48264  11.394  15.064  12.847  0.0369 -0.3123 -0.1848
32191W        W48265  13.078  10.018   4.477 -0.1143 -0.0241  0.1443
32192W        W48266   5.427  11.881   4.862 -0.0850  0.0885  0.0027
32193W        W48267   0.480  10.988  14.840  0.0701 -0.0174  0.2010
32194W        W48268  12.340  14.886   3.786  0.1472 -0.0060 -0.0611
32195W        W48269   8.962  15.398   3.672 -0.3637 -0.0957  0.2776
32196W        W48270  15.474  15.867  15.173  0.0252  0.2531 -0.0379
32197W        W48271   0.364  16.398   6.289 -0.2055  0.3367 -0.0478
32198W        W48272   4.369   4.706   5.913 -0.3306  0.1706  0.0239
32199W        W48273   6.527   1.703  14.392  0.2940 -0.0053 -0.2742
32200W        W48274  13.690  15.498  13.626  0.1034 -0.2166  0.1853
32201W        W48275   2.799   8.258   1.768 -0.2483 -0.0433 -0.1022
32202W        W48276   8.154  14.492  15.730  0.2533  0.2957  0.1491
32203W        W48277   2.876  15.026   2.516  0.0172  0.1345  0.2734
32204W        W48278   6.461  16.820   0.656  0.0128 -0.0130  0.2809
32205W        W48279   0.381   8.325   5.800  0.0184 -0.1186 -0.1182
32206W        W48280   4.056  14.823  14.428  0.1475  0.0470 -0.0366
32207W        W48281   0.723   0.371  14.125  0.2880 -0.0984  0.0294
32208W        W48282  13.636   1.225   6.007 -0.0864  0.0752  0.2138
32209W        W48283  11.474  16.933  14.124 -0.0686  0.1438 -0.3828
32210W        W48284   4.259  11.190  15.672  0.2217  0.1047  0.1299
32211W        W48285  10.489   7.935   2.750  0.0339 -0.1460 -0.2084
32212W        W48286   5.632   7.977  15.472 -0.1434 -0.1055  0.2683
32213W        W48287   7.144   9.080  16.705  0.2488  0.0691 -0.0066
32214W        W48288   1.918  14.646  17.149 -0.1651  0.3174  0.0983
32215W        W48289  14.625   3.500  13.614  0.2347  0.3392 -0.1714
32216W        W48290   0.240   2.848   5.001  0.2618 -0.2763 -0.1489
32217W        W48291   1.406   4.399   2.363 -0.1788 -0.0257  0.1804
32218W        W48292  16.705  10.230  16.012 -0.3879  0.0904 -0.0794
32219W        W48293   9.201  17.626  12.695  0.0667 -0.4442 -0.0003
32220W        W48294   5.207  16.181   3.079  0.4889 -0.1213 -0.0584
32221W        W48295  12.413  15.254   4.089 -0.1819  0.3357  0.1441
32222W        W48296   6.486   2.131   0.290  0.2425  0.1185  0.0548
32223W        W48297   3.256  14.873  16.872 -0.0183 -0.1472  0.1194
32224W        W48298  14.964   2.796  12.071  0.0966 -0.0349  0.1135
32225W        W48299  11.107   0.996   3.410  0.1933  0.1781 -0.5074
32226W        W48300   2.078  11.205  15.459  0.3084  0.0193 -0.1004
32227W        W48301  12.853   9.368  13.387 -0.0158  0.0037 -0.0998
32228W        W48302  15.892  10.818   2.646 -0.0413  0.0745  0.1411
32229W        W48303  10.710   2.269   2.354 -0.2176 -0.0066  0.2321
32230W        W48304  14.735   4.793  15.613 -0.3415  0.5264 -0.3162
32231W        W48305  16.827   0.056  12.824 -0.0140 -0.2092  0.1823
32232W        W48306   0.758  17.070   3.272  0.0263  0.1682  0.0746
32233W        W48307  17.491   4.206  12.353  0.0319 -0.1522  0.3396
32234W        W48308  11.824   1.861  14.998 -0.2146 -0.0678  0.0344
32235W        W48309   3.922   1.168  11.962  0.0134  0.5345 -0.0028
32236W        W48310  14.332  15.124  14.281 -0.1139  0.2245  0.1088
32237W        W48311   8.438  11.597   1.128  0.1086 -0.2810 -0.2169
32238W        W48312   4.210   9.145  16.174 -0.0913  0.2219  0.2904
32239W        W48313   2.753   8.575   2.208  0.1310 -0.1071  0.3779
32240W        W48314   7.306   3.241   5.070 -0.3005 -0.1823  0.1308
32241W        W48315   8.713   2.401   3.168 -0.2541 -0.5686  0.0091
32242W        W48316  11.579  10.580   1.275 -0.1719 -0.2403  0.1438
32243W        W48317   7.645   4.661  11.511 -0.2135  0.3037  0.0794
32244W        W48318   9.677   3.540  16.027  0.0888 -0.1845 -0.2679
32245W        W48319   8.093   7.331   3.159  0.0138 -0.0707 -0.0090
32246W        W48320  15.861   5.647  16.268 -0.1921  0.1978  0.0145
32247W        W48321   5.922  15.547   3.279 -0.2354  0.0098  0.1381
32248W        W48322   7.371   8.064   4.789 -0.0329 -0.0318  0.0881
32249W        W48323  13.093   8.008  12.457 -0.1100 -0.3259  0.0846
32250W        W48324   5.202  13.634  13.779  0.0243 -0.2121  0.0495
32251W        W48325   4.434   3.555  17.061  0.1550 -0.0272  0.1353
32252W        W48326   0.819   4.272  16.406 -0.1127 -0.1522  0.1137
32253W        W48327  11.157  11.546  14.829 -0.0003  0.1606 -0.1592
32254W        W48328   7.858   3.243  11.781  0.1773 -0.1967 -0.0386
32255W        W48329   6.796  14.083   4.478  0.1387 -0.0439  0.0538
32256W        W48330  11.606   6.891  15.372 -0.0934 -0.2306  0.0572
32257W        W48331  12.401  14.221  15.792  0.0859 -0.2249  0.0115
32258W        W48332  13.364   4.280   6.311 -0.0180 -0.0198  0.1537
32259W        W48333   9.133  12.548   2.961  0.0074  0.0479 -0.3172
32260W        W48334  11.342  12.021   2.151  0.0484  0.2511 -0.1746
32261W        W48335  17.584   7.785   0.511  0.2035 -0.0089  0.0450
32262W        W48336   4.126   1.082   3.358  0.2664  0.1629 -0.2088
32263W        W48337   6.929   9.843  11.933 -0.1712  0.0621  0.3453
32264W        W48338  14.558   6.399   1.789 -0.2347 -0.0332  0.1902
32265W        W48339   4.023  10.822   3.330  0.1524  0.1484 -0.2166
32266W        W48340   9.214  11.494  12.767  0.1252  0.3467 -0.0894
32267W        W48341   3.086  13.740  15.015 -0.0408  0.2057  0.2391
32268W        W48342   0.211   5.885  17.148  0.0827  0.2045  0.1773
32269W        W48343  13.797   2.285   5.515  0.0431 -0.1058  0.1361
32270W        W48344  17.568   4.529   5.376 -0.0682 -0.1561 -0.2006
32271W        W48345   2.154   9.695  16.525 -0.1213  0.1442 -0.0692
32272W        W48346  15.572  11.836  16.064  0.1937  0.1387 -0.1120
32273W        W48347  11.670  10.380   2.221 -0.1306  0.0646  0.1017
32274W        W48348  17.381  11.649  15.182  0.1076  0.0253  0.3616
32275W        W48349   3.335   4.278  15.876 -0.1036  0.0050 -0.0187
32276W        W48350   7.412   8.979  15.800 -0.1848 -0.0054 -0.0156
32277W        W48351   1.449   6.666   4.687 -0.1089 -0.3225 -0.1414
32278W        W48352   7.420   7.499   2.146  0.2065  0.0192 -0.0814
32279W        W48353   6.924   4.863  14.377  0.0736  0.4774  0.0770
32280W        W48354   9.572   3.837  14.760 -0.1084 -0.1798  0.2772
32281W        W48355   1.363  10.046   5.239  0.1682  0.0667 -0.2394
32282W        W48356   0.277   1.879  16.125 -0.0225  0.1073  0.2779
32283W        W48357   5.910   7.347   5.291  0.0233 -0.2459  0.0280
32284W        W48358  14.293  12.862  15.288  0.2088  0.1355 -0.1360
32285W        W48359  12.236   0.734  12.842  0.0750 -0.3541  0.2000
32286W        W48360  11.769   7.691   5.281 -0.0890 -0.0483 -0.0561
32287W        W48361   6.895   8.508   0.060  0.1916  0.2809 -0.2641
32288W        W48362   1.562  12.725  14.809 -0.0028  0.3179  0.0665
32289W        W48363   4.481  12.022   3.037 -0.0703 -0.1886  0.1032
32290W        W48364   3.041   6.790   4.053  0.0873  0.1270 -0.0187
32291W        W48365  12.310   4.177   1.676  0.0591 -0.1787 -0.2498
32292W        W48366  13.800   3.707  16.091  0.2050  0.1919  0.1837
32293W        W48367   7.901  14.766   1.611 -0.0161 -0.0309  0.0016
32294W        W48368   5.668   8.420   2.216  0.1877  0.2851 -0.1054
32295W        W48369  13.060  17.137  13.333 -0.0158 -0.1762  0.1350
32296W        W48370   2.625  14.549   2.253 -0.3333 -0.0746 -0.2248
32297W        W48371  15.785   2.211  10.887  0.1943  0.3158  0.0368
32298W        W48372   4.835   1.746   0.416 -0.1455 -0.1192 -0.1308
32299W        W48373   4.701   4.906  16.549  0.2432  0.2185 -0.0777
32300W        W48374   8.754  13.881  12.209  0.4125 -0.0446  0.1061
32301W        W48375   2.839   3.168   1.394 -0.0065  0.5536  0.0518
32302W        W48376   6.885  16.522   5.491  0.3902  0.3470  0.2973
32303W        W48377  17.062   6.132  16.439 -0.4832  0.1003  0.2468
32304W        W48378  11.440   4.004  16.013 -0.1594  0.1659  0.1485
32305W        W48379   1.148   7.086   2.912 -0.1641  0.0337  0.0988
32306W        W48380   7.441   4.462  12.361  0.1133  0.0470  0.1366
32307W        W48381   2.952   2.413   1.358  0.0807  0.2401  0.2238
32308W        W48382   5.562   2.056   0.074  0.0734 -0.0382  0.1855
32309W        W48383  11.412   6.621  14.120  0.0503 -0.1551  0.0759
32310W        W48384  14.447   7.663  14.078 -0.0935  0.0334  0.0056
32311W        W48385   2.110   3.425  13.743  0.0639  0.1294 -0.0004
32312W        W48386  13.484  17.177   2.852  0.1949 -0.2254  0.0670
32313W        W48387   1.779   9.026  12.804 -0.0158  0.0836 -0.0061
32314W        W48388  13.538  14.867  16.025 -0.0673 -0.0946 -0.0758
32315W        W48389  12.683   8.922   4.464  0.1906 -0.0744 -0.4118
32316W        W48390   9.376  14.768   1.003 -0.0480 -0.1660 -0.0579
32317W        W48391  13.688  12.888  17.002  0.1085  0.0036  0.1749
32318W        W48392   9.385   2.708   2.611  0.1107 -0.0304  0.1878
32319W        W48393  17.545   9.248  13.872  0.0047 -0.1571  0.1417
32320W        W48394  17.477   3.075  14.858  0.0296 -0.2008 -0.0466
32321W        W48395   5.476   3.015  15.655  0.0222 -0.1483  0.1012
32322W        W48396  13.472   0.768   1.955 -0.1696  0.0596 -0.1204
32323W        W48397   2.486  14.706   4.675 -0.1457 -0.1900 -0.0360
32324W        W48398  17.638  15.252  16.842  0.2061 -0.0834 -0.1965
32325W        W48399  11.832   8.728   1.877 -0.1465 -0.1700 -0.1488
32326W        W48400  11.958   3.175   2.222  0.1082 -0.0355 -0.1596
32327W        W48401   1.225  12.993  16.586 -0.0058  0.1560  0.0113
32328W        W48402  10.067  10.979   1.533 -0.1058  0.0393 -0.2492
32329W        W48403   3.279   0.760   5.307  0.1805 -0.1212 -0.0434
32330W        W48404   7.518  15.962   4.785 -0.0783  0.1898  0.2258
32331W        W48405  13.474  13.324   6.054  0.0984  0.0058  0.3141
32332W        W48406   0.504   2.884  12.457 -0.0842  0.3906 -0.2296
32333W        W48407  11.852  15.955   0.521  0.1292 -0.1143 -0.2412
32334W        W48408   0.575   4.327  16.843 -0.1357 -0.0590  0.1756
32335W        W48409  10.037  16.012   4.331 -0.3277 -0.0787  0.1958
32336W        W48410   9.125  10.392   1.464 -0.2253  0.1170 -0.2259
32337W        W48411  17.032   3.957  15.344  0.2510 -0.0812  0.1185
32338W        W48412  10.722   7.839  12.258 -0.1074  0.3570 -0.3572
32339W        W48413  10.084   4.005  14.583 -0.2016  0.0517 -0.0019
32340W        W48414  17.527  10.022   6.116  0.1211  0.0982  0.1027
32341W        W48415  12.733   2.969  13.834  0.2896 -0.1326 -0.0251
32342W        W48416  12.729  10.437   1.258  0.0648  0.0100 -0.1058
32343W        W48417  10.333   9.382   5.931 -0.1078 -0.0664  0.0002
32344W        W48418   1.064  11.926   3.856  0.3217  0.4688 -0.3216
32345W        W48419  14.380   3.085  11.887  0.1214 -0.2837 -0.0589
32346W        W48420  14.498   9.353  15.423  0.0041 -0.1695 -0.0679
32347W        W48421   6.125  16.683   5.577  0.0188 -0.0606  0.1330
32348W        W48422   9.011   5.996  16.345 -0.2814  0.3120  0.1193
32349W        W48423   0.102   5.346   1.152 -0.0660  0.1156  0.0460
32350W        W48424  11.559   7.225   2.440 -0.1246  0.1387 -0.0129
32351W        W48425   5.011  15.650   0.612  0.3014 -0.0302  0.1619
32352W        W48426  13.228   0.292   0.737  0.1487  0.1509  0.0867
32353W        W48427  14.068   7.016   5.890 -0.0046 -0.0819  0.0487
32354W        W48428  12.051  12.999   0.818 -0.0028  0.1409 -0.2153
32355W        W48429  11.340   0.583   1.933  0.0366  0.0771  0.0604
32356W        W48430   5.463  15.597   3.381  0.1055  0.2062  0.1906
32357W        W48431  13.464  10.119  13.377 -0.0887 -0.2298 -0.1514
32358W        W48432  15.367  10.464  15.892  0.1735  0.2810  0.0357
32359W        W48433  12.175  10.442   2.474  0.0830 -0.2230 -0.0044
32360W        W48434   3.239  12.110   5.036 -0.0622  0.1127  0.1331
32361W        W48435   4.340   2.460  16.147  0.0022  0.2995 -0.0666
32362W        W48436   6.157  15.875   5.172  0.2959 -0.1679 -0.2048
32363W        W48437   7.918   6.013  13.570 -0.2790 -0.0191  0.0176
32364W        W48438   5.761   8.721   2.666  0.0261  0.0832  0.1205
32365W        W48439   9.099  14.017   0.210 -0.0020  0.2671  0.2392
32366W        W48440   5.920  16.379  16.422  0.0832  0.2307 -0.0195
32367W        W48441  16.084  11.128   0.604  0.4476  0.0169  0.1046
32368W        W48442   8.534   6.717   1.304 -0.1884  0.0907  0.2150
32369W        W48443  16.623   5.250   3.357 -0.1179  0.3203 -0.1810
32370W        W48444  17.465   9.609  15.559  0.0334  0.0268 -0.0870
32371W        W48445  14.173   6.792  13.527  0.2549  0.3159  0.1567
32372W        W48446  11.604   6.139  14.111  0.2696 -0.0549 -0.1876
32373W        W48447   0.557   5.240   1.399  0.0509  0.1826 -0.0068
32374W        W48448   9.525   5.343  13.599  0.0528  0.2966 -0.3459
32375W        W48449   9.337   1.789  13.944 -0.0274  0.1369 -0.0201
32376W        W48450   8.563   4.766  15.620 -0.1865  0.2349 -0.0173
32377W        W48451   3.286  11.214   1.642  0.0462 -0.2621  0.1614
32378W        W48452   1.280  12.535   0.404 -0.0082 -0.0500 -0.0970
32379W        W48453  14.549  11.761   3.005 -0.0869 -0.2371 -0.1927
32380W        W48454  15.726  15.387  13.851 -0.1678 -0.0811  0.1955
32381W        W48455   1.519   0.078  11.411 -0.2923  0.3625 -0.0033
32382W        W48456  15.041   3.154   0.048  0.0662 -0.0765  0.0398
32383W        W48457  16.445  11.378   1.575  0.1122 -0.0634 -0.0444
32384W        W48458   6.403   5.147   3.874  0.0428  0.0838  0.0369
32385W        W48459   0.827   3.211   4.454  0.1560  0.1280  0.0433
32386W        W48460   2.779  10.916  13.276 -0.0818  0.2318  0.2827
32387W        W48461  10.846   9.317   3.939 -0.2229 -0.1279  0.0889
32388W        W48462   3.832  12.719   3.390 -0.0607  0.2596  0.1690
32389W        W48463   5.076  10.355   0.144  0.1872  0.2955  0.1555
32390W        W48464   7.588  17.024   5.033 -0.0181 -0.3014  0.1436
32391ION     NA48465   9.328   7.048   6.493  0.1887  0.0414 -0.1488
32392ION     NA48466   4.429   3.975   1.894  0.1455  0.2379  0.0761
32393ION     NA48467   6.313  13.597  11.280  0.0529 -0.0005  0.0964
32394ION     NA48468  15.928  14.680  10.758  0.1806  0.0625  0.3538
32395ION     NA48469  17.231  13.338   0.335  0.1214 -0.4209 -0.3205
32396ION     NA48470   1.921   2.363  10.789 -0.1093  0.3662  0.2954
32397ION     NA48471  17.458   5.619  13.181 -0.0752  0.0113 -0.1382
32398ION     NA48472   6.821   2.871   3.101  0.4232 -0.0656  0.0936
32399ION     NA48473   8.502   4.375   6.263  0.0571 -0.1328  0.0032
32400ION     NA48474  16.905   5.288  16.783  0.0983  0.0588  0.0596
32401ION     NA48475  14.644  14.423  10.697 -0.1600  0.0699  0.1564
32402ION     NA48476  14.291  15.912   1.753  0.1519 -0.1541 -0.0076
32403ION     NA48477   6.848   2.879  16.749  0.0120  0.0496 -0.0616
32404ION     NA48478  15.610  13.726  10.749  0.2015 -0.1186  0.6033
32405ION     NA48479   9.632   3.430   3.041  0.2871  0.1166 -0.1648
32406ION     NA48480   2.918  16.750   6.070  0.1135  0.3532 -0.0306
32407ION     NA48481  13.593   9.563   5.187  0.4011 -0.2363 -0.0903
32408ION     NA48482  17.326   0.790  11.008 -0.1447 -0.0120 -0.1474
32409ION     NA48483   0.439  10.940  11.194  0.0147 -0.0577  0.0367
32410ION     NA48484  15.914  13.078  10.760  0.1876 -0.0221  0.0948
32411ION     NA48485   5.506   0.169   4.227 -0.1384 -0.4878 -0.0419
32412ION     NA48486   9.864   9.752  11.117  0.1086  0.2525 -0.2754
32413ION     NA48487  16.394   0.891   6.359 -0.0688  0.0391 -0.1848
32414ION     NA48488   1.976  12.802   6.076 -0.3487 -0.2496  0.0443
32415ION     NA48489  14.826   5.944  10.833  0.1808  0.0172  0.1596
32416ION     NA48490  15.997   2.032  17.094  0.1173 -0.0926 -0.1590
32417ION     NA48491   4.029   2.550   6.133 -0.2855  0.2044 -0.0623
32418ION     NA48492  15.661  10.813   0.244  0.0659  0.1001 -0.0252
32419ION     NA48493   5.204  12.385  10.882  0.1604  0.1569  0.1138
32420ION     NA48494  16.221  10.772  10.696  0.0124 -0.5197 -0.0543
32421ION     NA48495  14.275   9.183  10.534 -0.0736 -0.4330  0.0309
32422ION     NA48496   1.342   7.293  10.966 -0.2034  0.2432 -0.0388
32423ION     NA48497   9.734   3.266  10.959 -0.0281  0.3449  0.2119
32424ION     NA48498   7.802  13.012  10.866  0.1594 -0.3379 -0.2984
32425ION     NA48499   4.882   9.541  15.253 -0.0970 -0.0307 -0.0436
32426ION     NA48500  12.394   4.406  10.928  0.0340 -0.1276 -0.1201
32427ION     NA48501  11.524   7.175  10.846  0.0517 -0.0705  0.1263
32428ION     NA48502  12.537  12.801  11.046  0.0637 -0.3702  0.1735
32429ION     NA48503  11.612  14.874   6.450 -0.0248  0.1281  0.1291
32430ION     NA48504  14.541  16.992  12.952  0.1068 -0.0229  0.0538
32431ION     NA48505   9.664  14.726  16.906  0.0605  0.0127  0.0525
32432ION     NA48506  14.725  11.213  10.614  0.0048 -0.1523 -0.0741
32433ION     NA48507  11.115  12.297   4.802 -0.2239  0.0159  0.2095
32434ION     NA48508  13.271  17.076  11.365  0.0007  0.0888 -0.2677
32435ION     NA48509   7.237   5.731  10.982  0.3023  0.0845 -0.1222
32436ION     NA48510   0.440  10.135  11.082 -0.3480 -0.0313  0.0496
32437ION     NA48511  16.237  14.864   1.132 -0.1941  0.0689  0.0809
32438ION     NA48512   6.868  10.040   4.397 -0.0755  0.0659 -0.0773
32439ION     NA48513   3.167   0.238  11.075  0.0789  0.2171 -0.2965
32440ION     NA48514   1.512  17.140   0.732 -0.0580  0.0025  0.2454
32441ION     NA48515   6.048  12.905  11.033  0.1293 -0.0353 -0.3042
32442ION     NA48516  16.156   7.374  10.773  0.1463  0.1717  0.0894
32443ION     NA48517  12.962   6.601  12.422  0.2007 -0.0510  0.0250
32444ION     NA48518   3.942   7.920   0.691 -0.0711 -0.3067  0.1863
32445ION     NA48519   8.067  15.969  10.780  0.0412  0.0007 -0.0064
32446ION     NA48520   5.046  10.985  10.961 -0.1457 -0.1157 -0.2575
32447ION     NA48521   5.554   9.679   5.284  0.0879  0.1179  0.0184
32448ION     NA48522   9.748   4.694  11.086  0.2156  0.2023  0.1334
32449ION     NA48523   9.239   7.166  11.157 -0.6044  0.1506 -0.1506
32450ION     NA48524   4.842   7.514  13.439 -0.0111  0.1604  0.0118
32451ION     NA48525   9.780  16.524   0.331 -0.3273 -0.0449  0.1105
32452ION     NA48526   2.827  11.844  10.894  0.2384 -0.1496  0.0939
32453ION     NA48527  16.663  12.776  15.666  0.3022  0.1357  0.1700
32454ION     NA48528  15.998  17.235   6.340 -0.1022  0.1318 -0.0558
32455ION     NA48529   2.013   8.730  11.656  0.3732 -0.0107 -0.2927
32456ION     NA48530  17.045   0.720   5.338 -0.2510 -0.2419  0.0076
32457ION     NA48531   4.480  11.718  10.997  0.0460  0.1287 -0.1235
32458ION     NA48532   6.107   7.345   0.227 -0.0540  0.0745  0.0234
32459ION     NA48533   6.896  11.113  11.112  0.0877  0.0554  0.1623
32460ION     NA48534   4.277  13.823   3.884 -0.0140  0.1063 -0.1274
32461ION     NA48535  11.421  16.640   3.798  0.4465 -0.1664 -0.1989
32462ION     NA48536   3.995   1.068   2.767 -0.1271  0.0751  0.0693
32463ION     NA48537   3.337  12.213   1.710 -0.1419  0.2200  0.0172
32464ION     NA48538  12.834   3.930  11.651 -0.0109 -0.1853  0.1102
32465ION     NA48539  11.497   3.971  11.058 -0.0553 -0.2554 -0.0523
32466ION     NA48540  17.133   2.743   6.403 -0.5579  0.1386 -0.1890
32467ION     NA48541   9.595  10.254  10.879 -0.1818 -0.1956 -0.3062
32468ION     NA48542   6.720   4.665   5.943  0.1184 -0.1081 -0.1166
32469ION     NA48543  16.834   6.994  10.764 -0.1396 -0.0565  0.0441
32470ION     NA48544   8.612  15.319  10.922  0.3155 -0.1186 -0.0582
32471ION     NA48545   5.272  14.730  10.973  0.4463 -0.0566  0.2120
32472ION     NA48546   0.552  13.745  10.963 -0.0504  0.3366  0.0830
32473ION     NA48547   4.807   5.704  17.046 -0.2023  0.1740 -0.2680
32474ION     NA48548   4.189  11.394   0.730 -0.0493 -0.0532  0.0016
32475ION     NA48549   3.773   9.780  13.548  0.1760 -0.0230 -0.0580
32476ION     NA48550  10.893   8.187   3.261 -0.0971 -0.1232 -0.0179
32477ION     NA48551  17.085  15.832  12.077 -0.0154 -0.1148 -0.1222
32478ION     NA48552   7.227  15.894  10.953  0.0675 -0.0936  0.1485
32479ION     NA48553   6.476  13.695   5.952 -0.0837  0.1181 -0.0023
32480ION     NA48554  11.960  11.777  14.973  0.1559  0.0082 -0.1731
32481ION     NA48555  14.205  15.115  11.024 -0.1165 -0.3113 -0.0449
32482ION     NA48556  15.110  12.079  16.690 -0.0622  0.0626  0.0667
32483ION     NA48557  14.620  12.065  13.699 -0.2143 -0.0076  0.1631
32484ION     NA48558  14.535   2.017  17.146  0.0071  0.0559  0.1147
32485ION     NA48559   1.055   9.625  11.069  0.0285 -0.2238 -0.0333
32486ION     NA48560  16.357  15.605  16.067 -0.0873  0.1302  0.0505
32487ION     NA48561  12.115   1.075  11.066  0.0126  0.0543  0.1819
32488ION     NA48562   0.117  14.668  11.657  0.1398  0.0473 -0.1461
32489ION     NA48563  12.810  10.885  12.652  0.0025  0.1993  0.2154
32490ION     NA48564   1.648   8.486   3.374 -0.2361 -0.0946 -0.0244
32491ION     NA48565  10.733   7.114  11.198 -0.3830  0.3216  0.0109
32492ION     NA48566  16.496  14.070   5.963 -0.3606  0.3241 -0.1775
32493ION     NA48567  15.803   4.650   3.172  0.2767 -0.3984  0.1103
32494ION     NA48568   3.991  16.823   6.251  0.0946  0.2093 -0.0638
32495ION     NA48569  11.099   7.761  10.772 -0.1078  0.0344  0.0115
32496ION     NA48570  15.658   3.055  11.086 -0.1855  0.0923  0.2271
32497ION     NA48571   8.211   5.090  13.085 -0.3550  0.0171  0.0166
32498ION     NA48572  15.906  10.008  10.526 -0.0301  0.0836 -0.1024
32499ION     NA48573   4.139   0.887  11.009 -0.0339 -0.0899 -0.0615
32500ION     NA48574  13.107   9.686   6.002  0.1367 -0.1929 -0.0173
32501ION     NA48575  11.576   9.655  10.711  0.2239  0.1058 -0.0734
32502ION     NA48576   5.876  16.820  16.674 -0.1645  0.0285  0.0138
32503ION     NA48577   5.968   6.463  10.609  0.2066 -0.0733 -0.0820
32504ION     NA48578   3.838  14.971  10.979  0.1753 -0.0147  0.0221
32505ION     NA48579   9.519  15.688  11.004 -0.0480 -0.2492 -0.2959
32506ION     NA48580   9.216  10.761  11.045 -0.2568 -0.2054  0.1284
32507ION     NA48581   3.043   3.283  11.068 -0.1147 -0.2613 -0.1118
32508ION     NA48582  12.964   1.244  10.955 -0.1069  0.0374 -0.2955
32509ION     NA48583   5.680   1.709  13.109 -0.0806  0.0593  0.3197
32510ION     NA48584  11.786  11.304   5.540 -0.1256 -0.0154 -0.2807
32511ION     NA48585  13.554   0.773   0.635 -0.2513 -0.0312  0.1858
32512ION     NA48586  12.426   0.952   6.222 -0.0955 -0.0761 -0.0859
32513ION     NA48587  10.994   1.949  11.459 -0.1379 -0.0363 -0.0193
32514ION     NA48588   5.220  15.744  10.981 -0.1337  0.0480  0.2878
32515ION     NA48589   4.154   8.920   5.946  0.0613  0.1488 -0.0215
32516ION     NA48590  13.128  15.870  14.647  0.0599 -0.0537 -0.2047
32517ION     NA48591  16.204   1.960  10.959  0.0994  0.0406  0.1212
32518ION     NA48592  12.156   5.115  16.497 -0.1049  0.1228 -0.1001
32519ION     NA48593  12.999   3.011  10.888 -0.2953  0.0097  0.0908
32520ION     NA48594  17.531   6.502   6.411  0.2423  0.1249  0.3303
32521ION     NA48595   0.384   2.517   6.074  0.3290  0.2731  0.0713
32522ION     NA48596  15.214   7.823  10.917  0.1528  0.0551 -0.3680
32523ION     NA48597  13.120  15.298  10.993  0.0330 -0.1204 -0.3312
32524ION     NA48598  12.183   6.683  10.972  0.0361  0.0474 -0.1464
32525ION     NA48599   7.382   4.083  10.805  0.0484 -0.0298 -0.0047
32526ION     NA48600   3.847   1.322   0.040 -0.0110  0.1099 -0.1564
32527ION     NA48601  11.350   1.352   5.858  0.0780  0.0508  0.0389
32528ION     NA48602   1.541  16.766  10.775 -0.4002  0.0366  0.0137
32529ION     NA48603   7.534  14.786  15.173  0.0880 -0.1311  0.1887
32530ION     NA48604  11.508   6.888  14.587  0.1312  0.1449  0.2621
32531ION     NA48605   5.940   4.524  16.617  0.0092  0.1359 -0.2277
32532ION     NA48606   2.984   5.350   0.227  0.1660 -0.3163  0.2075
32533ION     NA48607  17.353   8.753   5.696  0.2113  0.0080  0.0438
32534ION     NA48608   5.643   0.506  10.737 -0.1724 -0.0068  0.2237
32535ION     NA48609  11.172  13.887  11.279  0.0745 -0.3555 -0.0275
32536ION     NA48610  12.926   6.974  10.948  0.0226  0.2235 -0.0362
32537ION     NA48611   0.351  14.545  11.096 -0.1689 -0.0710 -0.1927
32538ION     NA48612   4.327  15.791  11.159  0.2577  0.2955 -0.0430
32539ION     NA48613  12.558  14.501  11.129  0.0450 -0.1511  0.2037
32540ION     NA48614   9.486  13.286   4.384  0.0535 -0.2732 -0.2584
32541ION     NA48615  11.082   1.249  11.041 -0.1954 -0.2074 -0.1680
32542ION     NA48616   8.641   8.308  11.034  0.0149  0.0555  0.4832
32543ION     NA48617   2.337   2.798  10.916 -0.2182 -0.0610 -0.0969
32544ION     NA48618  12.768  10.967  10.733  0.1904  0.1415  0.0555
32545ION     NA48619   0.748   0.572  11.047  0.1388  0.0408  0.1760
32546ION     NA48620  14.138   7.676  11.532 -0.1269 -0.0136 -0.3737
32547ION     NA48621   3.841  10.674  13.049  0.0324  0.0570  0.0109
32548ION     NA48622   4.563   3.962   6.173 -0.0100 -0.2879  0.3191
32549ION     NA48623   9.715  13.868  10.970 -0.0054  0.1457  0.0843
32550ION     NA48624  17.468   7.184  10.961 -0.1573  0.0291 -0.3501
32551ION     NA48625   3.805   4.439  10.917  0.1598 -0.1976 -0.0034
32552ION     NA48626   7.159   3.301  10.972  0.1905  0.0405  0.4820
32553ION     NA48627   6.253   8.270  10.761  0.1435 -0.0927 -0.2936
32554ION     NA48628   6.076  14.341  11.099 -0.2210 -0.0725  0.3076
32555ION     NA48629  17.637   0.387  16.802 -0.0197 -0.0205  0.0026
32556ION     NA48630   3.722  13.301  11.071 -0.2115  0.0993  0.1910
32557ION     NA48631   2.324  14.031  13.677 -0.0165 -0.3275  0.0430
32558ION     NA48632   7.324  12.114  10.870 -0.3591  0.0410  0.0471
32559ION     NA48633   4.541  13.510  11.049  0.2595  0.2160 -0.3596
32560ION     NA48634   4.096  14.147  11.188  0.0786  0.2453 -0.2182
32561ION     NA48635   8.255   9.206  13.235  0.1703 -0.1355 -0.1768
32562ION     NA48636  17.378  14.033  10.939 -0.0004 -0.1713 -0.0877
32563ION     NA48637  10.642  11.242  10.934  0.1410 -0.0998 -0.0036
32564ION     NA48638   4.042   4.070   2.694 -0.2140  0.0065  0.3202
32565ION     NA48639  12.265  14.134  12.799  0.2053 -0.2497 -0.2094
32566ION     NA48640   0.089  16.261  11.188 -0.0271 -0.1045 -0.4444
32567ION     NA48641   0.085   9.557  12.552  0.2005  0.2223  0.0129
32568ION     NA48642   5.479   3.207  14.499 -0.0239  0.3406  0.2533
32569ION     NA48643  12.232   6.371   6.350 -0.2468  0.0262 -0.0735
32570ION     NA48644  17.724   9.476   6.332  0.1279 -0.0112 -0.0082
32571ION     NA48645   8.317   3.666  10.888 -0.0306  0.0571 -0.0256
32572ION     NA48646   2.604   9.084  10.939 -0.0239 -0.1380  0.0964
32573ION     NA48647  13.477   8.400  10.522 -0.2831 -0.1859 -0.2416
32574ION     NA48648   5.285  13.970  15.619 -0.3557  0.2656 -0.3557
32575ION     NA48649  12.817  12.493  11.818  0.0090 -0.2107  0.0722
32576ION     NA48650  10.106  16.783  15.618 -0.0149 -0.0885 -0.0671
32577ION     NA48651   9.297   1.797  10.782 -0.0435 -0.0235 -0.0268
32578ION     NA48652   0.848   5.860  10.836 -0.0774 -0.0082  0.2313
32579ION     NA48653  12.793  17.103  11.192  0.1265  0.2220  0.0872
32580ION     NA48654  17.723  10.176   0.194 -0.1558  0.2080  0.1672
32581ION     NA48655  12.923   6.058  10.971  0.0876 -0.1038  0.1638
32582ION     NA48656   2.530  14.023  10.923  0.0094 -0.0809 -0.1043
32583ION     NA48657   9.151  16.846  10.745 -0.0294  0.1078  0.1331
32584ION     NA48658  16.866  17.320   6.180  0.1910 -0.1987 -0.0083
32585ION     NA48659  11.763   0.672  11.153 -0.0138  0.2324 -0.1143
32586ION     NA48660   0.315   0.365  14.322  0.0180  0.1764 -0.2330
32587ION     NA48661   8.612   1.222  11.100  0.2082 -0.0328 -0.0278
32588ION     NA48662   7.657  17.429   6.243  0.2090  0.1114  0.2715
32589ION     NA48663   8.882   2.956  11.031  0.1263  0.3827 -0.4193
32590ION     NA48664  11.219  10.990   6.004 -0.0358  0.2098 -0.1905
32591ION     NA48665   5.096  17.145  14.894 -0.0151  0.0934  0.0727
32592ION     NA48666   8.435   2.212  13.396 -0.1292 -0.0768 -0.1901
32593ION     NA48667   1.900  11.091   6.397  0.0914 -0.5483  0.1005
32594ION     NA48668   4.208  12.741  10.920  0.1068 -0.2707 -0.0502
32595ION     NA48669   3.332  12.548  11.125  0.0489  0.0269 -0.5569
32596ION     NA48670   5.380  16.791  10.922  0.0467 -0.0297 -0.1504
32597ION     NA48671   8.020   9.220  11.053  0.2144 -0.1042  0.0354
32598ION     NA48672  11.988  14.026  15.637  0.0210 -0.0001  0.1009
32599ION     NA48673   9.837  11.094  11.434  0.2448 -0.1076  0.0457
32600ION     NA48674  16.292   5.474  14.598  0.0290 -0.0283 -0.2138
32601ION     NA48675   4.445  16.592   0.780 -0.0632  0.0736 -0.1689
32602ION     NA48676   2.571   4.091  11.098  0.1981  0.0955  0.0346
32603ION     NA48677   8.878   9.745  11.178  0.1430 -0.0623 -0.1496
32604ION     NA48678   0.317   6.589  15.424  0.1912 -0.1382  0.2465
32605ION     NA48679  16.368   7.110  15.867  0.0549  0.3715 -0.0898
32606ION     NA48680   5.229  12.585   0.485  0.1956  0.3468  0.2755
32607ION     NA48681   6.931   4.839  10.958 -0.2793  0.0073  0.1435
32608ION     NA48682  15.036  15.081  10.890 -0.0818  0.5735 -0.2381
32609ION     NA48683   9.804   6.710   6.543  0.3061  0.2751  0.0874
32610ION     NA48684   5.537   9.921  10.898 -0.0183  0.1296  0.0243
32611ION     NA48685   7.328  11.165  15.483 -0.1783 -0.1020  0.1175
32612ION     NA48686  11.765   1.979  11.013 -0.0388  0.1064  0.1298
32613ION     NA48687   0.813  10.019  12.051  0.0609  0.2339  0.2240
32614ION     NA48688   2.272  16.238  11.051  0.1905  0.1750  0.0067
32615ION     NA48689  11.574   5.910  11.049 -0.1630 -0.2396  0.0072
32616ION     NA48690  10.292   1.665  10.953 -0.0350  0.0271 -0.2320
32617ION     NA48691   6.491   7.143   5.988 -0.2728 -0.0211  0.0401
32618ION     NA48692  10.478   2.516  16.680  0.2205 -0.1448  0.0761
32619ION     NA48693  17.333  10.832  16.160 -0.2615 -0.1282 -0.0757
32620ION     NA48694   1.755   8.167  15.012  0.0111 -0.2353  0.3674
32621ION     NA48695  17.684   1.938  10.972  0.1401  0.2342 -0.1849
32622ION     NA48696  13.504   0.758  11.559 -0.0027 -0.0191 -0.1717
32623ION     NA48697  17.015  12.198  10.821 -0.5558  0.0900  0.1041
32624ION     NA48698   0.676  10.767   2.835  0.1674  0.1075 -0.1928
32625ION     NA48699  10.949  16.621  14.085  0.2001  0.2414 -0.2584
32626ION     NA48700  14.528   9.008   6.215 -0.3654  0.2139  0.1425
32627ION     NA48701  16.187   2.688   6.384 -0.0036  0.1280  0.2613
32628ION     NA48702   5.367   5.352  10.853 -0.1396 -0.3607 -0.1490
32629ION     NA48703  15.841   4.966   5.936  0.0546  0.3297  0.2964
32630ION     NA48704   0.282   9.854   4.810  0.1615 -0.1616 -0.1380
32631ION     NA48705   6.110  11.904  10.982 -0.3088 -0.0498 -0.0110
32632ION     NA48706   0.626   2.017   5.172 -0.0867 -0.1786 -0.1011
32633ION     NA48707   9.602   0.954  10.901  0.0727  0.0128 -0.1332
32634ION     NA48708   1.662   7.553   0.542 -0.1410  0.1406  0.2140
32635ION     NA48709  13.914   5.901  10.958  0.4095  0.0978 -0.1275
32636ION     NA48710  11.983  13.713  11.206  0.0535  0.1245  0.3906
32637ION     NA48711   4.279   4.237  10.994 -0.1029  0.1148  0.0043
32638ION     NA48712   4.495   0.807   4.673 -0.0771 -0.1954 -0.4511
32639ION     NA48713  17.423  13.172  10.893 -0.0991 -0.1245  0.1417
32640ION     NA48714   9.032   7.405  13.611  0.2493 -0.0791 -0.0296
32641ION     NA48715  10.754   1.411   5.734  0.0655  0.2663 -0.1242
32642ION     NA48716  12.449   7.768   1.273 -0.0748 -0.0642  0.0922
32643ION     NA48717   3.107   9.817  10.997 -0.0926  0.0061  0.2356
32644ION     NA48718   8.131  17.719  10.785  0.2722  0.2519  0.1476
32645ION     NA48719   5.566   1.038  11.049  0.1268  0.2773  0.2858
32646ION     NA48720  16.553  14.931   6.255 -0.3805  0.2879  0.0141
32647ION     NA48721   6.212  15.647  10.887 -0.2625  0.0968  0.3229
32648ION     NA48722   2.473   7.532   2.799  0.0282 -0.0056 -0.1354
32649ION     NA48723   5.274   4.025  10.939  0.2065 -0.0794 -0.1006
32650ION     NA48724   5.300  11.922  11.822 -0.0961  0.0363 -0.2365
32651ION     NA48725   4.779   4.711  11.030  0.1663 -0.3419 -0.0915
32652ION     NA48726  12.149  13.758   1.666  0.1233  0.0998  0.0836
32653ION     NA48727  10.394   4.979   6.333  0.5326 -0.0832 -0.0679
32654ION     NA48728  16.323   5.743   6.147 -0.0392 -0.3038 -0.1434
32655ION     NA48729   0.113   9.415  10.894  0.0916 -0.1586 -0.1680
32656ION     NA48730  14.714   0.900  11.097 -0.0615 -0.4374  0.0325
32657ION     NA48731  17.087   2.747  10.947 -0.0590  0.1167 -0.0421
32658ION     NA48732   8.302   8.157   5.841  0.2173  0.0307  0.2203
32659ION     NA48733   2.719   1.998   1.221  0.1619 -0.0371 -0.1001
32660ION     NA48734  11.244   7.961  13.476 -0.1092  0.1471  0.1545
32661ION     NA48735   1.767   2.283   4.488  0.1882  0.0750  0.1725
32662ION     NA48736   5.531   8.234  10.530 -0.0127 -0.1859 -0.0224
32663ION     NA48737  13.800   3.440  10.743  0.0700  0.1312 -0.2503
32664ION     NA48738   0.861   9.139   4.096 -0.0580  0.1852  0.2040
32665ION     NA48739  13.848   2.436  10.919  0.3624 -0.1103  0.1712
32666ION     NA48740   6.715   2.064   2.066 -0.0747  0.3265  0.1585
32667ION     NA48741   9.414   7.904  10.906 -0.0686  0.3884 -0.2424
32668ION     NA48742   5.223   7.129  10.489 -0.1811 -0.2634  0.1982
32669ION     NA48743  11.967   4.034   6.304  0.1100  0.0400 -0.2059
32670ION     NA48744  14.267  16.193  10.972 -0.0627 -0.1074 -0.4540
32671ION     NA48745  14.383  10.478  10.618 -0.2644  0.2383  0.0836
32672ION     NA48746  15.526   8.481   5.201 -0.0380  0.1350  0.0086
32673ION     NA48747  15.001  13.013  10.837  0.0901 -0.1828 -0.2815
32674ION     NA48748   3.773  16.124  13.836 -0.3539  0.0894  0.2460
32675ION     NA48749   5.939   9.088   4.016 -0.1459  0.0965 -0.2686
32676ION     NA48750  12.437  12.570   6.272 -0.2686 -0.0344 -0.1758
32677ION     NA48751  15.211  10.887   6.198 -0.0670  0.3439 -0.0745
32678ION     NA48752  16.626   6.458  12.757 -0.0073 -0.3828 -0.2800
32679ION     NA48753  12.296   3.465  10.916 -0.1368  0.0225  0.0835
32680ION     NA48754  10.217  14.980  10.954  0.3100 -0.1124 -0.4057
32681ION     NA48755   7.181   8.600  11.179  0.0580 -0.4104  0.2651
32682ION     NA48756   0.589  12.873  11.053  0.0896  0.2560  0.0625
32683ION     NA48757  13.242   6.475   6.326 -0.3091  0.0759  0.0313
32684ION     NA48758   9.469   5.532  10.958  0.2385 -0.0796  0.2296
32685ION     NA48759  17.617   3.605  11.035  0.1957 -0.0587 -0.2952
32686ION     NA48760   8.520   2.049   2.167  0.2738 -0.1403  0.0477
32687ION     NA48761  12.293   2.792   1.591  0.2175  0.1381 -0.1110
32688ION     NA48762   1.780  13.408   1.821  0.2213  0.1415  0.0948
32689ION     NA48763   6.915  14.513  11.480 -0.0151  0.1607 -0.0730
32690ION     NA48764  10.545   8.134  10.931 -0.0113  0.3647 -0.1250
32691ION     NA48765  13.287   7.830  10.751  0.1558  0.2451  0.3303
32692ION     NA48766   6.621   1.710  10.801  0.0481 -0.0241 -0.1528
32693ION     NA48767  15.425   2.122   6.155 -0.0883  0.0186  0.1380
32694ION     NA48768  16.514  10.185  11.840 -0.0292 -0.1066 -0.1629
32695ION     NA48769  12.201  10.273  10.853 -0.1886 -0.1124  0.2838
32696ION     NA48770   1.086  17.063   6.428  0.1698 -0.1282 -0.2795
32697ION     NA48771   4.265   1.997  11.241 -0.1006  0.3640 -0.0959
32698ION     NA48772   9.945  17.380  10.782  0.0878 -0.1446  0.2284
32699ION     NA48773   2.502  17.463   6.120 -0.0005  0.0777 -0.0694
32700ION     NA48774  13.539  11.466  16.730  0.2563 -0.4690  0.1093
32701ION     NA48775   8.416  17.255  10.742 -0.0352 -0.0372  0.3664
32702ION     NA48776   7.395   7.680  10.938  0.0564 -0.3442  0.0764
32703ION     NA48777   6.068  12.020   6.448 -0.0241  0.1208  0.0284
32704ION     NA48778  10.721  17.399   2.758  0.3160 -0.0149 -0.3361
32705ION     NA48779  12.671   8.542  10.657  0.0909 -0.2655 -0.0436
32706ION     NA48780   6.408   5.469  10.855  0.2427  0.1052 -0.0078
32707ION     NA48781  10.880   0.302   4.124  0.1046 -0.0520 -0.0274
32708ION     NA48782  13.220   3.468   6.201 -0.2285  0.0316  0.1753
32709ION     NA48783  13.837   4.819  11.079 -0.1026  0.1591  0.1020
32710ION     NA48784   2.250   9.531  13.896 -0.1890  0.0705  0.1547
32711ION     NA48785  12.431  15.703  11.038 -0.1068  0.0430 -0.1438
32712ION     NA48786   2.100  14.898  15.602 -0.0488  0.3546  0.0799
32713ION     NA48787   0.285  11.122  12.681  0.2250 -0.0052 -0.1091
32714ION     NA48788  16.321  11.668  10.815  0.2151  0.3661  0.0056
32715ION     NA48789   7.611   2.681  12.255 -0.1217 -0.2503  0.2887
32716ION     NA48790   3.005  17.466  11.143  0.0597  0.1198  0.1366
32717ION     NA48791  15.470   8.887  14.101  0.1041  0.1143 -0.2857
32718ION     NA48792   2.040  10.345  14.488 -0.0151  0.1983 -0.2190
32719ION     NA48793  17.558  15.384  11.148  0.1248  0.2489  0.3752
32720ION     NA48794   8.390   2.083  10.787 -0.3752 -0.1335 -0.1552
32721ION     NA48795  15.214   5.148  13.113 -0.3235 -0.0199 -0.1301
32722ION     NA48796   0.145  11.931  11.003 -0.1688  0.2122  0.0117
32723ION     NA48797   1.585   4.015  11.204 -0.1900  0.0151 -0.1910
32724ION     NA48798   1.732   5.655  10.844 -0.4099  0.0582 -0.1276
32725ION     NA48799  14.472   1.880  11.136  0.4553  0.2057  0.2002
32726ION     NA48800  10.941   1.319  13.202 -0.2643  0.0763  0.0468
32727ION     NA48801   2.159   7.111  10.812  0.0602  0.3004  0.1215
32728ION     NA48802  16.298  13.728   2.498 -0.0035 -0.0847  0.0821
32729ION     NA48803   9.166  14.467  11.029  0.1381 -0.0771 -0.2890
32730ION     NA48804   7.623   8.527  15.695 -0.0827 -0.1968  0.1566
32731ION     NA48805  11.632   4.976  11.109  0.0386  0.1575 -0.0579
32732ION     NA48806  15.655   4.804  10.925  0.2518  0.2641 -0.0518
32733ION     NA48807  17.316  16.981  10.912  0.0746 -0.3668 -0.0595
32734ION     NA48808   6.971   6.605  10.996  0.0635  0.0267 -0.1590
32735ION     NA48809   3.492  16.404  12.281  0.0318 -0.0501 -0.1940
32736ION     NA48810   3.473   9.066  10.676  0.0217  0.2573  0.0811
32737ION     NA48811   7.335  14.973  10.895  0.0240  0.0445 -0.1966
32738ION     NA48812  17.206  16.128  11.054  0.0393  0.0008 -0.0322
32739ION     NA48813  11.285  10.440  10.845  0.1274  0.0032 -0.0243
32740ION     NA48814   3.286  14.236  10.948 -0.1927  0.1229  0.0027
32741ION     NA48815   3.672   8.087  11.204 -0.1022  0.1265 -0.5742
32742ION     NA48816  15.967   0.034  10.997  0.1980 -0.0178  0.3343
32743ION     NA48817  10.699  16.348  11.010  0.0083 -0.0376  0.1425
32744ION     NA48818   7.870  12.206   4.699  0.1431 -0.1104 -0.0288
32745ION     NA48819   1.256  17.092  14.969  0.1809 -0.3376 -0.2105
32746ION     NA48820   3.922   1.013   6.081 -0.1104 -0.0361 -0.0470
32747ION     NA48821   4.736  16.478  10.723  0.1458  0.1678 -0.2235
32748ION     NA48822   6.076  10.248   6.513 -0.1620 -0.1031  0.2621
32749ION     NA48823  11.315   9.719   2.313 -0.2509 -0.1109  0.0685
32750ION     NA48824   4.844   0.397  11.014  0.3078 -0.1910 -0.1292
32751ION     NA48825  16.448  16.957  11.057 -0.3433  0.0902  0.0072
32752ION     NA48826   8.844  12.595   0.570 -0.1370  0.1323  0.2023
32753ION     NA48827   9.919   4.162  10.959 -0.0333  0.3099  0.2251
32754ION     NA48828  11.580  14.734  11.049 -0.2113 -0.0465  0.0469
32755ION     NA48829   5.822   1.613  10.807  0.0412 -0.2311  0.1422
32756ION     NA48830  16.118   3.386   1.041  0.0494 -0.4089  0.0608
32757ION     NA48831   6.244  17.442   0.895  0.3271  0.0404 -0.2712
32758ION     NA48832  14.741   4.716   6.412  0.4176 -0.0970  0.1523
32759ION     NA48833  15.792  15.630  10.691 -0.1800  0.2048 -0.1052
32760ION     NA48834  11.331   6.143   6.111 -0.0201 -0.1054 -0.0171
32761ION     NA48835   4.212   6.380   0.905 -0.1526  0.0724  0.1333
32762ION     NA48836   3.896   3.465  11.076 -0.4498  0.2196 -0.0695
32763ION     NA48837   6.952  13.063  11.064  0.2470  0.1420 -0.0153
32764ION     NA48838  16.036   9.120  11.024  0.3262 -0.3980 -0.0569
32765ION     NA48839   0.352   6.718  14.182  0.2675 -0.0681  0.1342
32766ION     NA48840   5.187  12.539   6.304 -0.0204 -0.3524  0.0525
32767ION     NA48841   3.620  15.437  10.923  0.1244 -0.2462  0.1242
32768ION     NA48842   2.849  13.258  11.111 -0.2205 -0.2115 -0.0721
32769ION     NA48843   4.126   8.373   1.378 -0.1593  0.0508  0.1032
32770ION     NA48844   4.862   7.548  10.438 -0.2145  0.0904 -0.1348
32771ION     NA48845   7.283  16.049   2.026 -0.0720  0.0946  0.1254
32772ION     NA48846  10.072   1.796   6.223  0.3976  0.1524 -0.2569
32773ION     NA48847  10.092  10.394  15.203  0.0472 -0.1962 -0.2176
32774ION     NA48848   2.807  14.842  11.020 -0.0390 -0.1834  0.1694
32775ION     NA48849   1.514   8.128  11.028 -0.0371  0.3721  0.0998
32776ION     NA48850  17.394  11.467  11.058  0.0933 -0.4024  0.2969
32777ION     NA48851  12.952  10.065  10.727 -0.1265 -0.1211 -0.2191
32778ION     NA48852   5.493  15.228  11.061  0.3032 -0.1133 -0.1382
32779ION     NA48853  16.507  13.065  14.676 -0.0025 -0.1506 -0.0695
32780ION     NA48854   0.916  11.463  10.907 -0.0044 -0.0981 -0.0209
32781ION     NA48855   5.709  17.739  10.771  0.0901  0.0123  0.2368
32782ION     NA48856   4.701   5.776  11.263 -0.0330  0.0752 -0.1872
32783ION     NA48857  11.372   6.409  10.880  0.0637 -0.0840  0.1662
32784ION     NA48858  17.707   8.123   3.852 -0.0745  0.1052  0.2917
32785ION     NA48859   8.484   9.311   4.519  0.0517 -0.1177 -0.0038
32786ION     NA48860   9.661  16.664   6.175 -0.1383 -0.0703  0.2642
32787ION     NA48861  15.981   8.221  10.933 -0.0551  0.0315  0.1347
32788ION     NA48862   1.932   7.242  14.326 -0.0711 -0.0076 -0.0576
32789ION     NA48863   7.434  16.566   6.136  0.2556  0.2907  0.1330
32790ION     NA48864  15.238   2.515  16.781  0.2040 -0.0873 -0.3328
32791ION     NA48865  10.044  12.094  10.926 -0.1247  0.0139 -0.0368
32792ION     NA48866   0.803   3.828  10.935 -0.0176  0.1845  0.0549
32793ION     NA48867   0.805  15.387  11.099 -0.0169  0.1730  0.0663
32794ION     NA48868   4.994  11.217   1.014 -0.1681 -0.1590 -0.0146
32795ION     NA48869  15.633   1.333  11.195  0.1507  0.2113  0.0113
32796ION     NA48870   9.133  11.774  11.039  0.3398  0.1540 -0.0230
32797ION     NA48871   0.515   7.661   6.389  0.1001 -0.2281  0.3541
32798ION     NA48872   3.679   0.274  10.812 -0.0970 -0.1381 -0.0020
32799ION     NA48873   3.180  10.762  10.843 -0.1712 -0.0097 -0.3119
32800ION     NA48874  17.593   2.609   2.913 -0.2996 -0.0861 -0.2016
32801ION     NA48875   1.978  12.757  11.130  0.0219  0.1813  0.0340
32802ION     NA48876  15.073  13.212  13.381  0.1408 -0.3167 -0.0434
32803ION     NA48877   5.578   2.059   4.308  0.1567  0.0867 -0.1964
32804ION     NA48878  10.743   9.677  10.941  0.2234  0.0549  0.3593
32805ION     NA48879   4.360   6.815  10.652 -0.1053 -0.2109  0.1326
32806ION     NA48880  12.713  10.657  15.130 -0.0754  0.1860  0.1834
32807ION     NA48881   3.875  17.076  10.877 -0.2266 -0.1305 -0.0179
32808ION     NA48882   3.820  16.203  10.892  0.0174  0.1099  0.0364
32809ION     NA48883   9.322  13.399  11.018 -0.0245 -0.2266  0.2940
32810ION     NA48884  17.132   5.070  11.032  0.1737 -0.0774 -0.1412
32811ION     NA48885   0.104  13.060   0.929 -0.1015 -0.0115  0.1878
32812ION     NA48886   0.844   8.623  10.873  0.0860  0.1574  0.1245
32813ION     NA48887  17.326   8.768   4.224  0.0495 -0.2895 -0.0961
32814ION     NA48888   9.479   8.786  11.227  0.2000  0.1415  0.2228
32815ION     NA48889   5.151   0.976   6.083  0.1203 -0.1991  0.1378
32816ION     NA48890   8.531  15.051   4.279 -0.1368  0.0508  0.3184
32817ION     NA48891   1.473   6.467  11.118 -0.0867 -0.1528  0.3154
32818ION     NA48892  13.362   9.263  10.747  0.1375  0.0390 -0.2641
32819ION     NA48893   9.806  16.070  10.881  0.3482 -0.0405 -0.0352
32820ION     NA48894  16.632  15.410  10.919 -0.0033  0.2163  0.0640
32821ION     NA48895  10.848  17.242  11.115  0.1303  0.1022 -0.0559
32822ION     NA48896  12.602  14.816  11.532 -0.0046 -0.0961  0.1263
32823ION     NA48897   8.103   5.962  11.042  0.5428  0.1124 -0.0897
32824ION     NA48898  10.748   4.527  11.207  0.3025  0.4554 -0.1440
32825ION     NA48899  14.375  16.770  10.986  0.0630 -0.0417 -0.1111
32826ION     NA48900   6.982  17.630   5.053 -0.1073 -0.0650 -0.3486
32827ION     NA48901  17.253  17.610  13.617  0.0743 -0.1747  0.1663
32828ION     NA48902   3.878  11.879  10.853  0.2377  0.0708  0.0020
32829ION     NA48903  17.055  12.895   6.343 -0.0510  0.0722  0.0162
32830ION     NA48904  14.544  14.664  12.895  0.1054 -0.2472  0.0046
32831ION     NA48905  13.540   1.834  12.275  0.1477 -0.1659 -0.2251
32832ION     NA48906  11.017   0.295  10.902  0.0838 -0.4796  0.4133
32833ION     NA48907   8.245   4.280  11.131 -0.3811  0.0672  0.1055
32834ION     NA48908   9.105  14.042   2.907 -0.1068  0.1990 -0.0712
32835ION     NA48909   6.931   1.822   0.495 -0.0490  0.0537 -0.0373
32836ION     NA48910  14.333   6.689  10.854 -0.1904  0.1281 -0.2414
32837ION     NA48911   6.110   7.160  11.025 -0.0438  0.0946 -0.1757
32838ION     NA48912   7.643  14.224  11.159 -0.3704  0.0020 -0.3422
32839ION     NA48913   9.497  17.264  13.031 -0.1421 -0.1007  0.0963
32840ION     NA48914   4.471  10.014  10.808 -0.0362  0.0819 -0.1446
32841ION     NA48915   7.954  11.558   0.951 -0.0803 -0.1658 -0.2296
32842ION     NA48916   7.203   0.360  16.543 -0.2599 -0.2045 -0.1760
32843ION     NA48917   3.043  16.649  10.898  0.0903 -0.2045  0.0628
32844ION     NA48918  15.727   5.794  10.861 -0.2597 -0.1733 -0.1835
32845ION     NA48919   4.004   9.375  10.769 -0.4155 -0.1345  0.2855
32846ION     NA48920  14.224   0.756  10.918 -0.1136 -0.1622 -0.1648
32847ION     NA48921  16.658   1.394  15.081  0.0783  0.1841 -0.0160
32848ION     NA48922  15.244   8.746  11.196 -0.1792  0.1423  0.1783
32849ION     NA48923   2.393   6.253  10.919 -0.0281 -0.1293 -0.1472
32850ION     NA48924  17.346   8.051  10.948 -0.0397  0.0740  0.1908
32851ION     NA48925  10.255   4.926  16.285  0.0816  0.2012  0.2876
32852ION     NA48926   6.045  10.669  11.020  0.3982 -0.2868  0.1906
32853ION     NA48927  14.222  10.951   0.288 -0.1118  0.1453 -0.0437
32854ION     NA48928  12.181  13.549  13.545 -0.2032  0.0343 -0.1218
32855ION     NA48929  10.307  11.040   5.975  0.0757  0.0743 -0.0535
32856ION     NA48930   2.906   7.468  10.795 -0.1302 -0.1004 -0.0972
32857ION     NA48931   6.456   7.413  10.804  0.0197  0.0358  0.0960
32858ION     NA48932   7.794   4.998  11.068 -0.0377 -0.1148 -0.1662
32859ION     NA48933   7.212  10.482  11.132 -0.2663 -0.1896  0.1104
32860ION     NA48934  15.186   8.358  16.611  0.0730 -0.0614 -0.0215
32861ION     NA48935   7.391   0.390  10.686 -0.2614 -0.1280  0.0805
32862ION     NA48936  10.768   2.581  10.868  0.0014  0.1874  0.1529
32863ION     NA48937   1.371  13.575  11.142 -0.1354 -0.1171 -0.0673
32864ION     NA48938   5.262   1.859   6.390 -0.1674  0.2561 -0.2275
32865ION     NA48939  14.107   7.526  10.607 -0.1005  0.0771 -0.0459
32866ION     NA48940   4.770  12.847   4.537 -0.1969  0.0920  0.3854
32867ION     NA48941  14.832   7.440  10.675  0.0563  0.0605  0.1337
32868ION     NA48942  11.555   9.161   1.115  0.0724  0.2416  0.0129
32869ION     NA48943  17.533   9.423   1.977  0.1728 -0.1908 -0.3919
32870ION     NA48944  10.634   6.009  11.306  0.1558  0.0491 -0.0264
32871ION     NA48945   6.666  17.378  10.758  0.0137  0.1447 -0.2769
32872ION     NA48946   8.752  12.702  10.977 -0.3849  0.0234  0.0363
32873ION     NA48947   6.027   4.658  10.942  0.0130  0.0307 -0.0629
32874ION     NA48948   3.862   9.143   1.237 -0.1287  0.1523 -0.0348
32875ION     NA48949  10.449   6.234   6.803  0.1290 -0.1684 -0.0635
32876ION     NA48950  13.090   8.794   2.698  0.0117 -0.2384  0.0692
32877ION     NA48951   2.247   0.935   6.348  0.0447 -0.2296 -0.0532
32878ION     NA48952   0.121   1.079  10.982  0.0078  0.1670 -0.4756
32879ION     NA48953  14.069  14.478   6.373 -0.0815  0.2449  0.2296
32880ION     NA48954  12.773  13.964   6.163 -0.0631  0.1501  0.0500
32881ION     NA48955  12.672  13.882  13.137 -0.0363 -0.5510  0.2115
32882ION     NA48956   5.582  15.898   6.303 -0.1128  0.1681 -0.0759
32883ION     NA48957   7.341  15.783   3.187 -0.1310  0.3246 -0.0988
32884ION     NA48958   0.573   2.938  11.087 -0.1051  0.0171 -0.1041
32885ION     NA48959   3.418  11.577  11.184 -0.0974 -0.2199 -0.0070
32886ION     NA48960   3.804   6.126  10.728  0.1970  0.1286  0.0001
32887ION     NA48961  15.374   9.124   6.262 -0.4473  0.2209  0.0268
32888ION     NA48962   5.092   2.181  11.345  0.1098  0.1781 -0.1710
32889ION     NA48963   5.699  14.457   5.964  0.1139  0.1042 -0.2630
32890ION     NA48964  15.423  17.676   6.230  0.0643 -0.0052  0.1976
32891ION     NA48965   2.179   6.473   5.985 -0.0276  0.0495  0.1283
32892ION     NA48966  16.854  10.760  10.817 -0.0022  0.0230 -0.0600
32893ION     NA48967  11.421   3.324  10.791 -0.1784 -0.1206  0.0612
32894ION     NA48968  17.018   9.018  10.941 -0.1790  0.2175  0.0111
32895ION     NA48969  13.007   2.097  10.923 -0.1371 -0.0740 -0.1646
32896ION     NA48970   7.978   1.877  11.019  0.2273 -0.2096  0.0844
32897ION     NA48971  16.672   6.626   5.798  0.2566 -0.0218  0.1284
32898ION     NA48972   6.559  15.285  10.993  0.1199  0.4177 -0.2467
32899ION     NA48973  11.729   8.536  10.865 -0.0914 -0.0611 -0.1858
32900ION     NA48974  11.218  10.297   1.015 -0.0683 -0.0263  0.0275
32901ION     NA48975  12.057   6.096  16.084  0.1441  0.0247 -0.0145
32902ION     NA48976   4.606   6.243  13.607  0.2422  0.1796  0.0488
32903ION     NA48977  17.626   4.348  10.986 -0.1181 -0.1471  0.2166
32904ION     NA48978  16.189  10.014  15.291 -0.1714 -0.1662 -0.2823
32905ION     NA48979   4.645   1.227   0.504 -0.3571  0.0766 -0.0863
32906ION     NA48980  11.384  16.903   5.806 -0.0438 -0.2157 -0.0058
32907ION     NA48981  12.899   0.252  11.142 -0.1797  0.0268  0.0198
32908ION     NA48982   1.666   6.784  16.434  0.0358  0.1492  0.2667
32909ION     NA48983  12.178  16.518  10.900 -0.4087 -0.2906  0.1783
32910ION     NA48984  13.700   8.861   5.983  0.2899 -0.1331  0.1001
32911ION     NA48985  15.775  13.315   6.454  0.3395  0.2662 -0.0998
32912ION     NA48986  17.657   9.899   6.615  0.0122  0.1259 -0.1601
32913ION     NA48987   1.227  10.678  11.163  0.3130 -0.1580  0.0768
32914ION     NA48988   9.415   5.010  13.092 -0.0123  0.3293  0.0274
32915ION     NA48989   9.844  10.531   5.991  0.1180  0.1004  0.2267
32916ION     NA48990   6.672   5.541  13.581  0.3320  0.0306 -0.2125
32917ION     NA48991   1.929   4.670  11.111  0.2199 -0.1164 -0.0789
32918ION     NA48992   2.913  13.475  16.640 -0.2117  0.0096 -0.2257
32919ION     NA48993  16.807   3.682  10.982 -0.0593 -0.2539 -0.0618
32920ION     NA48994   9.123   3.870  11.058 -0.1039  0.2397  0.2543
32921ION     NA48995   7.564  16.078  13.795  0.0688 -0.1140  0.0785
32922ION     NA48996   8.478   8.348   4.266  0.0666  0.1093 -0.2408
32923ION     NA48997  16.133  10.096  10.976 -0.1868  0.3800  0.2449
32924ION     NA48998  15.880   0.862   1.297  0.0997 -0.0178 -0.1268
32925ION     NA48999  14.797   4.375  10.754 -0.0850  0.1019 -0.0023
32926ION     NA49000  16.405   5.255  10.707 -0.0384 -0.1252  0.0557
32927ION     NA49001  15.724  16.325   6.052  0.1648 -0.0006 -0.3114
32928ION     NA49002   7.228   9.635  11.123  0.0720  0.0558  0.0264
32929ION     NA49003   0.040   8.554  11.011 -0.2887 -0.0461  0.0904
32930ION     NA49004   3.486   1.746  11.241 -0.0467 -0.2275  0.1202
32931ION     NA49005  17.718   0.022  10.940  0.0632 -0.1381  0.2849
32932ION     NA49006   1.908   9.724  11.257 -0.2619 -0.0240  0.5482
32933ION     NA49007  13.692   3.433  11.232 -0.0689  0.3820  0.0643
32934ION     NA49008   5.932   9.939  12.167 -0.0187  0.2175  0.1928
32935ION     NA49009  16.124   6.535  10.732  0.0894  0.1577  0.2412
32936ION     NA49010   2.528  11.413  10.786  0.1247  0.2510 -0.0658
32937ION     NA49011   6.979  16.902  11.066 -0.0302 -0.0027 -0.1426
32938ION     NA49012  11.597   0.401   6.166 -0.0343 -0.2925  0.2632
32939ION     NA49013   8.097   8.298  10.983  0.1449  0.0906 -0.0154
32940ION     NA49014   8.116  14.466  10.828 -0.0550  0.1045  0.0315
32941ION     NA49015   6.399   1.206   0.427  0.3740 -0.0899  0.0370
32942ION     NA49016   8.275  10.515  11.185 -0.0347 -0.1214  0.0986
32943ION     NA49017   1.744   9.518   6.581  0.0617  0.1776 -0.1550
32944ION     NA49018   7.639   4.255  16.584 -0.2419  0.1770 -0.0696
32945ION     NA49019  10.684   3.732  11.052  0.0232  0.0680  0.2763
32946ION     NA49020  14.769  11.904   5.829 -0.0228  0.0090  0.2709
32947ION     NA49021   1.846   5.537   5.245 -0.1678  0.1258  0.0754
32948ION     NA49022   0.257  12.194   6.103  0.2331 -0.0167 -0.0699
32949ION     NA49023   6.279   9.282  10.948  0.1537 -0.0111  0.0977
32950ION     NA49024  15.913   5.919   2.059  0.0149  0.0526  0.0447
32951ION     NA49025   6.163   5.878  10.754  0.3352 -0.3670  0.1054
32952ION     NA49026   6.388   9.870  11.207 -0.2516  0.2417 -0.1746
32953ION     NA49027   2.325  10.452  11.097  0.0939 -0.3096  0.0430
32954ION     NA49028  13.250  11.363  15.445 -0.3247 -0.0906 -0.1248
32955ION     NA49029  10.113  13.044  11.061  0.0826 -0.0731 -0.0663
32956ION     NA49030  14.179   8.176   6.131  0.1078  0.0941  0.1572
32957ION     NA49031   0.223   9.679  15.723  0.1364  0.2485  0.2119
32958ION     NA49032   7.800   0.942  10.868 -0.0845  0.1619  0.1096
32959ION     NA49033   8.175  11.544  10.937 -0.3379  0.2131  0.0118
32960ION     NA49034   7.932   6.810  10.903 -0.0813 -0.1679 -0.2106
32961ION     NA49035   6.754  14.315  13.050  0.0640 -0.0998 -0.0437
32962ION     NA49036  12.456   5.247  11.141  0.1784  0.0543  0.3959
32963ION     NA49037   8.474   1.392   1.504 -0.0625 -0.3279  0.1456
32964ION     NA49038  10.595  14.225  15.867 -0.2255  0.0204 -0.2732
32965ION     NA49039  11.425  16.764  10.724  0.4322  0.1668 -0.0593
32966ION     NA49040  15.925   3.945  10.879  0.1060  0.0772  0.2051
32967ION     NA49041  14.715  16.699   4.526  0.1328 -0.1471  0.0609
32968ION     NA49042   2.653   5.345  10.755 -0.1710 -0.1834  0.1765
32969ION     NA49043   0.260   5.158  11.083 -0.0508  0.1112 -0.1032
32970ION     NA49044   4.548   4.588  13.708  0.0278 -0.2005  0.0638
32971ION     NA49045  10.150   8.936  10.930  0.0482 -0.0997  0.0499
32972ION     NA49046   3.284   8.160  10.466  0.1987  0.0373  0.0635
32973ION     NA49047  14.562   8.382  10.589  0.4677 -0.0583  0.2179
32974ION     NA49048  13.913   7.368   1.640  0.0852 -0.2124  0.0843
32975ION     NA49049   6.618   4.033  10.752  0.1528  0.3578 -0.1837
32976ION     NA49050  11.390  11.886  10.921  0.0374  0.2224  0.3843
32977ION     NA49051  10.779   3.992  12.770  0.0864  0.1387 -0.1087
32978ION     NA49052  13.054  16.246  10.914  0.1335 -0.2163  0.2270
32979ION     NA49053  12.301  12.038  10.793 -0.3120 -0.0259 -0.0906
32980ION     NA49054   9.123   4.882   6.667  0.1331 -0.3999  0.2059
32981ION     NA49055  16.547   1.522   3.801  0.1309  0.0858  0.0918
32982ION     NA49056   2.204  17.086  11.303  0.0539 -0.0303 -0.4365
32983ION     NA49057   8.674   5.046  11.067 -0.0847  0.1088  0.2131
32984ION     NA49058  10.171   1.915   4.932 -0.0945 -0.0355 -0.2040
32985ION     NA49059   1.702   1.037  11.060 -0.3212  0.1148  0.0681
32986ION     NA49060   3.442   6.823  10.794 -0.0549  0.5657  0.3056
32987ION     NA49061   7.085   2.468  11.047  0.0278  0.3459 -0.0062
32988ION     NA49062  13.551  14.621  10.906  0.2136  0.2098  0.0980
32989ION     NA49063   3.945   7.673  10.679  0.1198 -0.0937  0.1354
32990ION     NA49064  13.494  11.285  10.909  0.0614 -0.4854 -0.4643
32991ION     NA49065  16.517  13.643  12.299 -0.1932 -0.0473  0.0302
32992ION     NA49066  12.739   3.655   5.814 -0.0525  0.1816 -0.1251
32993ION     NA49067   4.634   8.553  10.500  0.0851 -0.1814 -0.2138
32994ION     NA49068   0.832  17.264  11.010 -0.2885 -0.0255 -0.0176
32995ION     NA49069  13.398  12.431  10.984  0.0855 -0.0035  0.2238
32996ION     NA49070   1.569   8.959  11.057 -0.0573 -0.1400 -0.0756
32997ION     NA49071   0.624   3.654  14.661  0.3448 -0.0361 -0.0679
32998ION     NA49072  12.382   9.341  10.776 -0.0783  0.0328  0.0244
32999ION     NA49073  17.585  10.871  10.850  0.1241  0.1138  0.2695
33000ION     NA49074  15.111  16.095  10.886 -0.2211 -0.0379  0.0238
33001ION     NA49075  13.612  12.067   3.961 -0.0352  0.0070 -0.4753
33002ION     NA49076   7.159   7.150  11.116 -0.0860  0.2496  0.0745
33003ION     NA49077   0.323  11.273   6.282  0.0665  0.1961  0.0656
33004ION     NA49078  10.998  12.616  11.123  0.0906  0.0060  0.2809
33005ION     NA49079  11.727  13.697   4.385  0.0710  0.0159 -0.0867
33006ION     NA49080  17.379   9.702  16.464 -0.1274  0.0949  0.0198
33007ION     NA49081  14.097  13.004  10.981  0.0570  0.0406  0.2221
33008ION     NA49082   1.144   5.063  10.939 -0.2339  0.0932 -0.0260
33009ION     NA49083  11.594   2.289   6.247  0.0014 -0.0718  0.1500
33010ION     NA49084  15.285  10.654  10.688  0.2443  0.3716 -0.0611
33011ION     NA49085  15.194   8.869  10.721 -0.3327 -0.0673  0.1052
33012ION     NA49086  15.386   2.175  11.222  0.0495 -0.1851  0.0875
33013ION     NA49087   6.557   0.624  10.909  0.0446 -0.5031 -0.1232
33014ION     NA49088   9.455   2.974   1.113  0.3025  0.0587 -0.0346
33015ION     NA49089  14.413  11.614   2.065  0.0498 -0.3406  0.2627
33016ION     NA49090  13.885  16.124   6.456  0.0160  0.3580 -0.0162
33017ION     NA49091   5.305  13.310  16.796  0.0851 -0.1538  0.0959
33018ION     NA49092   8.473  16.624   6.199  0.3949 -0.0996  0.0903
33019ION     NA49093   9.598   4.159   5.543 -0.0550  0.1114 -0.0712
33020ION     NA49094   2.613   0.981  11.186  0.2461  0.4594 -0.3659
33021ION     NA49095   7.813   0.727  11.765  0.0810 -0.0914 -0.3781
33022ION     NA49096  13.862   6.265   2.433 -0.1462 -0.3431 -0.0470
33023ION     NA49097  13.931   2.820   2.781  0.0176  0.0049 -0.1145
33024ION     NA49098   8.688  13.509  13.055 -0.0364  0.3496 -0.1091
33025ION     NA49099   7.955  15.698   6.441  0.1603 -0.0917 -0.0605
33026ION     NA49100  13.280  12.367   3.156  0.0103  0.1864  0.1456
33027ION     NA49101   2.052   1.821   6.209  0.0857 -0.1663 -0.2212
33028ION     NA49102  11.029   4.934  14.997 -0.0341 -0.1274  0.3961
33029ION     NA49103  14.038  10.652   5.907 -0.2104 -0.0343 -0.2063
33030ION     NA49104  16.942   2.212  10.839 -0.0138  0.0887  0.1196
33031ION     NA49105   6.034   5.529  15.645 -0.0545  0.0535  0.0611
33032ION     NA49106  10.929  15.236  11.086  0.5875 -0.2605 -0.1589
33033ION     NA49107  15.590  12.261  10.887 -0.1113  0.0938  0.1497
33034ION     NA49108  10.294   0.811  10.872  0.1096 -0.1147 -0.1924
33035ION     NA49109  14.365   8.283  11.815 -0.0642 -0.1662  0.0914
33036ION     NA49110   1.831  15.292  11.036  0.1920  0.0883 -0.0164
33037ION     NA49111  17.060   7.372   4.855  0.1322  0.1848  0.2942
33038ION     NA49112  12.366   2.504  10.864 -0.0910  0.0646 -0.1349
33039ION     NA49113   9.363  14.917   1.927  0.0636  0.0016  0.2459
33040ION     NA49114   2.011   1.504  13.398 -0.2856  0.2043  0.0590
33041ION     NA49115  10.285  15.944   0.001  0.1270  0.1027  0.0812
33042ION     NA49116   1.589  15.892  10.919  0.0176  0.1938 -0.1141
33043ION     NA49117  13.109  11.054   3.849 -0.0426  0.1974 -0.0328
33044ION     NA49118  12.078  16.715  16.486  0.0861 -0.0171  0.0917
33045ION     NA49119   8.457  11.523   3.697 -0.2565 -0.3061  0.4021
33046ION     NA49120  12.588   9.250  11.713  0.1944  0.2638  0.0085
33047ION     NA49121  16.134   2.517  11.058 -0.0330 -0.3382 -0.0937
33048ION     NA49122  13.560   4.887   6.216  0.0645  0.1227 -0.2702
33049ION     NA49123   6.346   0.150   6.434 -0.0355  0.0741  0.0379
33050ION     NA49124   1.776  15.664   3.762 -0.1268  0.1060  0.3292
33051ION     NA49125   8.105  12.379   5.707  0.4162 -0.2132 -0.0994
33052ION     NA49126   5.397   8.173   6.117 -0.1438  0.0852  0.1323
33053ION     NA49127  17.257  12.546  16.445 -0.0980 -0.2494  0.1130
33054ION     NA49128   9.914   6.506  11.029 -0.0665 -0.3995  0.1788
33055ION     NA49129   8.707   0.151   3.080 -0.0413  0.0495  0.0622
33056ION     NA49130  15.171  17.085  11.099  0.3567  0.0915 -0.0053
33057ION     NA49131   2.277   8.232  10.810 -0.2178  0.0713 -0.2208
33058ION     NA49132  17.248   3.925  13.539  0.0352 -0.0927 -0.0682
33059ION     NA49133   0.722   4.288  10.830  0.2922 -0.0265 -0.2185
33060ION     NA49134   8.824   4.380   2.575  0.2009  0.1005 -0.2869
33061ION     NA49135   5.659   3.760  10.746 -0.2324 -0.1107  0.0665
33062ION     NA49136   5.390   3.043  11.149  0.1112 -0.0454 -0.1131
33063ION     NA49137   5.263   6.789   2.371  0.3744 -0.2164  0.1521
33064ION     NA49138  13.732   1.453  10.885 -0.1608 -0.0974 -0.1966
33065ION     NA49139   7.284  11.543  13.500  0.0340  0.4032  0.2648
33066ION     NA49140   7.935  16.815  10.838 -0.2013 -0.0254  0.0773
33067ION     NA49141  11.923  11.151  10.802 -0.0265 -0.1828 -0.0588
33068ION     NA49142   9.163   0.045  10.794  0.1268 -0.2086 -0.0297
33069ION     NA49143   2.565   1.747  11.088 -0.0843 -0.3118 -0.0301
33070ION     NA49144   0.899  16.658  10.952 -0.1605  0.0056  0.1736
33071ION     NA49145   4.650   5.749  10.720 -0.0781  0.0023  0.1083
33072ION     NA49146   3.672  10.223  10.893 -0.1643 -0.2781  0.0833
33073ION     NA49147  17.730   3.215   0.183 -0.0332 -0.1279  0.3399
33074ION     NA49148   8.583  16.230  10.906  0.0325 -0.1746  0.3326
33075ION     NA49149  16.586   0.830  10.982 -0.3706 -0.1244  0.1597
33076ION     NA49150  10.707   0.399   5.973  0.0781 -0.2289  0.0737
33077ION     NA49151   6.362   3.044  10.852  0.2492 -0.1735  0.2188
33078ION     NA49152  11.610  15.865  10.927 -0.1503 -0.0274  0.3013
33079ION     NA49153   6.951  10.812   1.954 -0.0311 -0.0008 -0.0997
33080ION     NA49154  12.827   6.348   0.355  0.3490  0.2257 -0.1075
33081ION     NA49155  16.129   0.559   4.967  0.0327 -0.1552 -0.2571
33082ION     NA49156   6.603  10.895  16.484 -0.1098  0.1242  0.0721
33083ION     NA49157  15.619   5.395   5.003  0.1474 -0.0943 -0.0436
33084ION     NA49158  16.648  12.628  10.886 -0.0094  0.2236  0.0980
33085ION     NA49159  16.834  13.906   3.241 -0.0609 -0.1707 -0.1140
33086ION     NA49160   9.956  17.179  12.001  0.2311 -0.0729  0.0910
33087ION     NA49161   3.438   2.384   6.469  0.1933  0.3270  0.2376
33088ION     NA49162  15.065   0.101  10.769 -0.0997 -0.0086  0.5008
33089ION     NA49163   0.908   3.968   6.207  0.0319 -0.1383 -0.0253
33090ION     NA49164  12.370  14.760   4.874 -0.3480 -0.0335  0.0990
33091ION     NA49165   9.327   1.437   3.122 -0.0757  0.0514  0.1455
33092ION     NA49166  13.153   7.153   6.274 -0.0654  0.0324  0.0980
33093ION     NA49167  14.966  15.042  13.598 -0.0304  0.1964 -0.1009
33094ION     NA49168   5.415   8.919  10.804  0.1910  0.0509 -0.1114
33095ION     NA49169  14.537   3.995  10.872 -0.1371  0.3182  0.1690
33096ION     NA49170  11.801  17.441  10.929 -0.0720  0.0544 -0.2065
33097ION     NA49171  17.319   9.986  10.921 -0.1228 -0.0170 -0.2767
33098ION     NA49172   8.110  12.445  16.128  0.0329 -0.2866  0.0412
33099ION     NA49173   4.515  17.316  10.695  0.0973 -0.0447  0.0985
33100ION     NA49174  14.139  12.036  11.030  0.1661  0.0652 -0.1436
33101ION     NA49175  16.518  10.466  17.121  0.0650 -0.3897  0.0599
33102ION     NA49176   8.082   0.472   6.101 -0.0513 -0.0004  0.0319
33103ION     NA49177  10.257   4.466   0.781  0.3205 -0.1379 -0.2803
33104ION     NA49178   7.453   1.219   6.078 -0.1156  0.0466  0.3455
33105ION     NA49179  11.708  12.700  10.976 -0.1522  0.0844  0.0515
33106ION     NA49180   1.594  14.426  10.952 -0.0983 -0.0341  0.0286
33107ION     NA49181  17.689   6.379  10.773 -0.0531 -0.1128 -0.1027
33108ION     NA49182  15.429   6.743  10.813  0.1372  0.1986 -0.2007
33109ION     NA49183  13.303   5.454  11.007 -0.2443 -0.1019 -0.0994
33110ION     NA49184  16.763  17.059   5.698 -0.3270 -0.0124  0.0188
33111ION     NA49185   9.821   2.333  10.864 -0.2020 -0.1414  0.0311
33112ION     NA49186  14.468   4.098  13.524 -0.0949 -0.0902 -0.1846
33113ION     NA49187   3.709   7.237   5.717 -0.2296  0.0627  0.1072
33114ION     NA49188   3.416   2.609  11.080 -0.1336  0.2116  0.0010
33115ION     NA49189   6.254  11.377   5.933  0.3221 -0.1084  0.0199
33116ION     NA49190   4.550  15.150  10.817  0.0804 -0.0746  0.1801
33117ION     NA49191   7.260   1.592  10.922 -0.1543  0.0438  0.2125
33118ION     NA49192   2.812  16.222  13.881  0.0199 -0.1214 -0.1074
33119ION     NA49193  14.354   2.045   6.089 -0.0338 -0.1467  0.2307
33120ION     NA49194  16.600   5.051   2.862  0.0748 -0.2369 -0.1689
33121ION     NA49195   5.538   5.998  16.528 -0.0127 -0.1548  0.0718
33122ION     NA49196  13.385  14.271  11.826 -0.0361  0.3962 -0.0872
33123ION     NA49197   1.480  12.141  10.859  0.0079 -0.2797  0.1682
33124ION     NA49198   9.879  11.225  10.928 -0.1031 -0.2969 -0.0593
33125ION     NA49199  11.176  17.072  12.839 -0.0722 -0.1982 -0.0000
33126ION     NA49200   9.147   6.101  11.049  0.0922  0.1266 -0.1688
33127ION     NA49201  14.014   3.581   5.387  0.0287 -0.0001 -0.1170
33128ION     NA49202   2.378   3.708  11.334 -0.3557  0.1929  0.0243
33129ION     NA49203   2.847  15.814   3.186  0.0610 -0.0626  0.1676
33130ION     NA49204   7.990   5.623   6.389 -0.1038 -0.1633  0.3500
33131ION     NA49205  12.508   9.084   6.167 -0.0485 -0.0108 -0.0481
33132ION     NA49206   5.986  16.876  10.923 -0.1734  0.1824 -0.1987
33133ION     NA49207   8.297   7.458  10.903 -0.1007 -0.1249 -0.0580
33134ION     NA49208   0.351   0.253   5.766  0.3602 -0.1619  0.1159
33135ION     NA49209  13.258  13.409  13.965 -0.0271  0.1861 -0.1207
33136ION     NA49210   5.447  13.781  11.012 -0.0969  0.2227  0.0645
33137ION     NA49211  16.820  11.406   6.428  0.2001 -0.1060 -0.2017
33138ION     NA49212  16.398   4.426  10.722 -0.1003 -0.0106  0.1158
33139ION     NA49213  15.840  15.464   2.840  0.0635 -0.2184  0.1380
33140ION     NA49214   6.815   6.649  10.514  0.0987 -0.1547 -0.0612
33141ION     NA49215   3.078  13.399   6.310 -0.1402  0.1254  0.1197
33142ION     NA49216   2.338  15.880   1.315 -0.0459  0.0907  0.4477
33143ION     NA49217  13.276  13.272  11.132 -0.2126 -0.1220 -0.1829
33144ION     NA49218  17.639   8.842  17.057 -0.2011 -0.0855 -0.1204
33145ION     NA49219  16.077  13.826  14.453 -0.1653 -0.0270 -0.2765
33146ION     NA49220  10.737  12.329   1.204 -0.2029 -0.2078  0.2552
33147ION     NA49221   6.716   9.707   6.393  0.2033  0.2808 -0.1000
33148ION     NA49222   7.792   3.162   6.200  0.3062 -0.1270  0.2069
33149ION     NA49223   5.248  17.624  15.882 -0.1813  0.1901 -0.1351
33150ION     NA49224  10.593  11.281  11.847  0.1357  0.2857  0.0168
33151ION     NA49225   5.083   8.213   2.873 -0.1336 -0.0616 -0.0634
33152ION     NA49226  15.404   7.305   2.281  0.1631 -0.1256  0.3052
33153ION     NA49227  11.088  15.597   6.350  0.1577 -0.1034 -0.1066
33154ION     NA49228   0.462   6.579  10.782 -0.3445 -0.0430  0.0204
33155ION     NA49229  15.461  17.144  15.882 -0.3318  0.1632  0.0098
33156ION     NA49230   9.014   8.170  15.035 -0.0281 -0.2386  0.0789
33157ION     NA49231   4.791   3.642  11.090 -0.2757 -0.3438 -0.1065
33158ION     NA49232  16.873  17.741  11.053  0.4083 -0.0466  0.0147
33159ION     NA49233  14.663  12.034  10.722 -0.0810  0.1755  0.0176
33160ION     NA49234   8.354  13.474  11.031  0.0485  0.0886  0.0085
33161ION     NA49235   7.624   9.520   6.263 -0.0981 -0.0549  0.0515
33162ION     NA49236   1.707  17.041  13.431  0.1622 -0.0811 -0.0636
33163ION     NA49237  16.512   1.084   2.083  0.0185  0.1375 -0.0613
33164ION     NA49238  15.478  16.373  11.032 -0.2165  0.1026  0.1210
33165ION     NA49239  12.273   7.621  10.785 -0.1934 -0.0238 -0.4180
33166ION     NA49240   2.889   6.460  10.990  0.1646 -0.0296 -0.0094
33167ION     NA49241   2.688   7.449   5.962 -0.0043 -0.0368  0.2945
33168ION     NA49242  13.530  10.350  10.634  0.1709 -0.4156 -0.2208
33169ION     NA49243   1.301  17.608  11.037 -0.2267  0.2633 -0.0798
33170ION     NA49244   3.788   5.313  10.796 -0.1332 -0.1671  0.2705
33171ION     NA49245  12.364   9.338   3.450  0.0626 -0.0380  0.0776
33172ION     NA49246  14.518   5.219  10.918 -0.2316 -0.2828 -0.4336
33173ION     NA49247  10.124  14.527  11.257 -0.3065  0.3849 -0.0130
33174ION     NA49248  10.822   8.972   4.366  0.1760  0.1069 -0.2029
33175ION     NA49249   6.231   9.359   6.364 -0.3217  0.1888  0.1117
33176ION     NA49250  10.117   7.338  10.900 -0.0789  0.0148  0.1950
33177ION     NA49251  11.556  17.608   6.223 -0.3650  0.0320  0.0708
33178ION     NA49252  14.790   2.562  11.001 -0.0513 -0.4067  0.0413
33179ION     NA49253   7.974   2.877  11.068  0.0022 -0.1472 -0.0996
33180ION     NA49254  16.831   9.323   5.947 -0.4630 -0.1395  0.3362
33181ION     NA49255  11.583   1.865  16.676  0.1095  0.1355 -0.0787
33182ION     NA49256   8.891   0.747   2.175  0.2388 -0.0267  0.2438
33183ION     NA49257   5.001   9.534  10.675  0.1192 -0.2195 -0.1236
33184ION     NA49258   8.652   7.311   6.411 -0.0547  0.2784  0.1230
33185ION     NA49259   0.932   1.557  10.955 -0.1484 -0.2150  0.0582
33186ION     NA49260  16.728  13.552  10.943 -0.1597 -0.1677 -0.1794
33187ION     NA49261  15.430  11.648  10.716 -0.1687  0.0139 -0.1625
  17.74321  17.74321  17.16056
